  ==> Input File <==

--------------------------------------------------------------------------
set {
	reference rhf
	basis 6-31G*
}

set_num_threads( 4 )
memory 2 gb

molecule MOL {
0 1

O	 2.862325	 1.357334	 0.000267
C	 2.843464	 0.164689	 -0.000222
C	 1.546494	 -0.624492	 -0.000609
C	 4.124123	 -0.644674	 -0.000428
C	 0.291004	 0.242674	 0.000989
H	 1.557904	 -1.283758	 -0.867573
H	 1.558622	 -1.285963	 0.864672
C	 -0.994322	 -0.586602	 0.000262
H	 0.309117	 0.896430	 -0.865270
H	 0.309661	 0.894078	 0.869017
C	 -2.259874	 0.272531	 0.000494
H	 -1.004862	 -1.240012	 -0.870939
H	 -1.005220	 -1.241071	 0.870675
C	 -3.545761	 -0.543779	 -0.141437
H	 -2.202858	 0.996680	 -0.810293
H	 -2.301498	 0.850874	 0.921788
C	 -4.805576	 0.321409	 -0.140603
H	 -3.505838	 -1.121415	 -1.062614
H	 -3.604630	 -1.266989	 0.669341
H	 -4.792750	 1.033227	 -0.961151
H	 -5.700045	 -0.285300	 -0.243217
H	 -4.892873	 0.885747	 0.783544
H	 4.165367	 -1.288615	 -0.874074
H	 4.976217	 0.020734	 -0.001915
H	 4.166763	 -1.286207	 0.874930

	symmetry c1
}
set optking {
	frozen_dihedral = ("
		15 11 8 12
	")
}

ee = optimize('scf')
oeprop('DIPOLE', 'QUADRUPOLE', 'MULLIKEN_CHARGES')
f=open( 'psi4out.xyz', 'w' )
f.write( "25  " )
f.write( str(ee) + "\n" )
f.write( MOL.save_string_xyz() )
f.close()
--------------------------------------------------------------------------

    Molecular point group: c1
  Charge       = 0
  Multiplicity = 1
  Basis Set: 6-31G*
  Basis Set:
  @DF-RHF Final Energy:  -387.13641588520755
    Total Energy =                       -387.1364158852077253
    Molecular point group: c1
  Basis Set: 6-31G*
  Basis Set:
  Basis Set: 6-31G*
  Basis Set:
  @DF-RHF Final Energy:  -387.13641458634095
    Total Energy =                       -387.1364145863411750
  Basis Set: 6-31G*
  Basis Set:
  Basis Set: 6-31G*
  Basis Set:
  @DF-RHF Final Energy:  -387.13643583275586
    Total Energy =                       -387.1364358327557511
  Basis Set: 6-31G*
  Basis Set:
  Basis Set: 6-31G*
  Basis Set:
  @DF-RHF Final Energy:  -387.13641340079960
    Total Energy =                       -387.1364134007991424
  Basis Set: 6-31G*
  Basis Set:
  Basis Set: 6-31G*
  Basis Set:
  @DF-RHF Final Energy:  -387.13643760551315
    Total Energy =                       -387.1364376055130379
  Basis Set: 6-31G*
  Basis Set:
  Charge       = 0
  Multiplicity = 1
  Basis Set: 6-31G*
  Basis Set:

    Orbital Energies (a.u.)
    -----------------------

    Doubly Occupied:

       1A    -20.550502     2A    -11.326340     3A    -11.231929
       4A    -11.228372     5A    -11.217146     6A    -11.216549
       7A    -11.215466     8A    -11.213496     9A    -11.208347
      10A     -1.395807    11A     -1.093613    12A     -1.056368
      13A     -1.014549    14A     -0.969273    15A     -0.890766
      16A     -0.814249    17A     -0.790962    18A     -0.729960
      19A     -0.661232    20A     -0.651991    21A     -0.631829
      22A     -0.624120    23A     -0.595967    24A     -0.584380
      25A     -0.566441    26A     -0.559857    27A     -0.540258
      28A     -0.526341    29A     -0.512540    30A     -0.489977
      31A     -0.487828    32A     -0.473237    33A     -0.463971
      34A     -0.461737    35A     -0.451045    36A     -0.399472

  @DF-RHF Final Energy:  -387.13643761468882

   => Energetics <=

    Nuclear Repulsion Energy =            438.3245837105670262
    One-Electron Energy =               -1393.2302085295477809
    Two-Electron Energy =                 567.7691872042913701
    DFT Exchange-Correlation Energy =       0.0000000000000000
    Empirical Dispersion Energy =           0.0000000000000000
    PCM Polarization Energy =               0.0000000000000000
    EFP Energy =                            0.0000000000000000
    Total Energy =                       -387.1364376146893846
    Molecular point group: c1
  Basis Set: 6-31G*
  Basis Set:

  -Total Gradient:
     Atom            X                  Y                   Z
    ------   -----------------  -----------------  -----------------
       1       -0.000000021574    -0.000000005831    -0.000003509673
       2       -0.000000355188    -0.000000171213     0.000011819913
       3       -0.000002731786    -0.000001539917    -0.000001567658
       4        0.000000281215    -0.000000183857    -0.000003597980
       5        0.000001633918     0.000003596916    -0.000006423056
       6       -0.000000462870     0.000001066397     0.000000811908
       7        0.000000496951    -0.000000679428     0.000000576808
       8        0.000721016368     0.001076310500    -0.000542709734
       9        0.000001165005    -0.000001625557    -0.000001555115
      10       -0.000004559621    -0.000001666198    -0.000001981305
      11       -0.000692010174    -0.001022524658    -0.000663463016
      12       -0.000498272804    -0.000739011913     0.000558892044
      13        0.000003523007     0.000000339812     0.000002393403
      14       -0.000001787056    -0.000004142505     0.000004422694
      15        0.000468832807     0.000687181456     0.000647242281
      16       -0.000002811229    -0.000001391036     0.000003593848
      17        0.000003130937     0.000002076858    -0.000008460741
      18       -0.000002156790    -0.000000987193     0.000001661215
      19        0.000005633601     0.000003935907     0.000001712029
      20        0.000000383658     0.000002991420     0.000002612402
      21       -0.000000602344     0.000000320210    -0.000003706010
      22       -0.000000343713    -0.000004047480     0.000001500816
      23        0.000000513463    -0.000000406283    -0.000000054356
      24        0.000000026492     0.000000100355    -0.000000129696
      25       -0.000000522273     0.000000463234    -0.000000081023

  **** Optimization is complete! (in 6 steps) ****
    Final optimized geometry and variables:
    Molecular point group: c1

    Geometry (in Angstrom), charge = 0, multiplicity = 1:

    O            2.862567615911     1.355657195959     0.029376983060
    C            2.843253893245     0.163053353156     0.037609839738
    C            1.546020039102    -0.625672921068     0.031617398363
    C            4.123524190104    -0.646731930849     0.054716848203
    C            0.290994867686     0.241978130589     0.016015857334
    H            1.564579109440    -1.291035154172    -0.830571870194
    H            1.550346274536    -1.280983871039     0.901609335120
    C           -0.994371936900    -0.586442082736     0.006891575079
    H            0.317914474762     0.890980000247    -0.853481862667
    H            0.301146383630     0.898119100225     0.880697037086
    C           -2.261121708882     0.271383667155     0.014673367384
    H           -1.005958620807    -1.239028518131    -0.865007165727
    H           -1.007485544866    -1.246483788837     0.873263096037
    C           -3.548307844315    -0.544896129982    -0.110255139476
    H           -2.210784140570     0.998193647208    -0.794227673775
    H           -2.292178015436     0.851734347241     0.935334118731
    C           -4.808740757977     0.318801329871    -0.079449987331
    H           -3.524479711406    -1.114933193200    -1.036635825927
    H           -3.591540515618    -1.274795825507     0.695578064650
    H           -4.810280438329     1.038826828165    -0.892897783672
    H           -5.704187223522    -0.287877528898    -0.173213811239
    H           -4.881084254259     0.873687113552     0.851662088531
    H            4.172199456625    -1.297128852219    -0.813747819001
    H            4.975874428776     0.018337320263     0.055803541722
    H            4.158189188114    -1.281790370461     0.935139789160

  Mulliken Charges: (a.u.)
   Center  Symbol    Alpha    Beta     Spin     Total
       1     O     4.26116  4.26116  0.00000 -0.52231
       2     C     2.73570  2.73570  0.00000  0.52860
       3     C     3.21091  3.21091  0.00000 -0.42182
       4     C     3.28663  3.28663  0.00000 -0.57326
       5     C     3.14804  3.14804  0.00000 -0.29608
       6     H     0.40993  0.40993  0.00000  0.18014
       7     H     0.40998  0.40998  0.00000  0.18004
       8     C     3.15403  3.15403  0.00000 -0.30805
       9     H     0.41201  0.41201  0.00000  0.17598
      10     H     0.41217  0.41217  0.00000  0.17566
      11     C     3.15084  3.15084  0.00000 -0.30167
      12     H     0.42489  0.42489  0.00000  0.15022
      13     H     0.42490  0.42490  0.00000  0.15019
      14     C     3.15153  3.15153  0.00000 -0.30305
      15     H     0.42230  0.42230  0.00000  0.15540
      16     H     0.42261  0.42261  0.00000  0.15477
      17     C     3.23937  3.23937  0.00000 -0.47874
      18     H     0.42340  0.42340  0.00000  0.15321
      19     H     0.42355  0.42355  0.00000  0.15290
      20     H     0.42127  0.42127  0.00000  0.15747
      21     H     0.41953  0.41953  0.00000  0.16095
      22     H     0.42140  0.42140  0.00000  0.15721
      23     H     0.40873  0.40873  0.00000  0.18254
      24     H     0.39645  0.39645  0.00000  0.20709
      25     H     0.40869  0.40869  0.00000  0.18262

   Total alpha = 36.00000, Total beta = 36.00000, Total charge =  0.00000
