                              Psi4 1.0.54 Driver

  ==> Input File <==

--------------------------------------------------------------------------
set {
	reference rhf
	basis cc-pvtz
}

set_num_threads( 4 )
memory 2 gb

molecule MOL {
0 1

H	 1.860482	 -0.730104	 0.664334
C	 1.008677	 -0.804107	 0.004286
O	 0.000000	 0.000000	 0.518769
H	 1.307598	 -0.480856	 -0.990707
H	 0.698600	 -1.845531	 -0.051779
C	 -1.165153	 0.000000	 -0.236961
H	 -1.229451	 0.882440	 -0.870223
H	 -2.002557	 0.000000	 0.445289
H	 -1.229451	 -0.882440	 -0.870223

	symmetry c1
}
set optking {
	frozen_dihedral = ("
		2 3 6 7
	")
}

ee,wfn = optimize('scf', return_wfn=True)
oeprop( wfn, 'DIPOLE', 'QUADRUPOLE', 'MULLIKEN_CHARGES')
f=open( 'psi4out.xyz', 'w' )
f.write( "9  " )
f.write( str(ee) + "\n" )
f.write( MOL.save_string_xyz() )
f.close()
--------------------------------------------------------------------------

    Molecular point group: c1
  Charge       = 0
  Multiplicity = 1
  Basis Set: CC-PVTZ
  Basis Set:
  @DF-RHF Final Energy:  -154.12424358601680
    Total Energy =                       -154.1242435860168030
    Molecular point group: c1
  Basis Set: CC-PVTZ
  Basis Set:
  Basis Set: CC-PVTZ
  Basis Set:
  @DF-RHF Final Energy:  -154.12441776841007
    Total Energy =                       -154.1244177684101544
  Basis Set: CC-PVTZ
  Basis Set:
  Basis Set: CC-PVTZ
  Basis Set:
  @DF-RHF Final Energy:  -154.12445554058121
    Total Energy =                       -154.1244555405812662
  Basis Set: CC-PVTZ
  Basis Set:
  Charge       = 0
  Multiplicity = 1
  Basis Set: CC-PVTZ
  Basis Set:

    Orbital Energies (a.u.)
    -----------------------

    Doubly Occupied:

       1A    -20.547654     2A    -11.263500     3A    -11.262717
       4A     -1.378992     5A     -0.975947     6A     -0.872480
       7A     -0.660518     8A     -0.654742     9A     -0.645311
      10A     -0.556900    11A     -0.528461    12A     -0.475844
      13A     -0.416069

  @DF-RHF Final Energy:  -154.12445590146274

   => Energetics <=

    Nuclear Repulsion Energy =             84.6396298053808209
    One-Electron Energy =                -377.0499026465042789
    Two-Electron Energy =                 138.2858169396606627
    DFT Exchange-Correlation Energy =       0.0000000000000000
    Empirical Dispersion Energy =           0.0000000000000000
    PCM Polarization Energy =               0.0000000000000000
    EFP Energy =                            0.0000000000000000
    Total Energy =                       -154.1244559014627953
    Molecular point group: c1
  Basis Set: CC-PVTZ
  Basis Set:

  -Total Gradient:
     Atom            X                  Y                   Z
    ------   -----------------  -----------------  -----------------
       1        0.000029587904    -0.000016650065    -0.000007342725
       2       -0.000620874165    -0.001689307701     0.001125770654
       3        0.000613097240     0.002732746368    -0.001092545218
       4       -0.000029518644    -0.000000197079     0.000015132596
       5       -0.000033319020     0.000031584040     0.000002068519
       6        0.001289357656    -0.002297190701    -0.002008798323
       7       -0.001233138258     0.001243550093     0.001975831097
       8       -0.000015277930    -0.000000970260    -0.000007171014
       9        0.000000085218    -0.000003564696    -0.000002945587

  **** Optimization is complete! (in 4 steps) ****
    Final optimized geometry and variables:
    Molecular point group: c1

    Geometry (in Angstrom), charge = 0, multiplicity = 1:

    H            1.920820156435    -0.442354114621     0.585516416744
    C            1.077151213748    -0.518727206921    -0.085262493841
    O            0.052252452445     0.262796728975     0.433833026545
    H            1.386427818062    -0.177789448908    -1.071212785409
    H            0.782844561560    -1.562972674881    -0.158827257736
    C           -1.124199198297     0.278903572219    -0.312451875680
    H           -1.185981747733     1.178463609909    -0.918094784247
    H           -1.963944549050     0.279136648523     0.370781873719
    H           -1.209258286311    -0.589719883042    -0.957891556276

  Mulliken Charges: (a.u.)
   Center  Symbol    Alpha    Beta     Spin     Total
       1     H     0.44954  0.44954  0.00000  0.10093
       2     C     3.02108  3.02108  0.00000 -0.04215
       3     O     4.17138  4.17138  0.00000 -0.34276
       4     H     0.47352  0.47352  0.00000  0.05296
       5     H     0.47250  0.47250  0.00000  0.05501
       6     C     3.01789  3.01789  0.00000 -0.03578
       7     H     0.46470  0.46470  0.00000  0.07060
       8     H     0.45458  0.45458  0.00000  0.09085
       9     H     0.47482  0.47482  0.00000  0.05035

   Total alpha = 13.00000, Total beta = 13.00000, Total charge = -0.00000

*** Psi4 exiting successfully. Buy a developer a beer!
