  ==> Input File <==

--------------------------------------------------------------------------
set {
	reference rhf
	basis cc-pvtz
}

set_num_threads( 4 )
memory 2 gb

molecule MOL {
0 1

H	 -2.714832	 -0.836309	 -0.517415
O	 -2.313989	 -0.142475	 -0.025864
C	 -0.943808	 -0.065018	 -0.330000
H	 -0.812293	 -0.225641	 -1.398673
C	 -0.231030	 -1.182113	 0.407592
C	 -0.353797	 1.300461	 0.050970
H	 -0.312800	 -0.992012	 1.473041
H	 -0.738841	 -2.119564	 0.220514
C	 1.246176	 -1.268044	 -0.015480
H	 -0.539537	 2.008579	 -0.751815
H	 -0.889989	 1.662858	 0.920677
C	 1.153605	 1.231851	 0.356834
H	 1.823096	 -1.684665	 0.802361
H	 1.352335	 -1.958223	 -0.845114
C	 1.826409	 0.100723	 -0.416008
H	 1.622968	 2.181508	 0.128734
H	 1.301983	 1.066493	 1.419367
H	 2.897299	 0.112407	 -0.249665
H	 1.683458	 0.265621	 -1.480024

	symmetry c1
}
set optking {
	frozen_dihedral = ("
		1 2 3 4
	")
}

ee = optimize('scf')
oeprop('DIPOLE', 'QUADRUPOLE', 'MULLIKEN_CHARGES')
f=open( 'psi4out.xyz', 'w' )
f.write( "19  " )
f.write( str(ee) + "\n" )
f.write( MOL.save_string_xyz() )
f.close()
--------------------------------------------------------------------------

    Molecular point group: c1
  Charge       = 0
  Multiplicity = 1
  Basis Set: CC-PVTZ
  Basis Set:
  @DF-RHF Final Energy:  -309.16190172485187
    Total Energy =                       -309.1619017248520436
    Molecular point group: c1
  Basis Set: CC-PVTZ
  Basis Set:
  Basis Set: CC-PVTZ
  Basis Set:
  @DF-RHF Final Energy:  -309.16331204114579
    Total Energy =                       -309.1633120411454456
  Basis Set: CC-PVTZ
  Basis Set:
  Basis Set: CC-PVTZ
  Basis Set:
  @DF-RHF Final Energy:  -309.16355077478892
    Total Energy =                       -309.1635507747884617
  Basis Set: CC-PVTZ
  Basis Set:
  Basis Set: CC-PVTZ
  Basis Set:
  @DF-RHF Final Energy:  -309.16355630560577
    Total Energy =                       -309.1635563056058800
  Basis Set: CC-PVTZ
  Basis Set:
  Charge       = 0
  Multiplicity = 1
  Basis Set: CC-PVTZ
  Basis Set:

    Orbital Energies (a.u.)
    -----------------------

    Doubly Occupied:

       1A    -20.543598     2A    -11.267957     3A    -11.214749
       4A    -11.213118     5A    -11.211901     6A    -11.209046
       7A    -11.206950     8A     -1.363243     9A     -1.109571
      10A     -1.002087    11A     -0.989415    12A     -0.846440
      13A     -0.831403    14A     -0.732114    15A     -0.712944
      16A     -0.655729    17A     -0.620497    18A     -0.605479
      19A     -0.566775    20A     -0.546221    21A     -0.534078
      22A     -0.519000    23A     -0.498643    24A     -0.486707
      25A     -0.467679    26A     -0.449626    27A     -0.430000
      28A     -0.410322

  @DF-RHF Final Energy:  -309.16355714254706

   => Energetics <=

    Nuclear Repulsion Energy =            331.8922109279639585
    One-Electron Energy =               -1077.6209449694601972
    Two-Electron Energy =                 436.5651768989490620
    DFT Exchange-Correlation Energy =       0.0000000000000000
    Empirical Dispersion Energy =           0.0000000000000000
    PCM Polarization Energy =               0.0000000000000000
    EFP Energy =                            0.0000000000000000
    Total Energy =                       -309.1635571425471198
    Molecular point group: c1
  Basis Set: CC-PVTZ
  Basis Set:

  -Total Gradient:
     Atom            X                  Y                   Z
    ------   -----------------  -----------------  -----------------
       1       -0.000208528260     0.000864471177    -0.000978946984
       2        0.000270663645    -0.001370689339     0.001230768616
       3       -0.000055827671     0.001644739868    -0.000373239060
       4        0.000011473787    -0.001114760517     0.000202852546
       5       -0.000035132926     0.000015812057    -0.000038544214
       6        0.000021335206     0.000011093250    -0.000016201429
       7       -0.000000338753     0.000002515238    -0.000008998124
       8       -0.000002475206    -0.000006674576    -0.000004821460
       9        0.000032157932     0.000016987806    -0.000004094399
      10        0.000006482038     0.000013658217    -0.000004544306
      11       -0.000017208954    -0.000038504451    -0.000011294887
      12        0.000000807409     0.000014470608    -0.000014700570
      13        0.000020293382    -0.000007773284     0.000015575680
      14        0.000002646301     0.000008078577     0.000013627056
      15       -0.000026026546    -0.000034939547     0.000000852147
      16       -0.000010528389     0.000001297884     0.000000880646
      17       -0.000009614738    -0.000001057359     0.000002121874
      18        0.000003343230    -0.000028048226    -0.000007078900
      19       -0.000003521492     0.000009322615    -0.000004214235

  **** Optimization is complete! (in 5 steps) ****
    Final optimized geometry and variables:
    Molecular point group: c1

    Geometry (in Angstrom), charge = 0, multiplicity = 1:

    H           -2.770873093369    -0.717443144684    -0.505486550349
    O           -2.318066101735    -0.054821766747    -0.017520294367
    C           -0.945606782070    -0.077434422254    -0.327689368418
    H           -0.827780710570    -0.248320364683    -1.396024544812
    C           -0.213386529174    -1.189149165588     0.409987674735
    C           -0.366224073089     1.291017205551     0.036578772731
    H           -0.292481464244    -0.998317500812     1.475302652629
    H           -0.705728281584    -2.139373538037     0.231111636530
    C            1.262672023300    -1.263364412287    -0.020186988304
    H           -0.551998005843     1.981545171992    -0.778379900385
    H           -0.919032732113     1.662880165992     0.890631441267
    C            1.136213572946     1.232912115785     0.361295698885
    H            1.846200893602    -1.682038997878     0.791952902129
    H            1.370647937908    -1.946877124839    -0.855391954614
    C            1.828870259131     0.114111297408    -0.411955101345
    H            1.598048781798     2.188740979028     0.143917414665
    H            1.275942769074     1.062844328820     1.424489490217
    H            2.898686682618     0.137082254819    -0.240011771676
    H            1.689095850563     0.282298699913    -1.475944206795

  Mulliken Charges: (a.u.)
   Center  Symbol    Alpha    Beta     Spin     Total
       1     H     0.39476  0.39476  0.00000  0.21048
       2     O     4.20331  4.20331  0.00000 -0.40663
       3     C     2.92789  2.92789  0.00000  0.14423
       4     H     0.46511  0.46511  0.00000  0.06978
       5     C     3.09824  3.09824  0.00000 -0.19648
       6     C     3.10954  3.10954  0.00000 -0.21908
       7     H     0.45302  0.45302  0.00000  0.09396
       8     H     0.44992  0.44992  0.00000  0.10016
       9     C     3.11473  3.11473  0.00000 -0.22946
      10     H     0.44876  0.44876  0.00000  0.10249
      11     H     0.44399  0.44399  0.00000  0.11202
      12     C     3.10054  3.10054  0.00000 -0.20108
      13     H     0.44724  0.44724  0.00000  0.10552
      14     H     0.44819  0.44819  0.00000  0.10361
      15     C     3.10179  3.10179  0.00000 -0.20358
      16     H     0.44200  0.44200  0.00000  0.11601
      17     H     0.45358  0.45358  0.00000  0.09284
      18     H     0.44302  0.44302  0.00000  0.11397
      19     H     0.45437  0.45437  0.00000  0.09126

   Total alpha = 28.00000, Total beta = 28.00000, Total charge = -0.00000
