  ==> Input File <==

--------------------------------------------------------------------------
set {
	reference rhf
	basis 6-31G*
}

set_num_threads( 4 )
memory 2 gb

molecule MOL {
0 1

H	 -3.261111	 -0.295142	 1.469456
C	 -3.306842	 -0.277400	 0.373456
C	 -2.660244	 0.921717	 -0.272021
O	 -3.838538	 -1.161155	 -0.216482
C	 -1.220012	 1.144545	 0.209990
H	 -2.705793	 0.797307	 -1.347733
H	 -3.263782	 1.790044	 -0.010477
C	 -0.252658	 0.041456	 -0.226725
H	 -0.873521	 2.100229	 -0.171974
H	 -1.211708	 1.231594	 1.295398
C	 1.180775	 0.282413	 0.250794
H	 -0.266029	 -0.034465	 -1.312038
H	 -0.597733	 -0.921000	 0.146291
C	 2.148627	 -0.814315	 -0.201312
H	 1.516199	 1.249228	 -0.115937
H	 1.192670	 0.346017	 1.338083
C	 3.580890	 -0.659131	 0.322722
H	 2.166869	 -0.852443	 -1.289387
H	 1.762857	 -1.776509	 0.128956
C	 3.680403	 -0.119092	 1.750334
H	 4.118225	 0.013016	 -0.341686
H	 4.092424	 -1.617562	 0.262183
H	 3.163021	 0.832059	 1.844647
H	 3.250412	 -0.802911	 2.474539
H	 4.717344	 0.040485	 2.030128

	symmetry c1
}
set optking {
	frozen_dihedral = ("
		20 17 14 18
	")
}

ee = optimize('scf')
oeprop('DIPOLE', 'QUADRUPOLE', 'MULLIKEN_CHARGES')
f=open( 'psi4out.xyz', 'w' )
f.write( "25  " )
f.write( str(ee) + "\n" )
f.write( MOL.save_string_xyz() )
f.close()
--------------------------------------------------------------------------

    Molecular point group: c1
  Charge       = 0
  Multiplicity = 1
  Basis Set: 6-31G*
  Basis Set:
  @DF-RHF Final Energy:  -387.11758169404612
    Total Energy =                       -387.1175816940459526
    Molecular point group: c1
  Basis Set: 6-31G*
  Basis Set:
  Basis Set: 6-31G*
  Basis Set:
  @DF-RHF Final Energy:  -387.11843247407398
    Total Energy =                       -387.1184324740740976
  Basis Set: 6-31G*
  Basis Set:
  Basis Set: 6-31G*
  Basis Set:
  @DF-RHF Final Energy:  -387.11850101399779
    Total Energy =                       -387.1185010139981841
  Basis Set: 6-31G*
  Basis Set:
  Basis Set: 6-31G*
  Basis Set:
  @DF-RHF Final Energy:  -387.11927536321645
    Total Energy =                       -387.1192753632167296
  Basis Set: 6-31G*
  Basis Set:
  @DF-RHF Final Energy:  -387.11933124729944
    Total Energy =                       -387.1193312473001242
  Basis Set: 6-31G*
  Basis Set:
  @DF-RHF Final Energy:  -387.11940384453368
    Total Energy =                       -387.1194038445332808
  Basis Set: 6-31G*
  Basis Set:
  Basis Set: 6-31G*
  Basis Set:
  @DF-RHF Final Energy:  -387.11942519055435
    Total Energy =                       -387.1194251905545798
  Basis Set: 6-31G*
  Basis Set:
  Basis Set: 6-31G*
  Basis Set:
  @DF-RHF Final Energy:  -387.11942067852317
    Total Energy =                       -387.1194206785231700
  Basis Set: 6-31G*
  Basis Set:
  Charge       = 0
  Multiplicity = 1
  Basis Set: 6-31G*
  Basis Set:

    Orbital Energies (a.u.)
    -----------------------

    Doubly Occupied:

       1A    -20.561962     2A    -11.326134     3A    -11.235298
       4A    -11.234636     5A    -11.223873     6A    -11.219710
       7A    -11.218261     8A    -11.217255     9A    -11.210822
      10A     -1.401906    11A     -1.103902    12A     -1.068959
      13A     -1.012523    14A     -0.942125    15A     -0.877529
      16A     -0.822476    17A     -0.787640    18A     -0.776392
      19A     -0.664291    20A     -0.663503    21A     -0.635892
      22A     -0.621914    23A     -0.608863    24A     -0.587951
      25A     -0.568515    26A     -0.561649    27A     -0.528293
      28A     -0.523593    29A     -0.515107    30A     -0.495662
      31A     -0.490787    32A     -0.479619    33A     -0.460369
      34A     -0.457785    35A     -0.441931    36A     -0.409471

  @DF-RHF Final Energy:  -387.11942104426544

   => Energetics <=

    Nuclear Repulsion Energy =            440.4725535521006350
    One-Electron Energy =               -1397.2707583674323359
    Two-Electron Energy =                 569.6787837710661506
    DFT Exchange-Correlation Energy =       0.0000000000000000
    Empirical Dispersion Energy =           0.0000000000000000
    PCM Polarization Energy =               0.0000000000000000
    EFP Energy =                            0.0000000000000000
    Total Energy =                       -387.1194210442655503
    Molecular point group: c1
  Basis Set: 6-31G*
  Basis Set:

  -Total Gradient:
     Atom            X                  Y                   Z
    ------   -----------------  -----------------  -----------------
       1        0.000003133287    -0.000007021642    -0.000003628272
       2        0.000030764849    -0.000048021665    -0.000100068537
       3        0.000008966120    -0.000018226494     0.000059309904
       4        0.000006761391    -0.000034791600     0.000023052566
       5        0.000036324097     0.000065214513    -0.000116100232
       6       -0.000020468923     0.000064697745     0.000006739708
       7       -0.000026532527    -0.000031629362     0.000061652916
       8       -0.000040041474    -0.000073362516     0.000051077744
       9        0.000054096406    -0.000040551736    -0.000025726342
      10        0.000012206742     0.000075975767     0.000020087324
      11        0.000028638762     0.000025961121    -0.000006179583
      12        0.000005771831     0.000036724568     0.000009051940
      13       -0.000058510305    -0.000003683658    -0.000006275642
      14        0.000817315035    -0.004925265056    -0.000260791444
      15        0.000006548176     0.000014263257     0.000001516517
      16       -0.000001145605    -0.000002393902     0.000024325816
      17        0.000058886535    -0.004148656934     0.002124543789
      18       -0.000698154858     0.005331509525    -0.000273308288
      19        0.000011888350    -0.000018548243    -0.000009301809
      20       -0.000209058759     0.003739249517    -0.001543160533
      21       -0.000026017905     0.000007413469    -0.000017146269
      22        0.000000027442    -0.000003919855    -0.000008526102
      23        0.000033980855     0.000016948785    -0.000000410840
      24       -0.000034244570     0.000014637300     0.000002755639
      25       -0.000001134958    -0.000036522900    -0.000013489969

  **** Optimization is complete! (in 9 steps) ****
    Final optimized geometry and variables:
    Molecular point group: c1

    Geometry (in Angstrom), charge = 0, multiplicity = 1:

    H           -3.265921235914    -0.269330792192     1.136166009918
    C           -3.264356591540    -0.199391337987     0.041201658457
    C           -2.585419163288     1.024947011841    -0.518154596300
    O           -3.779258480405    -1.048158567398    -0.611734944971
    C           -1.163542398708     1.211412783113     0.029629072645
    H           -2.589607759632     0.954050073027    -1.599709862937
    H           -3.193067511015     1.884311706861    -0.237467895620
    C           -0.192179185561     0.111311112516    -0.405861263583
    H           -0.789909770940     2.175373691099    -0.303382316467
    H           -1.199125475524     1.260083911005     1.116695541528
    C            1.224898605702     0.320540986846     0.131890173681
    H           -0.166970530897     0.069586301474    -1.492726375910
    H           -0.560903982100    -0.858451683088    -0.076155836849
    C            2.186027528770    -0.793160146174    -0.299398841411
    H            1.601561423038     1.280944941182    -0.217554608745
    H            1.185884665852     0.383018380326     1.216144228110
    C            3.658664940084    -0.570782580870     0.088645735872
    H            2.129840241875    -0.857239781815    -1.383467177122
    H            1.833913946383    -1.740818837988     0.101116620662
    C            3.897781566607     0.011045862629     1.483541493474
    H            4.110839450652     0.102318673606    -0.636894421124
    H            4.190366800306    -1.513413081806    -0.006795371867
    H            3.506169075952     1.018208823661     1.571918185863
    H            3.433214011670    -0.595213614651     2.257089093364
    H            4.961286523484     0.054496160151     1.697163864061

  Mulliken Charges: (a.u.)
   Center  Symbol    Alpha    Beta     Spin     Total
       1     H     0.43265  0.43265  0.00000  0.13470
       2     C     2.83083  2.83083  0.00000  0.33834
       3     C     3.20809  3.20809  0.00000 -0.41619
       4     O     4.23780  4.23780  0.00000 -0.47560
       5     C     3.16631  3.16631  0.00000 -0.33263
       6     H     0.39977  0.39977  0.00000  0.20046
       7     H     0.40666  0.40666  0.00000  0.18668
       8     C     3.15487  3.15487  0.00000 -0.30975
       9     H     0.41287  0.41287  0.00000  0.17425
      10     H     0.41966  0.41966  0.00000  0.16067
      11     C     3.15620  3.15620  0.00000 -0.31240
      12     H     0.41818  0.41818  0.00000  0.16364
      13     H     0.41852  0.41852  0.00000  0.16296
      14     C     3.15282  3.15282  0.00000 -0.30565
      15     H     0.42349  0.42349  0.00000  0.15301
      16     H     0.42048  0.42048  0.00000  0.15903
      17     C     3.15242  3.15242  0.00000 -0.30483
      18     H     0.42100  0.42100  0.00000  0.15801
      19     H     0.42145  0.42145  0.00000  0.15709
      20     C     3.24295  3.24295  0.00000 -0.48589
      21     H     0.42297  0.42297  0.00000  0.15406
      22     H     0.41944  0.41944  0.00000  0.16111
      23     H     0.41963  0.41963  0.00000  0.16073
      24     H     0.42235  0.42235  0.00000  0.15531
      25     H     0.41857  0.41857  0.00000  0.16287

   Total alpha = 36.00000, Total beta = 36.00000, Total charge =  0.00000
