  ==> Input File <==

--------------------------------------------------------------------------
set {
	reference rhf
	basis cc-pvtz
}

set_num_threads( 4 )
memory 2 gb

molecule MOL {
0 1

H	 -1.447093	 -0.323927	 -0.435655
N	 -0.625934	 -0.663929	 -0.000707
C	 -0.659997	 -1.977497	 0.598020
C	 0.468494	 0.129045	 -0.002160
H	 -1.405067	 -2.026876	 1.383146
H	 0.307816	 -2.181721	 1.023137
H	 -0.884584	 -2.736234	 -0.142193
C	 1.785715	 -0.615093	 0.000603
O	 0.413285	 1.323206	 0.000532
H	 1.866994	 -1.243310	 -0.878792
H	 2.591506	 0.100263	 0.006422
H	 1.860358	 -1.250360	 0.875522

	symmetry c1
}
set optking {
	frozen_dihedral = ("
		3 2 4 9
	")
}

ee = optimize('scf')
oeprop('DIPOLE', 'QUADRUPOLE', 'MULLIKEN_CHARGES')
f=open( 'psi4out.xyz', 'w' )
f.write( "12  " )
f.write( str(ee) + "\n" )
f.write( MOL.save_string_xyz() )
f.close()
--------------------------------------------------------------------------

    Molecular point group: c1
  Charge       = 0
  Multiplicity = 1
  Basis Set: CC-PVTZ
  Basis Set:
  @DF-RHF Final Energy:  -247.08403984461324
    Total Energy =                       -247.0840398446129029
    Molecular point group: c1
  Basis Set: CC-PVTZ
  Basis Set:
  Basis Set: CC-PVTZ
  Basis Set:
  @DF-RHF Final Energy:  -247.08831974726252
    Total Energy =                       -247.0883197472626875
  Basis Set: CC-PVTZ
  Basis Set:
  Basis Set: CC-PVTZ
  Basis Set:
  @DF-RHF Final Energy:  -247.09096341698597
    Total Energy =                       -247.0909634169859146
  Basis Set: CC-PVTZ
  Basis Set:
  Basis Set: CC-PVTZ
  Basis Set:
  @DF-RHF Final Energy:  -247.09218028783059
    Total Energy =                       -247.0921802878305016
  Basis Set: CC-PVTZ
  Basis Set:
  @DF-RHF Final Energy:  -247.09411009564519
    Total Energy =                       -247.0941100956450782
  @DF-RHF Final Energy:  -247.09484942244600
    Total Energy =                       -247.0948494224461456
  @DF-RHF Final Energy:  -247.09523860816361
    Total Energy =                       -247.0952386081634131
  @DF-RHF Final Energy:  -247.09565990978390
    Total Energy =                       -247.0956599097836488
  @DF-RHF Final Energy:  -247.09597805697939
    Total Energy =                       -247.0959780569793907
  @DF-RHF Final Energy:  -247.09614911843596
    Total Energy =                       -247.0961491184357328
  Basis Set: CC-PVTZ
  Basis Set:
  @DF-RHF Final Energy:  -247.09622113949209
    Total Energy =                       -247.0962211394920587
  Basis Set: CC-PVTZ
  Basis Set:
  Basis Set: CC-PVTZ
  Basis Set:
  @DF-RHF Final Energy:  -247.09623794844660
    Total Energy =                       -247.0962379484467419
  Basis Set: CC-PVTZ
  Basis Set:
  Basis Set: CC-PVTZ
  Basis Set:
  @DF-RHF Final Energy:  -247.09623968776489
    Total Energy =                       -247.0962396877649780
  Basis Set: CC-PVTZ
  Basis Set:
  Charge       = 0
  Multiplicity = 1
  Basis Set: CC-PVTZ
  Basis Set:

    Orbital Energies (a.u.)
    -----------------------

    Doubly Occupied:

       1A    -20.513103     2A    -15.572122     3A    -11.339060
       4A    -11.267851     5A    -11.229064     6A     -1.393715
       7A     -1.230623     8A     -1.007437     9A     -0.954595
      10A     -0.779508    11A     -0.676964    12A     -0.669365
      13A     -0.640874    14A     -0.591637    15A     -0.578728
      16A     -0.562926    17A     -0.555023    18A     -0.516895
      19A     -0.421971    20A     -0.392786

  @DF-RHF Final Energy:  -247.09623976278849

   => Energetics <=

    Nuclear Repulsion Energy =            181.7368306830519771
    One-Electron Energy =                -695.8776470269260699
    Two-Electron Energy =                 267.0445765810856642
    DFT Exchange-Correlation Energy =       0.0000000000000000
    Empirical Dispersion Energy =           0.0000000000000000
    PCM Polarization Energy =               0.0000000000000000
    EFP Energy =                            0.0000000000000000
    Total Energy =                       -247.0962397627884570
    Molecular point group: c1
  Basis Set: CC-PVTZ
  Basis Set:

  -Total Gradient:
     Atom            X                  Y                   Z
    ------   -----------------  -----------------  -----------------
       1       -0.000009013667    -0.000003531334     0.000005748331
       2        0.001884507416    -0.001994743601    -0.002078630928
       3       -0.001333676196     0.001344398259     0.002266760766
       4        0.000042837499     0.000334443152    -0.003565814682
       5        0.000002464060    -0.000005994558     0.000011414009
       6       -0.000006430214     0.000009662601    -0.000009149670
       7        0.000004532044     0.000010893029    -0.000008317000
       8        0.000008588070     0.000002836822    -0.000003178939
       9       -0.000594445017     0.000301282643     0.003378210758
      10        0.000004071979     0.000002154231     0.000003299375
      11       -0.000001794594    -0.000000981253    -0.000002480675
      12       -0.000001641377    -0.000000419990     0.000002138655

  **** Optimization is complete! (in 14 steps) ****
    Final optimized geometry and variables:
    Molecular point group: c1

    Geometry (in Angstrom), charge = 0, multiplicity = 1:

    H           -1.705635788524     0.132978059650    -0.332418611883
    N           -0.848907406409    -0.365197962553    -0.246548138283
    C           -0.945216248984    -1.628895647495     0.452214032519
    C            0.206866794611     0.494193894366    -0.135199710398
    H           -0.990537254351    -1.514374096609     1.531381496559
    H           -0.109596480674    -2.269031135071     0.209513958753
    H           -1.844224592491    -2.132381781844     0.127108184970
    C            1.561553677971    -0.116445699993     0.134884861212
    O            0.060803327901     1.672310932146    -0.259070101407
    H            1.772135366050    -0.921982721488    -0.556898362431
    H            2.306931293645     0.655695654643     0.037749009111
    H            1.599199706619    -0.520305247220     1.140134869847

  Mulliken Charges: (a.u.)
   Center  Symbol    Alpha    Beta     Spin     Total
       1     H     0.41915  0.41915  0.00000  0.16170
       2     N     3.60797  3.60797  0.00000 -0.21595
       3     C     3.08855  3.08855  0.00000 -0.17710
       4     C     2.84394  2.84394  0.00000  0.31212
       5     H     0.45659  0.45659  0.00000  0.08682
       6     H     0.45180  0.45180  0.00000  0.09639
       7     H     0.44318  0.44318  0.00000  0.11363
       8     C     3.16071  3.16071  0.00000 -0.32143
       9     O     4.20375  4.20375  0.00000 -0.40750
      10     H     0.44566  0.44566  0.00000  0.10868
      11     H     0.42951  0.42951  0.00000  0.14097
      12     H     0.44917  0.44917  0.00000  0.10166

   Total alpha = 20.00000, Total beta = 20.00000, Total charge = -0.00000
