  ==> Input File <==

--------------------------------------------------------------------------
set {
	reference rhf
	basis 6-31G*
}

set_num_threads( 1 )
memory 2 gb

molecule MOL {
0 1

H	 -0.760147	 6.767318	 2.792478
C	 -1.668432	 6.174514	 2.746381
C	 -1.479392	 4.942035	 1.862959
H	 -1.929340	 5.889671	 3.761336
H	 -2.461527	 6.813275	 2.367193
C	 -2.744889	 4.086582	 1.770598
H	 -0.664770	 4.341748	 2.254941
H	 -1.185049	 5.257977	 0.863342
C	 -2.591552	 2.854849	 0.878080
H	 -3.041401	 3.767415	 2.763501
H	 -3.556718	 4.694468	 1.377597
C	 -1.704957	 1.764518	 1.461492
H	 -3.566832	 2.402108	 0.705962
H	 -2.218408	 3.131580	 -0.105465
C	 -1.181045	 0.701995	 0.511084
O	 -1.441574	 1.728520	 2.625854
C	 -2.285934	 -0.139295	 -0.145128
H	 -0.515724	 0.066051	 1.082606
H	 -0.592415	 1.190456	 -0.263258
C	 -3.651768	 0.085446	 0.506485
H	 -2.346596	 0.110469	 -1.202272
H	 -2.034737	 -1.195320	 -0.088721
C	 -4.759797	 -0.746382	 -0.137905
H	 -3.908762	 1.140117	 0.445781
H	 -3.588286	 -0.154158	 1.565709
H	 -4.868882	 -0.505166	 -1.191300
H	 -4.548009	 -1.809175	 -0.062213
H	 -5.715422	 -0.564821	 0.343442

	symmetry c1
}
set optking {
	frozen_dihedral = ("
		10 6 3 2,
		16 12 15 17
	")
}

ee = energy('scf')
oeprop('DIPOLE', 'QUADRUPOLE', 'MULLIKEN_CHARGES')
f=open( 'psi4out.xyz', 'w' )
f.write( "28  " )
f.write( str(ee) + "\n" )
f.write( MOL.save_string_xyz() )
f.close()
--------------------------------------------------------------------------

    Molecular point group: c1

    Geometry (in Angstrom), charge = 0, multiplicity = 1:

       Center              X                  Y                   Z               Mass
    ------------   -----------------  -----------------  -----------------  -----------------
           H          1.602001487236     4.614403111744     1.575361672812     1.007825032070
           C          0.693716487236     4.021599111744     1.529264672812    12.000000000000
           C          0.882756487236     2.789120111744     0.645842672812    12.000000000000
           H          0.432808487236     3.736756111744     2.544219672812     1.007825032070
           H         -0.099378512764     4.660360111744     1.150076672812     1.007825032070
           C         -0.382740512764     1.933667111744     0.553481672812    12.000000000000
           H          1.697378487236     2.188833111744     1.037824672812     1.007825032070
           H          1.177099487236     3.105062111744    -0.353774327188     1.007825032070
           C         -0.229403512764     0.701934111744    -0.339036327188    12.000000000000
           H         -0.679252512764     1.614500111744     1.546384672812     1.007825032070
           H         -1.194569512764     2.541553111744     0.160480672812     1.007825032070
           C          0.657191487236    -0.388396888256     0.244375672812    12.000000000000
           H         -1.204683512764     0.249193111744    -0.511154327188     1.007825032070
           H          0.143740487236     0.978665111744    -1.322581327188     1.007825032070
           C          1.181103487236    -1.450919888256    -0.706032327188    12.000000000000
           O          0.920574487236    -0.424394888256     1.408737672812    15.994914619560
           C          0.076214487236    -2.292209888256    -1.362244327188    12.000000000000
           H          1.846424487236    -2.086863888256    -0.134510327188     1.007825032070
           H          1.769733487236    -0.962458888256    -1.480374327188     1.007825032070
           C         -1.289619512764    -2.067468888256    -0.710631327188    12.000000000000
           H          0.015552487236    -2.042445888256    -2.419388327188     1.007825032070
           H          0.327411487236    -3.348234888256    -1.305837327188     1.007825032070
           C         -2.397648512764    -2.899296888256    -1.355021327188    12.000000000000
           H         -1.546613512764    -1.012797888256    -0.771335327188     1.007825032070
           H         -1.226137512764    -2.307072888256     0.348592672812     1.007825032070
           H         -2.506733512764    -2.658080888256    -2.408416327188     1.007825032070
           H         -2.185860512764    -3.962089888256    -1.279329327188     1.007825032070
           H         -3.353273512764    -2.717735888256    -0.873674327188     1.007825032070

  Charge       = 0
  Multiplicity = 1
  Basis Set: 6-31G*
  Basis Set:

    Orbital Energies (a.u.)
    -----------------------

    Doubly Occupied:

       1A    -20.549445     2A    -11.322561     3A    -11.230755
       4A    -11.227475     5A    -11.226068     6A    -11.220570
       7A    -11.215805     8A    -11.214843     9A    -11.211718
      10A    -11.205314    11A     -1.394504    12A     -1.101501
      13A     -1.075087    14A     -1.016781    15A     -0.994848
      16A     -0.905058    17A     -0.882574    18A     -0.816301
      19A     -0.793674    20A     -0.723786    21A     -0.664034
      22A     -0.656583    23A     -0.640126    24A     -0.623861
      25A     -0.610515    26A     -0.581833    27A     -0.576371
      28A     -0.574356    29A     -0.555612    30A     -0.532822
      31A     -0.514990    32A     -0.507813    33A     -0.503636
      34A     -0.490092    35A     -0.478802    36A     -0.468796
      37A     -0.467132    38A     -0.462828    39A     -0.435028
      40A     -0.394381

  @DF-RHF Final Energy:  -426.13720272922103

   => Energetics <=

    Nuclear Repulsion Energy =            551.6297117536977339
    One-Electron Energy =               -1671.3973636352477570
    Two-Electron Energy =                 693.6304491523284241
    DFT Exchange-Correlation Energy =       0.0000000000000000
    Empirical Dispersion Energy =           0.0000000000000000
    PCM Polarization Energy =               0.0000000000000000
    EFP Energy =                            0.0000000000000000
    Total Energy =                       -426.1372027292217126

  Mulliken Charges: (a.u.)
   Center  Symbol    Alpha    Beta     Spin     Total
       1     H     0.41951  0.41951  0.00000  0.16097
       2     C     3.24011  3.24011  0.00000 -0.48021
       3     C     3.15636  3.15636  0.00000 -0.31272
       4     H     0.41852  0.41852  0.00000  0.16296
       5     H     0.42380  0.42380  0.00000  0.15240
       6     C     3.14710  3.14710  0.00000 -0.29419
       7     H     0.41083  0.41083  0.00000  0.17834
       8     H     0.42781  0.42781  0.00000  0.14438
       9     C     3.21728  3.21728  0.00000 -0.43457
      10     H     0.40709  0.40709  0.00000  0.18583
      11     H     0.42259  0.42259  0.00000  0.15482
      12     C     2.73733  2.73733  0.00000  0.52533
      13     H     0.39174  0.39174  0.00000  0.21652
      14     H     0.41304  0.41304  0.00000  0.17392
      15     C     3.20184  3.20184  0.00000 -0.40368
      16     O     4.26533  4.26533  0.00000 -0.53065
      17     C     3.15667  3.15667  0.00000 -0.31334
      18     H     0.39819  0.39819  0.00000  0.20363
      19     H     0.40989  0.40989  0.00000  0.18021
      20     C     3.16825  3.16825  0.00000 -0.33651
      21     H     0.41860  0.41860  0.00000  0.16281
      22     H     0.41066  0.41066  0.00000  0.17868
      23     C     3.23588  3.23588  0.00000 -0.47175
      24     H     0.43054  0.43054  0.00000  0.13892
      25     H     0.41096  0.41096  0.00000  0.17809
      26     H     0.42210  0.42210  0.00000  0.15580
      27     H     0.42023  0.42023  0.00000  0.15954
      28     H     0.41776  0.41776  0.00000  0.16448

   Total alpha = 40.00000, Total beta = 40.00000, Total charge =  0.00000
