  ==> Input File <==

--------------------------------------------------------------------------
set {
	reference rhf
	basis 6-31G*
}

set_num_threads( 4 )
memory 2 gb

molecule MOL {
0 1

H	 -2.698709	 -0.000305	 0.034435
C	 -1.693833	 0.000034	 0.434417
O	 -0.828952	 -0.000968	 -0.659236
H	 -1.574200	 0.882896	 1.055746
H	 -1.574147	 -0.881698	 1.057355
C	 -0.410773	 -1.238364	 -1.186949
C	 0.420892	 -2.047250	 -0.193493
C	 -1.567861	 -2.047446	 -1.769607
H	 0.237990	 -0.950359	 -2.005601
H	 1.200362	 -1.427699	 0.236776
H	 0.891587	 -2.884664	 -0.698884
H	 -0.181579	 -2.450786	 0.614189
H	 -2.165312	 -1.427874	 -2.429638
H	 -1.183191	 -2.884445	 -2.343999
H	 -2.215980	 -2.451668	 -0.998642

	symmetry c1
}
set optking {
	frozen_dihedral = ("
		6 3 2 1
	")
}

ee = optimize('scf')
oeprop('DIPOLE', 'QUADRUPOLE', 'MULLIKEN_CHARGES')
f=open( 'psi4out.xyz', 'w' )
f.write( "15  " )
f.write( str(ee) + "\n" )
f.write( MOL.save_string_xyz() )
f.close()
--------------------------------------------------------------------------

    Molecular point group: c1
  Charge       = 0
  Multiplicity = 1
  Basis Set: 6-31G*
  Basis Set:
  @DF-RHF Final Energy:  -232.13467608983197
    Total Energy =                       -232.1346760898318280
    Molecular point group: c1
  Basis Set: 6-31G*
  Basis Set:
  Basis Set: 6-31G*
  Basis Set:
  @DF-RHF Final Energy:  -232.13632686629279
    Total Energy =                       -232.1363268662927908
  Basis Set: 6-31G*
  Basis Set:
  Basis Set: 6-31G*
  Basis Set:
  @DF-RHF Final Energy:  -232.13677976357590
    Total Energy =                       -232.1367797635760439
  Basis Set: 6-31G*
  Basis Set:
  Basis Set: 6-31G*
  Basis Set:
  @DF-RHF Final Energy:  -232.13678465612327
    Total Energy =                       -232.1367846561232682
  Basis Set: 6-31G*
  Basis Set:
  Basis Set: 6-31G*
  Basis Set:
  @DF-RHF Final Energy:  -232.13681729993772
    Total Energy =                       -232.1368172999378316
  Basis Set: 6-31G*
  Basis Set:
  Basis Set: 6-31G*
  Basis Set:
  @DF-RHF Final Energy:  -232.13682482165669
    Total Energy =                       -232.1368248216564325
  Basis Set: 6-31G*
  Basis Set:
  Charge       = 0
  Multiplicity = 1
  Basis Set: 6-31G*
  Basis Set:

    Orbital Energies (a.u.)
    -----------------------

    Doubly Occupied:

       1A    -20.547251     2A    -11.274557     3A    -11.261380
       4A    -11.211284     5A    -11.209759     6A     -1.369469
       7A     -1.050120     8A     -0.940150     9A     -0.930936
      10A     -0.781372    11A     -0.675436    12A     -0.639549
      13A     -0.632397    14A     -0.570797    15A     -0.563687
      16A     -0.552847    17A     -0.536380    18A     -0.500137
      19A     -0.497055    20A     -0.442756    21A     -0.404561

  @DF-RHF Final Energy:  -232.13682525649222

   => Energetics <=

    Nuclear Repulsion Energy =            198.7926380959015660
    One-Electron Energy =                -708.6751675669455608
    Two-Electron Energy =                 277.7457042145517789
    DFT Exchange-Correlation Energy =       0.0000000000000000
    Empirical Dispersion Energy =           0.0000000000000000
    PCM Polarization Energy =               0.0000000000000000
    EFP Energy =                            0.0000000000000000
    Total Energy =                       -232.1368252564922159
    Molecular point group: c1
  Basis Set: 6-31G*
  Basis Set:

  -Total Gradient:
     Atom            X                  Y                   Z
    ------   -----------------  -----------------  -----------------
       1        0.000089690512     0.001972251366     0.000120333008
       2        0.000414734448    -0.002597873583     0.000349880450
       3       -0.001754608577     0.000666350576    -0.001651280702
       4        0.000007488853    -0.000004224978     0.000015352713
       5        0.000023993617    -0.000014124900    -0.000019084823
       6        0.001274968720    -0.000068505848     0.001052759133
       7       -0.000031171705    -0.000040224052     0.000032208773
       8       -0.000018822493     0.000060301356     0.000073587582
       9        0.000006091957     0.000023074335    -0.000000344719
      10        0.000006616105     0.000009305199    -0.000031610487
      11       -0.000022695292     0.000004606371     0.000012815064
      12       -0.000003300762    -0.000015598116     0.000017957628
      13       -0.000001767444     0.000001727966     0.000008746743
      14        0.000032379885     0.000006752355     0.000002706915
      15       -0.000023597825    -0.000003818049     0.000015972721

  **** Optimization is complete! (in 7 steps) ****
    Final optimized geometry and variables:
    Molecular point group: c1

    Geometry (in Angstrom), charge = 0, multiplicity = 1:

    H           -1.932229474939     1.118401333614     0.648250535492
    C           -0.926354371697     1.044056167864     1.052519180377
    O            0.031677626174     1.055189639389     0.036786525528
    H           -0.749439865052     1.915608804338     1.670092346510
    H           -0.865481046876     0.164560816938     1.683958367476
    C            0.432192234413    -0.172360320867    -0.525857135813
    C            1.284439387073    -0.994620065820     0.438820832166
    C           -0.742503480895    -0.965234159342    -1.094098105477
    H            1.065076144033     0.126197490950    -1.353101751467
    H            2.089346516355    -0.385848507593     0.835405077696
    H            1.720792521667    -1.843453903697    -0.078762014559
    H            0.707325736512    -1.382786850962     1.271902426531
    H           -1.330212221632    -0.342831796157    -1.760329057877
    H           -0.380862778063    -1.819636769390    -1.657582517761
    H           -1.395896529071    -1.340320537850    -0.312262772676

  Mulliken Charges: (a.u.)
   Center  Symbol    Alpha    Beta     Spin     Total
       1     H     0.42621  0.42621  0.00000  0.14758
       2     C     3.08062  3.08062  0.00000 -0.16125
       3     O     4.31322  4.31322  0.00000 -0.62644
       4     H     0.41451  0.41451  0.00000  0.17098
       5     H     0.43020  0.43020  0.00000  0.13959
       6     C     2.91019  2.91019  0.00000  0.17962
       7     C     3.24978  3.24978  0.00000 -0.49956
       8     C     3.25374  3.25374  0.00000 -0.50748
       9     H     0.41550  0.41550  0.00000  0.16900
      10     H     0.41135  0.41135  0.00000  0.17730
      11     H     0.42067  0.42067  0.00000  0.15865
      12     H     0.42204  0.42204  0.00000  0.15593
      13     H     0.41178  0.41178  0.00000  0.17644
      14     H     0.41882  0.41882  0.00000  0.16236
      15     H     0.42137  0.42137  0.00000  0.15725

   Total alpha = 21.00000, Total beta = 21.00000, Total charge =  0.00000
