  ==> Input File <==

--------------------------------------------------------------------------
set {
	reference rhf
	basis 6-31G*
}

set_num_threads( 4 )
memory 2 gb

molecule MOL {
0 1

H	 -2.404122	 -1.680596	 -0.778221
C	 -1.646366	 -0.998001	 -0.447654
C	 -1.965885	 0.335855	 -0.027819
C	 -0.359700	 -1.367794	 -0.413577
H	 -2.990502	 0.662889	 -0.043747
C	 -1.000833	 1.171614	 0.381624
H	 -0.037746	 -2.347722	 -0.711051
N	 0.640212	 -0.532897	 -0.000111
H	 -1.202044	 2.175091	 0.702411
C	 0.399195	 0.768957	 0.418655
C	 2.010177	 -1.032049	 0.000042
O	 1.295793	 1.489883	 0.780017
H	 2.187698	 -1.635381	 -0.882279
H	 2.677579	 -0.189247	 -0.001871
H	 2.188882	 -1.632203	 0.884288

	symmetry c1
}
set optking {
	frozen_dihedral = ("
		10 8 11 13
	")
}

ee = optimize('scf')
oeprop('DIPOLE', 'QUADRUPOLE', 'MULLIKEN_CHARGES')
f=open( 'psi4out.xyz', 'w' )
f.write( "15  " )
f.write( str(ee) + "\n" )
f.write( MOL.save_string_xyz() )
f.close()
--------------------------------------------------------------------------

    Molecular point group: c1
  Charge       = 0
  Multiplicity = 1
  Basis Set: 6-31G*
  Basis Set:
  @DF-RHF Final Energy:  -360.59587082745367
    Total Energy =                       -360.5958708274533251
    Molecular point group: c1
  Basis Set: 6-31G*
  Basis Set:
  Basis Set: 6-31G*
  Basis Set:
  @DF-RHF Final Energy:  -360.59595807150839
    Total Energy =                       -360.5959580715083348
  Basis Set: 6-31G*
  Basis Set:
  Basis Set: 6-31G*
  Basis Set:
  @DF-RHF Final Energy:  -360.59596536931406
    Total Energy =                       -360.5959653693140581
  Basis Set: 6-31G*
  Basis Set:
  Basis Set: 6-31G*
  Basis Set:
  @DF-RHF Final Energy:  -360.59597294571387
    Total Energy =                       -360.5959729457136973
  Basis Set: 6-31G*
  Basis Set:
  Charge       = 0
  Multiplicity = 1
  Basis Set: 6-31G*
  Basis Set:

    Orbital Energies (a.u.)
    -----------------------

    Doubly Occupied:

       1A    -20.508692     2A    -15.621490     3A    -11.343052
       4A    -11.296866     5A    -11.264736     6A    -11.260416
       7A    -11.233555     8A    -11.229122     9A     -1.384444
      10A     -1.281005    11A     -1.114819    12A     -1.025840
      13A     -0.970040    14A     -0.872232    15A     -0.835411
      16A     -0.715509    17A     -0.698272    18A     -0.660816
      19A     -0.648180    20A     -0.621899    21A     -0.606626
      22A     -0.572271    23A     -0.552364    24A     -0.546971
      25A     -0.526405    26A     -0.476499    27A     -0.413924
      28A     -0.405728    29A     -0.305074

  @DF-RHF Final Energy:  -360.59597616933297

   => Energetics <=

    Nuclear Repulsion Energy =            357.6567686852126826
    One-Electron Energy =               -1198.5209678665357842
    Two-Electron Energy =                 480.2682230119901874
    DFT Exchange-Correlation Energy =       0.0000000000000000
    Empirical Dispersion Energy =           0.0000000000000000
    PCM Polarization Energy =               0.0000000000000000
    EFP Energy =                            0.0000000000000000
    Total Energy =                       -360.5959761693329142
    Molecular point group: c1
  Basis Set: 6-31G*
  Basis Set:

  -Total Gradient:
     Atom            X                  Y                   Z
    ------   -----------------  -----------------  -----------------
       1       -0.000006993279    -0.000003389111     0.000006142466
       2        0.000023171648    -0.000011210995     0.000008243416
       3       -0.000009909317     0.000022477562    -0.000006963713
       4       -0.000039550902     0.000013251626    -0.000046275876
       5       -0.000004828932    -0.000008161966     0.000001846921
       6       -0.000033015744    -0.000001324162     0.000007908080
       7        0.000008717875    -0.000001646471     0.000011556987
       8        0.000012468546    -0.000040515655     0.000597860511
       9        0.000005399873    -0.000006891752    -0.000002496390
      10        0.000059572595     0.000115058901    -0.000424697380
      11       -0.000167102218    -0.000467925880     0.000091797586
      12        0.000007664209    -0.000019466837     0.000003987975
      13        0.000178082072     0.000395405939    -0.000246854105
      14       -0.000006233029     0.000008875441    -0.000004552775
      15       -0.000027443397     0.000005463365     0.000002496298

  **** Optimization is complete! (in 5 steps) ****
    Final optimized geometry and variables:
    Molecular point group: c1

    Geometry (in Angstrom), charge = 0, multiplicity = 1:

    H           -2.404367185856    -1.663828929097    -0.862540904154
    C           -1.644141371718    -0.981067732095    -0.538188729579
    C           -1.960110517509     0.355237680149    -0.124136195957
    C           -0.357427811698    -1.352345446792    -0.511481587151
    H           -2.984308420204     0.683563250601    -0.138943816147
    C           -0.992484902068     1.191675294136     0.278330115785
    H           -0.039102371781    -2.333388731668    -0.808117356178
    N            0.645365327011    -0.515061883875    -0.110801960743
    H           -1.190830658128     2.196730225701     0.596229839442
    C            0.405237826037     0.782668641145     0.319650029569
    C            2.017520122376    -1.007773029171    -0.094658661499
    O            1.304968525369     1.493047234740     0.693982114123
    H            2.200076835165    -1.598668792913    -0.982731297299
    H            2.684304593573    -0.163874971414    -0.080114573150
    H            2.197523177620    -1.614822339752     0.785089972218

  Mulliken Charges: (a.u.)
   Center  Symbol    Alpha    Beta     Spin     Total
       1     H     0.39290  0.39290  0.00000  0.21420
       2     C     3.16172  3.16172  0.00000 -0.32343
       3     C     3.05826  3.05826  0.00000 -0.11652
       4     C     2.92103  2.92103  0.00000  0.15794
       5     H     0.39085  0.39085  0.00000  0.21829
       6     C     3.16970  3.16970  0.00000 -0.33940
       7     H     0.38792  0.38792  0.00000  0.22415
       8     N     3.86530  3.86530  0.00000 -0.73059
       9     H     0.38637  0.38637  0.00000  0.22725
      10     C     2.59455  2.59455  0.00000  0.81091
      11     C     3.15145  3.15145  0.00000 -0.30291
      12     O     4.32190  4.32190  0.00000 -0.64380
      13     H     0.41308  0.41308  0.00000  0.17384
      14     H     0.37744  0.37744  0.00000  0.24511
      15     H     0.40752  0.40752  0.00000  0.18496

   Total alpha = 29.00000, Total beta = 29.00000, Total charge =  0.00000
