  ==> Input File <==

--------------------------------------------------------------------------
set {
	reference rhf
	basis 6-31G*
}

set_num_threads( 4 )
memory 2 gb

molecule MOL {
0 1

H	 -4.083962	 0.658862	 -0.529593
O	 -3.517110	 -0.026191	 -0.205115
C	 -2.306886	 0.532354	 0.237577
C	 -1.177863	 -0.397191	 -0.171080
H	 -2.156308	 1.517575	 -0.201710
H	 -2.315015	 0.655684	 1.319734
C	 0.198102	 0.111031	 0.262842
H	 -1.208843	 -0.518759	 -1.250427
H	 -1.368741	 -1.376554	 0.258909
C	 1.331804	 -0.827780	 -0.158768
H	 0.361943	 1.100838	 -0.156218
H	 0.217265	 0.229072	 1.345532
C	 2.723619	 -0.410569	 0.329459
H	 1.342964	 -0.912588	 -1.244120
H	 1.116806	 -1.824343	 0.220779
C	 3.243875	 0.895854	 -0.272975
H	 3.424222	 -1.207124	 0.091250
H	 2.714788	 -0.329854	 1.414619
H	 3.251977	 0.848779	 -1.358681
H	 2.637085	 1.747371	 0.016682
H	 4.259473	 1.094070	 0.055697

	symmetry c1
}
set optking {
	frozen_dihedral = ("
		1 2 3 5
	")
}

ee = optimize('scf')
oeprop('DIPOLE', 'QUADRUPOLE', 'MULLIKEN_CHARGES')
f=open( 'psi4out.xyz', 'w' )
f.write( "21  " )
f.write( str(ee) + "\n" )
f.write( MOL.save_string_xyz() )
f.close()
--------------------------------------------------------------------------

    Molecular point group: c1
  Charge       = 0
  Multiplicity = 1
  Basis Set: 6-31G*
  Basis Set:
  @DF-RHF Final Energy:  -310.21121269413823
    Total Energy =                       -310.2112126941382826
    Molecular point group: c1
  Basis Set: 6-31G*
  Basis Set:
  Basis Set: 6-31G*
  Basis Set:
  @DF-RHF Final Energy:  -310.21133735593929
    Total Energy =                       -310.2113373559392357
  Basis Set: 6-31G*
  Basis Set:
  Basis Set: 6-31G*
  Basis Set:
  @DF-RHF Final Energy:  -310.21139176329569
    Total Energy =                       -310.2113917632958646
  Basis Set: 6-31G*
  Basis Set:
  Charge       = 0
  Multiplicity = 1
  Basis Set: 6-31G*
  Basis Set:

    Orbital Energies (a.u.)
    -----------------------

    Doubly Occupied:

       1A    -20.550694     2A    -11.267315     3A    -11.215695
       4A    -11.215290     5A    -11.213783     6A    -11.210451
       7A    -11.208495     8A     -1.357315     9A     -1.086301
      10A     -1.033192    11A     -0.954497    12A     -0.876259
      13A     -0.808456    14A     -0.778901    15A     -0.697666
      16A     -0.653815    17A     -0.623219    18A     -0.603035
      19A     -0.589392    20A     -0.570533    21A     -0.536473
      22A     -0.521014    23A     -0.510556    24A     -0.486145
      25A     -0.479746    26A     -0.461600    27A     -0.456536
      28A     -0.451803    29A     -0.424650

  @DF-RHF Final Energy:  -310.21139206262973

   => Energetics <=

    Nuclear Repulsion Energy =            312.2648255786879758
    One-Electron Energy =               -1039.2667838323695833
    Two-Electron Energy =                 416.7905661910518802
    DFT Exchange-Correlation Energy =       0.0000000000000000
    Empirical Dispersion Energy =           0.0000000000000000
    PCM Polarization Energy =               0.0000000000000000
    EFP Energy =                            0.0000000000000000
    Total Energy =                       -310.2113920626296704
    Molecular point group: c1
  Basis Set: 6-31G*
  Basis Set:

  -Total Gradient:
     Atom            X                  Y                   Z
    ------   -----------------  -----------------  -----------------
       1        0.000554396295    -0.000210085736    -0.001440975791
       2       -0.000812189022     0.000425025364     0.002080515492
       3        0.000858656888    -0.000815335555    -0.001703993870
       4       -0.000008922685    -0.000000080785     0.000012071951
       5       -0.000604826180     0.000582709505     0.001062909039
       6        0.000010213523     0.000007362016     0.000005800021
       7       -0.000014687972     0.000016677046    -0.000026853744
       8       -0.000004712590     0.000009939959     0.000001741439
       9       -0.000000948517    -0.000011056980    -0.000011285409
      10       -0.000014959213    -0.000016040995     0.000050452870
      11        0.000034901700     0.000036394211     0.000000940700
      12        0.000003146483    -0.000006432568    -0.000029953985
      13        0.000034846487    -0.000034656610    -0.000031559755
      14        0.000001782425     0.000000174493     0.000015883025
      15       -0.000019510435    -0.000001835670     0.000002052324
      16       -0.000018690049     0.000002686205     0.000012069473
      17        0.000019016681     0.000008696892    -0.000002281517
      18        0.000008325366    -0.000008996587    -0.000007026689
      19        0.000005003039    -0.000007274577     0.000009010446
      20       -0.000026626846     0.000014726707    -0.000006553557
      21       -0.000004215375     0.000007403664     0.000007037539

  **** Optimization is complete! (in 4 steps) ****
    Final optimized geometry and variables:
    Molecular point group: c1

    Geometry (in Angstrom), charge = 0, multiplicity = 1:

    H           -4.124460412165     0.635657454099    -0.465072652349
    O           -3.535436455846    -0.034973566398    -0.154924886649
    C           -2.305676690551     0.536057271626     0.222343819997
    C           -1.175262673799    -0.393486228850    -0.185622052738
    H           -2.177005235063     1.513452931603    -0.238160141136
    H           -2.291259678227     0.690440364808     1.299373998239
    C            0.199919804323     0.112178984598     0.253777858496
    H           -1.202783687530    -0.518239581138    -1.264939831692
    H           -1.368510103623    -1.372270739871     0.245129012352
    C            1.334323316293    -0.828880166086    -0.160984445657
    H            0.368232010496     1.101723509775    -0.164919171673
    H            0.213460123207     0.231236255855     1.336276181602
    C            2.724047181639    -0.414576872895     0.335696394675
    H            1.352127358385    -0.913761280373    -1.246283638209
    H            1.114734277007    -1.824941686668     0.217202420272
    C            3.247815012388     0.894110606795    -0.258721182681
    H            3.425518638962    -1.210447605791     0.097739685368
    H            2.709841091350    -0.338219322273     1.421073965247
    H            3.262524808169     0.851034923693    -1.344549170424
    H            2.639183558821     1.744495575742     0.030468126006
    H            4.261378013923     1.091238265173     0.076785870250

  Mulliken Charges: (a.u.)
   Center  Symbol    Alpha    Beta     Spin     Total
       1     H     0.28009  0.28009  0.00000  0.43982
       2     O     4.37376  4.37376  0.00000 -0.74751
       3     C     2.99060  2.99060  0.00000  0.01880
       4     C     3.15751  3.15751  0.00000 -0.31501
       5     H     0.43342  0.43342  0.00000  0.13317
       6     H     0.42834  0.42834  0.00000  0.14332
       7     C     3.16247  3.16247  0.00000 -0.32495
       8     H     0.41850  0.41850  0.00000  0.16299
       9     H     0.41413  0.41413  0.00000  0.17174
      10     C     3.15161  3.15161  0.00000 -0.30322
      11     H     0.42256  0.42256  0.00000  0.15489
      12     H     0.42320  0.42320  0.00000  0.15359
      13     C     3.15248  3.15248  0.00000 -0.30497
      14     H     0.42348  0.42348  0.00000  0.15305
      15     H     0.42071  0.42071  0.00000  0.15858
      16     C     3.24119  3.24119  0.00000 -0.48237
      17     H     0.42062  0.42062  0.00000  0.15876
      18     H     0.42330  0.42330  0.00000  0.15340
      19     H     0.42223  0.42223  0.00000  0.15553
      20     H     0.42067  0.42067  0.00000  0.15867
      21     H     0.41915  0.41915  0.00000  0.16171

   Total alpha = 29.00000, Total beta = 29.00000, Total charge =  0.00000
