  ==> Input File <==

--------------------------------------------------------------------------
set {
	reference rhf
	basis 6-31G*
}

set_num_threads( 1 )
memory 2 gb

molecule MOL {
0 1

H	 -2.172150	 0.880146	 0.502514
C	 -2.018062	 -0.000025	 -0.114509
O	 -0.774054	 0.001095	 -0.743181
H	 -2.760490	 0.003458	 -0.901350
H	 -2.173624	 -0.884374	 0.496163
C	 -0.228623	 1.219690	 -1.216532
C	 1.111467	 0.805147	 -1.820125
C	 -1.118917	 1.840471	 -2.297826
C	 -0.001046	 2.206890	 -0.067288
H	 0.955713	 0.085978	 -2.616347
H	 1.733717	 0.340300	 -1.063754
H	 1.639670	 1.662236	 -2.225168
H	 -1.333467	 1.111127	 -3.071813
H	 -0.618703	 2.687406	 -2.756180
H	 -2.060661	 2.199002	 -1.896418
H	 0.570011	 1.735166	 0.725444
H	 0.552622	 3.071522	 -0.418565
H	 -0.933681	 2.568208	 0.352559

	symmetry c1
}
set optking {
	frozen_dihedral = ("
		2 3 6 7
	")
}

ee = energy('scf')
oeprop('DIPOLE', 'QUADRUPOLE', 'MULLIKEN_CHARGES')
f=open( 'psi4out.xyz', 'w' )
f.write( "18  " )
f.write( str(ee) + "\n" )
f.write( MOL.save_string_xyz() )
f.close()
--------------------------------------------------------------------------

    Molecular point group: c1

    Geometry (in Angstrom), charge = 0, multiplicity = 1:

       Center              X                  Y                   Z               Mass
    ------------   -----------------  -----------------  -----------------  -----------------
           H         -1.648862270317    -0.124121588255     1.536199407279     1.007825032070
           C         -1.494774270317    -1.004292588255     0.919176407279    12.000000000000
           O         -0.250766270317    -1.003172588255     0.290504407279    15.994914619560
           H         -2.237202270317    -1.000809588255     0.132335407279     1.007825032070
           H         -1.650336270317    -1.888641588255     1.529848407279     1.007825032070
           C          0.294664729683     0.215422411745    -0.182846592721    12.000000000000
           C          1.634754729683    -0.199120588255    -0.786439592721    12.000000000000
           C         -0.595629270317     0.836203411745    -1.264140592721    12.000000000000
           C          0.522241729683     1.202622411745     0.966397407279    12.000000000000
           H          1.479000729683    -0.918289588255    -1.582661592721     1.007825032070
           H          2.257004729683    -0.663967588255    -0.030068592721     1.007825032070
           H          2.162957729683     0.657968411745    -1.191482592721     1.007825032070
           H         -0.810179270317     0.106859411745    -2.038127592721     1.007825032070
           H         -0.095415270317     1.683138411745    -1.722494592721     1.007825032070
           H         -1.537373270317     1.194734411745    -0.862732592721     1.007825032070
           H          1.093298729683     0.730898411745     1.759129407279     1.007825032070
           H          1.075909729683     2.067254411745     0.615120407279     1.007825032070
           H         -0.410393270317     1.563940411745     1.386244407279     1.007825032070

  Charge       = 0
  Multiplicity = 1
  Basis Set: 6-31G*
  Basis Set:

    Orbital Energies (a.u.)
    -----------------------

    Doubly Occupied:

       1A    -20.544554     2A    -11.282260     3A    -11.260505
       4A    -11.208939     5A    -11.208702     6A    -11.203326
       7A     -1.369223     8A     -1.072881     9A     -0.946198
      10A     -0.939981    11A     -0.911887    12A     -0.752164
      13A     -0.654429    14A     -0.644691    15A     -0.639458
      16A     -0.592578    17A     -0.575016    18A     -0.550745
      19A     -0.535003    20A     -0.524510    21A     -0.514906
      22A     -0.489486    23A     -0.486158    24A     -0.437442
      25A     -0.401568

  @DF-RHF Final Energy:  -271.17253783099625

   => Energetics <=

    Nuclear Repulsion Energy =            272.4025126033735660
    One-Electron Energy =                -907.6564864578460856
    Two-Electron Energy =                 364.0814360234772380
    DFT Exchange-Correlation Energy =       0.0000000000000000
    Empirical Dispersion Energy =           0.0000000000000000
    PCM Polarization Energy =               0.0000000000000000
    EFP Energy =                            0.0000000000000000
    Total Energy =                       -271.1725378309952816

  Mulliken Charges: (a.u.)
   Center  Symbol    Alpha    Beta     Spin     Total
       1     H     0.43096  0.43096  0.00000  0.13808
       2     C     3.07861  3.07861  0.00000 -0.15723
       3     O     4.32047  4.32047  0.00000 -0.64094
       4     H     0.42720  0.42720  0.00000  0.14561
       5     H     0.41367  0.41367  0.00000  0.17265
       6     C     2.84256  2.84256  0.00000  0.31488
       7     C     3.23287  3.23287  0.00000 -0.46573
       8     C     3.24714  3.24714  0.00000 -0.49428
       9     C     3.24730  3.24730  0.00000 -0.49460
      10     H     0.41403  0.41403  0.00000  0.17194
      11     H     0.41394  0.41394  0.00000  0.17213
      12     H     0.42520  0.42520  0.00000  0.14960
      13     H     0.41329  0.41329  0.00000  0.17341
      14     H     0.41975  0.41975  0.00000  0.16051
      15     H     0.42042  0.42042  0.00000  0.15916
      16     H     0.41302  0.41302  0.00000  0.17395
      17     H     0.41952  0.41952  0.00000  0.16097
      18     H     0.42005  0.42005  0.00000  0.15990

   Total alpha = 25.00000, Total beta = 25.00000, Total charge =  0.00000
