  ==> Input File <==

--------------------------------------------------------------------------
set {
	reference rhf
	basis 6-31G*
}

set_num_threads( 1 )
memory 2 gb

molecule MOL {
0 1

H	 -4.031818	 -0.453427	 -0.000094
C	 -2.967712	 -0.297022	 -0.000064
C	 -2.458620	 0.992929	 0.000032
C	 -2.109895	 -1.385637	 -0.000122
H	 -3.124998	 1.836319	 0.000077
C	 -1.090278	 1.193236	 0.000070
H	 -2.506361	 -2.384847	 -0.000198
C	 -0.739812	 -1.187531	 -0.000085
H	 -0.678594	 2.184290	 0.000146
C	 -0.226438	 0.104061	 0.000012
H	 -0.072310	 -2.027032	 -0.000131
C	 1.239129	 0.373821	 0.000060
O	 1.891498	 -0.302533	 -0.933515
O	 1.778722	 1.118751	 0.756882
C	 3.292483	 -0.105565	 -1.005057
H	 3.518849	 0.930458	 -1.210504
H	 3.636296	 -0.732137	 -1.813174
H	 3.763338	 -0.396612	 -0.077422

	symmetry c1
}
set optking {
	frozen_dihedral = ("
		12 13 15 16,
		10 12 13 15
	")
}

ee = energy('scf')
oeprop('DIPOLE', 'QUADRUPOLE', 'MULLIKEN_CHARGES')
f=open( 'psi4out.xyz', 'w' )
f.write( "18  " )
f.write( str(ee) + "\n" )
f.write( MOL.save_string_xyz() )
f.close()
--------------------------------------------------------------------------

    Molecular point group: c1

    Geometry (in Angstrom), charge = 0, multiplicity = 1:

       Center              X                  Y                   Z               Mass
    ------------   -----------------  -----------------  -----------------  -----------------
           H         -4.020642076800    -0.514166024191     0.132300883301     1.007825032070
           C         -2.956536076800    -0.357761024191     0.132330883301    12.000000000000
           C         -2.447444076800     0.932189975809     0.132426883301    12.000000000000
           C         -2.098719076800    -1.446376024191     0.132272883301    12.000000000000
           H         -3.113822076800     1.775579975809     0.132471883301     1.007825032070
           C         -1.079102076800     1.132496975809     0.132464883301    12.000000000000
           H         -2.495185076800    -2.445586024191     0.132196883301     1.007825032070
           C         -0.728636076800    -1.248270024191     0.132309883301    12.000000000000
           H         -0.667418076800     2.123550975809     0.132540883301     1.007825032070
           C         -0.215262076800     0.043321975809     0.132406883301    12.000000000000
           H         -0.061134076800    -2.087771024191     0.132263883301     1.007825032070
           C          1.250304923200     0.313081975809     0.132454883301    12.000000000000
           O          1.902673923200    -0.363272024191    -0.801120116699    15.994914619560
           O          1.789897923200     1.058011975809     0.889276883301    15.994914619560
           C          3.303658923200    -0.166304024191    -0.872662116699    12.000000000000
           H          3.530024923200     0.869718975809    -1.078109116699     1.007825032070
           H          3.647471923200    -0.792876024191    -1.680779116699     1.007825032070
           H          3.774513923200    -0.457351024191     0.054972883301     1.007825032070

  Charge       = 0
  Multiplicity = 1
  Basis Set: 6-31G*
  Basis Set:

    Orbital Energies (a.u.)
    -----------------------

    Doubly Occupied:

       1A    -20.609017     2A    -20.547611     3A    -11.379218
       4A    -11.283058     5A    -11.249613     6A    -11.245377
       7A    -11.243380     8A    -11.242769     9A    -11.239424
      10A    -11.238739    11A     -1.473819    12A     -1.364925
      13A     -1.166315    14A     -1.048858    15A     -1.026153
      16A     -0.979045    17A     -0.860940    18A     -0.837430
      19A     -0.779237    20A     -0.738314    21A     -0.684665
      22A     -0.678773    23A     -0.674981    24A     -0.630446
      25A     -0.628645    26A     -0.597848    27A     -0.589585
      28A     -0.551999    29A     -0.533693    30A     -0.516262
      31A     -0.507112    32A     -0.501555    33A     -0.458157
      34A     -0.445297    35A     -0.343200    36A     -0.342415

  @DF-RHF Final Energy:  -457.34385455176169

   => Energetics <=

    Nuclear Repulsion Energy =            492.0748180721494123
    One-Electron Energy =               -1598.3619778171391772
    Two-Electron Energy =                 648.9433051932280705
    DFT Exchange-Correlation Energy =       0.0000000000000000
    Empirical Dispersion Energy =           0.0000000000000000
    PCM Polarization Energy =               0.0000000000000000
    EFP Energy =                            0.0000000000000000
    Total Energy =                       -457.3438545517617513

  Mulliken Charges: (a.u.)
   Center  Symbol    Alpha    Beta     Spin     Total
       1     H     0.39603  0.39603  0.00000  0.20793
       2     C     3.09424  3.09424  0.00000 -0.18847
       3     C     3.10285  3.10285  0.00000 -0.20570
       4     C     3.10338  3.10338  0.00000 -0.20675
       5     H     0.39527  0.39527  0.00000  0.20945
       6     C     3.09484  3.09484  0.00000 -0.18968
       7     H     0.39575  0.39575  0.00000  0.20849
       8     C     3.09157  3.09157  0.00000 -0.18315
       9     H     0.38455  0.38455  0.00000  0.23091
      10     C     3.02755  3.02755  0.00000 -0.05510
      11     H     0.38852  0.38852  0.00000  0.22296
      12     C     2.62559  2.62559  0.00000  0.74882
      13     O     4.30048  4.30048  0.00000 -0.60096
      14     O     4.28271  4.28271  0.00000 -0.56542
      15     C     3.09379  3.09379  0.00000 -0.18758
      16     H     0.40768  0.40768  0.00000  0.18465
      17     H     0.40709  0.40709  0.00000  0.18581
      18     H     0.40810  0.40810  0.00000  0.18379

   Total alpha = 36.00000, Total beta = 36.00000, Total charge = -0.00000
