                              Psi4 1.0.54 Driver

  ==> Input File <==

--------------------------------------------------------------------------
set {
	reference rhf
	basis cc-pvtz
}

set_num_threads( 4 )
memory 2 gb

molecule MOL {
0 1

O	 0.749630	 1.305591	 -0.000460
C	 0.576499	 0.134701	 -0.003900
C	 -0.765656	 -0.550508	 -0.002152
O	 1.564816	 -0.744612	 -0.000631
C	 -1.945526	 0.411052	 0.000603
H	 -0.794329	 -1.203792	 -0.868145
H	 -0.791555	 -1.205429	 0.862701
C	 -3.282915	 -0.321280	 0.002596
H	 -1.880300	 1.059126	 -0.864925
H	 -1.877207	 1.057892	 0.866807
H	 -3.388495	 -0.952755	 -0.873419
H	 -4.107811	 0.380864	 0.004116
H	 -3.385717	 -0.953283	 0.878571
C	 2.836231	 -0.293453	 -0.422495
H	 2.796216	 0.059562	 -1.442218
H	 3.493015	 -1.144847	 -0.348644
H	 3.187678	 0.505165	 0.213692

	symmetry c1
}
set optking {
	frozen_dihedral = ("
		14 4 2 1
	")
}

ee,wfn = optimize('scf', return_wfn=True)
oeprop( wfn, 'DIPOLE', 'QUADRUPOLE', 'MULLIKEN_CHARGES')
f=open( 'psi4out.xyz', 'w' )
f.write( "17  " )
f.write( str(ee) + "\n" )
f.write( MOL.save_string_xyz() )
f.close()
--------------------------------------------------------------------------

    Molecular point group: c1
  Charge       = 0
  Multiplicity = 1
  Basis Set: CC-PVTZ
  Basis Set:
  @DF-RHF Final Energy:  -345.03306670935672
    Total Energy =                       -345.0330667093563761
    Molecular point group: c1
  Basis Set: CC-PVTZ
  Basis Set:
  Basis Set: CC-PVTZ
  Basis Set:
  @DF-RHF Final Energy:  -344.92149393584896
    Total Energy =                       -344.9214939358489005
  Basis Set: CC-PVTZ
  Basis Set:
  Basis Set: CC-PVTZ
  Basis Set:
  @DF-RHF Final Energy:  -345.01535918623279
    Total Energy =                       -345.0153591862326721
  Basis Set: CC-PVTZ
  Basis Set:
  Basis Set: CC-PVTZ
  Basis Set:
  @DF-RHF Final Energy:  -345.03156038435719
    Total Energy =                       -345.0315603843571353
  Basis Set: CC-PVTZ
  Basis Set:
  @DF-RHF Final Energy:  -345.00291766609371
    Total Energy =                       -345.0029176660938788
  @DF-RHF Final Energy:  -345.01912675550426
    Total Energy =                       -345.0191267555042032
  @DF-RHF Final Energy:  -345.03263925718824
    Total Energy =                       -345.0326392571880660
  @DF-RHF Final Energy:  -345.03291420627414
    Total Energy =                       -345.0329142062741994
  @DF-RHF Final Energy:  -345.03330188787157
    Total Energy =                       -345.0333018878720281
  @DF-RHF Final Energy:  -345.03330952324160
    Total Energy =                       -345.0333095232414848
  Basis Set: CC-PVTZ
  Basis Set:
  @DF-RHF Final Energy:  -345.03331186763620
    Total Energy =                       -345.0333118676364279
  Basis Set: CC-PVTZ
  Basis Set:
  Basis Set: CC-PVTZ
  Basis Set:
  @DF-RHF Final Energy:  -345.03331313523103
    Total Energy =                       -345.0333131352311966
  Basis Set: CC-PVTZ
  Basis Set:
  Basis Set: CC-PVTZ
  Basis Set:
  @DF-RHF Final Energy:  -345.03331299821900
    Total Energy =                       -345.0333129982186620
  Basis Set: CC-PVTZ
  Basis Set:
  Charge       = 0
  Multiplicity = 1
  Basis Set: CC-PVTZ
  Basis Set:

    Orbital Energies (a.u.)
    -----------------------

    Doubly Occupied:

       1A    -20.594748     2A    -20.535477     3A    -11.365297
       4A    -11.279734     5A    -11.234557     6A    -11.220269
       7A    -11.212895     8A     -1.471264     9A     -1.366519
      10A     -1.081774    11A     -1.001838    12A     -0.941069
      13A     -0.828473    14A     -0.769051    15A     -0.702365
      16A     -0.685452    17A     -0.676364    18A     -0.637509
      19A     -0.598823    20A     -0.576433    21A     -0.568563
      22A     -0.529305    23A     -0.524387    24A     -0.500242
      25A     -0.487951    26A     -0.479563    27A     -0.459565
      28A     -0.440835

  @DF-RHF Final Energy:  -345.03331325687230

   => Energetics <=

    Nuclear Repulsion Energy =            312.8886659440934750
    One-Electron Energy =               -1090.3033165174210808
    Two-Electron Energy =                 432.3813373164552445
    DFT Exchange-Correlation Energy =       0.0000000000000000
    Empirical Dispersion Energy =           0.0000000000000000
    PCM Polarization Energy =               0.0000000000000000
    EFP Energy =                            0.0000000000000000
    Total Energy =                       -345.0333132568724182
    Molecular point group: c1
  Basis Set: CC-PVTZ
  Basis Set:

  -Total Gradient:
     Atom            X                  Y                   Z
    ------   -----------------  -----------------  -----------------
       1        0.000631443016     0.001228561081     0.006231814273
       2       -0.001661312156    -0.003179038158    -0.011431773475
       3        0.000068811207     0.000144561587     0.000145407296
       4        0.002367730947     0.004180851612     0.009179988791
       5       -0.000020927969    -0.000057081188    -0.000009980660
       6       -0.000000397580    -0.000038535306    -0.000033935491
       7        0.000011785310    -0.000040837977     0.000010860670
       8        0.000046417061     0.000040246221     0.000002381317
       9        0.000012182266     0.000020790128    -0.000018971103
      10        0.000002694822     0.000031854329     0.000019325776
      11       -0.000013714270    -0.000026700891    -0.000020633660
      12        0.000002686666    -0.000000069045     0.000001262472
      13       -0.000011571288    -0.000017929378     0.000023119570
      14       -0.001503647779    -0.002340761338    -0.004072736493
      15        0.000003260652     0.000025651584    -0.000077748127
      16        0.000025855886    -0.000025779255     0.000016287877
      17        0.000038703206     0.000054215993     0.000035330964

  **** Optimization is complete! (in 13 steps) ****
    Final optimized geometry and variables:
    Molecular point group: c1

    Geometry (in Angstrom), charge = 0, multiplicity = 1:

    O            0.640122768003     1.322573192674    -0.371774360329
    C            0.562053430252     0.171450871478    -0.110676225396
    C           -0.708786463969    -0.562924319877     0.228710241449
    O            1.617440258496    -0.626409071575    -0.029830864721
    C           -1.929942313768     0.338715073937     0.339271956628
    H           -0.851183251242    -1.319538271425    -0.537480198269
    H           -0.533372890040    -1.106984125945     1.150502465379
    C           -3.194309892425    -0.444846378474     0.674109496741
    H           -2.062855324779     0.875951754443    -0.591700624887
    H           -1.750617034621     1.091261986962     1.098187153918
    H           -3.414097409582    -1.184257850365    -0.089155721869
    H           -4.049687336886     0.215661914258     0.748981985858
    H           -3.096688875117    -0.967160910526     1.620207458199
    C            2.802917674108    -0.201798052457    -0.672024374904
    H            2.613301517643     0.006157966849    -1.715541763702
    H            3.501976708816    -1.016961817727    -0.578269512842
    H            3.200918077933     0.684908942490    -0.201855943742

  Mulliken Charges: (a.u.)
   Center  Symbol    Alpha    Beta     Spin     Total
       1     O     4.19406  4.19406  0.00000 -0.38812
       2     C     2.80608  2.80608  0.00000  0.38783
       3     C     3.09603  3.09603  0.00000 -0.19206
       4     O     4.14885  4.14885  0.00000 -0.29769
       5     C     3.07906  3.07906  0.00000 -0.15813
       6     H     0.44356  0.44356  0.00000  0.11288
       7     H     0.43920  0.43920  0.00000  0.12160
       8     C     3.15110  3.15110  0.00000 -0.30221
       9     H     0.44578  0.44578  0.00000  0.10844
      10     H     0.44753  0.44753  0.00000  0.10493
      11     H     0.45595  0.45595  0.00000  0.08809
      12     H     0.44557  0.44557  0.00000  0.10886
      13     H     0.45571  0.45571  0.00000  0.08859
      14     C     3.03710  3.03710  0.00000 -0.07420
      15     H     0.45853  0.45853  0.00000  0.08293
      16     H     0.44522  0.44522  0.00000  0.10957
      17     H     0.45066  0.45066  0.00000  0.09868

   Total alpha = 28.00000, Total beta = 28.00000, Total charge = -0.00000

*** Psi4 exiting successfully. Buy a developer a beer!
