  ==> Input File <==

--------------------------------------------------------------------------
set {
	reference rhf
	basis cc-pvtz
}

set_num_threads( 4 )
memory 2 gb

molecule MOL {
0 1

H	 2.012744	 -0.722438	 -2.703310
O	 2.436932	 -0.199041	 -2.046925
C	 1.586703	 0.139294	 -1.061419
C	 2.084932	 0.914583	 -0.024203
C	 0.265631	 -0.254516	 -1.055239
H	 3.115163	 1.209845	 -0.048675
C	 1.261221	 1.291248	 1.011642
H	 -0.145099	 -0.852485	 -1.842025
C	 -0.532034	 0.141680	 0.000000
H	 1.655000	 1.890443	 1.808920
C	 -0.069299	 0.908040	 1.040121
N	 -1.937041	 -0.281114	 0.000000
H	 -0.720345	 1.192859	 1.837454
O	 -2.159542	 -1.446261	 0.000000
O	 -2.764978	 0.565773	 0.000000

	symmetry c1
}
set optking {
	frozen_dihedral = ("
		11 9 12 14
	")
}

ee = optimize('scf')
oeprop('DIPOLE', 'QUADRUPOLE', 'MULLIKEN_CHARGES')
f=open( 'psi4out.xyz', 'w' )
f.write( "15  " )
f.write( str(ee) + "\n" )
f.write( MOL.save_string_xyz() )
f.close()
--------------------------------------------------------------------------

    Molecular point group: c1
  Charge       = 0
  Multiplicity = 1
  Basis Set: CC-PVTZ
  Basis Set:
  @DF-RHF Final Energy:  -509.21234000969031
    Total Energy =                       -509.2123400096902515
    Molecular point group: c1
  Basis Set: CC-PVTZ
  Basis Set:
  Basis Set: CC-PVTZ
  Basis Set:
  @DF-RHF Final Energy:  -509.20644478942637
    Total Energy =                       -509.2064447894258592
  Basis Set: CC-PVTZ
  Basis Set:
  Basis Set: CC-PVTZ
  Basis Set:
  @DF-RHF Final Energy:  -509.21246141515019
    Total Energy =                       -509.2124614151500737
  Basis Set: CC-PVTZ
  Basis Set:
  Basis Set: CC-PVTZ
  Basis Set:
  @DF-RHF Final Energy:  -509.21283518757275
    Total Energy =                       -509.2128351875726366
  Basis Set: CC-PVTZ
  Basis Set:
  Basis Set: CC-PVTZ
  Basis Set:
  @DF-RHF Final Energy:  -509.21283782718046
    Total Energy =                       -509.2128378271804650
  Basis Set: CC-PVTZ
  Basis Set:
  Basis Set: CC-PVTZ
  Basis Set:
  @DF-RHF Final Energy:  -509.21283073101318
    Total Energy =                       -509.2128307310138098
  Basis Set: CC-PVTZ
  Basis Set:
  Charge       = 0
  Multiplicity = 1
  Basis Set: CC-PVTZ
  Basis Set:

    Orbital Energies (a.u.)
    -----------------------

    Doubly Occupied:

       1A    -20.610171     2A    -20.599124     3A    -20.598757
       4A    -15.850460     5A    -11.330094     6A    -11.313007
       7A    -11.264831     8A    -11.263937     9A    -11.258537
      10A    -11.252262    11A     -1.646726    12A     -1.443056
      13A     -1.429847    14A     -1.204380    15A     -1.096673
      16A     -1.049758    17A     -0.966893    18A     -0.885964
      19A     -0.833291    20A     -0.793861    21A     -0.766106
      22A     -0.740746    23A     -0.725066    24A     -0.712592
      25A     -0.673709    26A     -0.636226    27A     -0.623388
      28A     -0.597083    29A     -0.565022    30A     -0.549586
      31A     -0.534099    32A     -0.495124    33A     -0.489649
      34A     -0.460150    35A     -0.377272    36A     -0.346581

  @DF-RHF Final Energy:  -509.21283254690843

   => Energetics <=

    Nuclear Repulsion Energy =            504.2143327721253172
    One-Electron Energy =               -1694.8862786083670926
    Two-Electron Energy =                 681.4591132893333452
    DFT Exchange-Correlation Energy =       0.0000000000000000
    Empirical Dispersion Energy =           0.0000000000000000
    PCM Polarization Energy =               0.0000000000000000
    EFP Energy =                            0.0000000000000000
    Total Energy =                       -509.2128325469084302
    Molecular point group: c1
  Basis Set: CC-PVTZ
  Basis Set:

  -Total Gradient:
     Atom            X                  Y                   Z
    ------   -----------------  -----------------  -----------------
       1       -0.000001147985     0.000000504765     0.000000123290
       2        0.000003675817    -0.000013784539     0.000008870995
       3        0.000002864191     0.000037220265    -0.000023773023
       4       -0.000003878119    -0.000002608134    -0.000009425057
       5        0.000129512332    -0.000385351515     0.000232131478
       6       -0.000000489550     0.000003859854     0.000000943428
       7        0.000012761752    -0.000032701529     0.000029501177
       8        0.000008299891     0.000012054123     0.000013522029
       9       -0.002171758357     0.006513283743    -0.001852023442
      10       -0.000000347158     0.000007345791    -0.000003235531
      11        0.001408831113    -0.004149920270     0.002355192433
      12        0.000473296755    -0.001792960712    -0.005902191939
      13        0.000014563866    -0.000002930516    -0.000009662315
      14        0.000115368268    -0.000168000040     0.005173050862
      15        0.000008447188    -0.000026011286    -0.000013024392

  **** Optimization is complete! (in 7 steps) ****
    Final optimized geometry and variables:
    Molecular point group: c1

    Geometry (in Angstrom), charge = 0, multiplicity = 1:

    H            2.056060245921    -0.869403449304    -2.451933488596
    O            2.476434359938    -0.342166173046    -1.796251900078
    C            1.624137872911     0.001802392351    -0.816645039850
    C            2.122689380372     0.768703385252     0.226959989287
    C            0.300298319245    -0.389179301136    -0.814388351905
    H            3.156384722616     1.051324223617     0.212044815404
    C            1.296339204671     1.146326122479     1.259875736065
    H           -0.102361861550    -1.011759200125    -1.589180811780
    C           -0.500852517095     0.039317561740     0.220910282285
    H            1.693965965245     1.728245975821     2.068148705877
    C           -0.042099520748     0.786995331083     1.272341928160
    N           -1.891277783328    -0.419427038253     0.245781798442
    H           -0.699845265120     1.085257648297     2.062127309490
    O           -2.073183803254    -1.590246279677     0.219088880060
    O           -2.733642458922     0.408584031830     0.330896991321

  Mulliken Charges: (a.u.)
   Center  Symbol    Alpha    Beta     Spin     Total
       1     H     0.38453  0.38453  0.00000  0.23095
       2     O     4.16728  4.16728  0.00000 -0.33457
       3     C     2.84279  2.84279  0.00000  0.31441
       4     C     3.10446  3.10446  0.00000 -0.20891
       5     C     3.14097  3.14097  0.00000 -0.28193
       6     H     0.41398  0.41398  0.00000  0.17204
       7     C     3.05127  3.05127  0.00000 -0.10253
       8     H     0.42011  0.42011  0.00000  0.15977
       9     C     2.92634  2.92634  0.00000  0.14731
      10     H     0.41628  0.41628  0.00000  0.16744
      11     C     3.10823  3.10823  0.00000 -0.21646
      12     N     3.28247  3.28247  0.00000  0.43507
      13     H     0.40990  0.40990  0.00000  0.18020
      14     O     4.16593  4.16593  0.00000 -0.33186
      15     O     4.16546  4.16546  0.00000 -0.33093

   Total alpha = 36.00000, Total beta = 36.00000, Total charge = -0.00000
