  ==> Input File <==

--------------------------------------------------------------------------
set {
	reference rhf
	basis cc-pvtz
}

set_num_threads( 4 )
memory 2 gb

molecule MOL {
0 1

H	 -2.498963	 -0.741158	 -0.729149
O	 -2.346257	 -0.289210	 0.080372
C	 -1.183935	 0.486039	 -0.009831
C	 0.062853	 -0.375310	 0.027457
H	 -1.178881	 1.094526	 -0.908634
H	 -1.184406	 1.155156	 0.838676
O	 1.172093	 0.457955	 -0.054438
H	 0.052476	 -1.081302	 -0.804627
H	 0.076323	 -0.955658	 0.947560
C	 1.784639	 0.728484	 1.163274
H	 2.146519	 -0.181439	 1.636938
H	 2.625096	 1.379901	 0.973610
H	 1.102871	 1.225808	 1.849116

	symmetry c1
}
set optking {
	frozen_dihedral = ("
		10 7 4 8
	")
}

ee = optimize('scf')
oeprop('DIPOLE', 'QUADRUPOLE', 'MULLIKEN_CHARGES')
f=open( 'psi4out.xyz', 'w' )
f.write( "13  " )
f.write( str(ee) + "\n" )
f.write( MOL.save_string_xyz() )
f.close()
--------------------------------------------------------------------------

    Molecular point group: c1
  Charge       = 0
  Multiplicity = 1
  Basis Set: CC-PVTZ
  Basis Set:
  @DF-RHF Final Energy:  -268.05845516630291
    Total Energy =                       -268.0584551663029629
    Molecular point group: c1
  Basis Set: CC-PVTZ
  Basis Set:
  Basis Set: CC-PVTZ
  Basis Set:
  @DF-RHF Final Energy:  -268.05916294880399
    Total Energy =                       -268.0591629488038734
  Basis Set: CC-PVTZ
  Basis Set:
  Basis Set: CC-PVTZ
  Basis Set:
  @DF-RHF Final Energy:  -268.05929287992865
    Total Energy =                       -268.0592928799286483
  Basis Set: CC-PVTZ
  Basis Set:
  Basis Set: CC-PVTZ
  Basis Set:
  @DF-RHF Final Energy:  -268.05929563615052
    Total Energy =                       -268.0592956361506367
  Basis Set: CC-PVTZ
  Basis Set:
  Charge       = 0
  Multiplicity = 1
  Basis Set: CC-PVTZ
  Basis Set:

    Orbital Energies (a.u.)
    -----------------------

    Doubly Occupied:

       1A    -20.553963     2A    -20.553590     3A    -11.269084
       4A    -11.268055     5A    -11.267666     6A     -1.387881
       7A     -1.369630     8A     -1.016014     9A     -0.923132
      10A     -0.839027    11A     -0.711518    12A     -0.675552
      13A     -0.658456    14A     -0.641118    15A     -0.598119
      16A     -0.576288    17A     -0.531274    18A     -0.509373
      19A     -0.474333    20A     -0.461322    21A     -0.408648

  @DF-RHF Final Energy:  -268.05929584901980

   => Energetics <=

    Nuclear Repulsion Energy =            191.5407869035260831
    One-Electron Energy =                -745.8120790058956118
    Two-Electron Energy =                 286.2119962533497528
    DFT Exchange-Correlation Energy =       0.0000000000000000
    Empirical Dispersion Energy =           0.0000000000000000
    PCM Polarization Energy =               0.0000000000000000
    EFP Energy =                            0.0000000000000000
    Total Energy =                       -268.0592958490198043
    Molecular point group: c1
  Basis Set: CC-PVTZ
  Basis Set:

  -Total Gradient:
     Atom            X                  Y                   Z
    ------   -----------------  -----------------  -----------------
       1       -0.000011404646     0.000002548237     0.000002624858
       2        0.000025333728     0.000009972825    -0.000021603456
       3       -0.000014542687    -0.000018024457     0.000030294757
       4       -0.000293431773     0.000339730533    -0.000506765720
       5       -0.000004690865    -0.000002550625     0.000000256842
       6        0.000002508982     0.000007111177    -0.000006599991
       7       -0.000355851058     0.000582055401     0.000169887091
       8        0.000339303483    -0.000457143406     0.000381896100
       9        0.000001253682     0.000007412686     0.000007000582
      10        0.000306765297    -0.000473140895    -0.000074461548
      11        0.000002908696     0.000001716149     0.000006683664
      12       -0.000000894538    -0.000000831115     0.000003963810
      13        0.000002741696     0.000001143486     0.000006823010

  **** Optimization is complete! (in 5 steps) ****
    Final optimized geometry and variables:
    Molecular point group: c1

    Geometry (in Angstrom), charge = 0, multiplicity = 1:

    H           -2.361929446825    -0.964274368229    -0.985931848505
    O           -2.238596485727    -0.490904448588    -0.183464458810
    C           -1.085504429162     0.299819083070    -0.261025343681
    C            0.176519797315    -0.545150999929    -0.201969180711
    H           -1.074392620991     0.901885992553    -1.164282755637
    H           -1.117826343983     0.977861569027     0.581089897055
    O            1.318863887073     0.252329152636    -0.281414472767
    H            0.196697846964    -1.235226136487    -1.039572129232
    H            0.171372288134    -1.141552591112     0.705705325828
    C            1.949464681612     0.531346998363     0.928118603304
    H            2.323323759586    -0.375007223800     1.397074009797
    H            2.784401625005     1.183810438145     0.717891845399
    H            1.286358964899     1.033332820078     1.627838929472

  Mulliken Charges: (a.u.)
   Center  Symbol    Alpha    Beta     Spin     Total
       1     H     0.39335  0.39335  0.00000  0.21330
       2     O     4.20299  4.20299  0.00000 -0.40597
       3     C     2.96936  2.96936  0.00000  0.06128
       4     C     2.98326  2.98326  0.00000  0.03348
       5     H     0.46641  0.46641  0.00000  0.06718
       6     H     0.45876  0.45876  0.00000  0.08247
       7     O     4.18207  4.18207  0.00000 -0.36413
       8     H     0.45929  0.45929  0.00000  0.08143
       9     H     0.46743  0.46743  0.00000  0.06514
      10     C     3.03005  3.03005  0.00000 -0.06010
      11     H     0.46753  0.46753  0.00000  0.06493
      12     H     0.44804  0.44804  0.00000  0.10392
      13     H     0.47146  0.47146  0.00000  0.05708

   Total alpha = 21.00000, Total beta = 21.00000, Total charge = -0.00000
