  ==> Input File <==

--------------------------------------------------------------------------
set {
	reference rhf
	basis 6-31G*
}

set_num_threads( 1 )
memory 2 gb

molecule MOL {
0 1

O	 1.803386	 3.016561	 1.837323
C	 1.210339	 2.723597	 2.829909
C	 -0.068599	 1.906163	 2.797394
C	 1.700552	 3.152768	 4.197629
C	 -0.514062	 1.504116	 1.394484
H	 0.082870	 1.025612	 3.420351
H	 -0.845537	 2.482890	 3.297550
C	 -1.804290	 0.682521	 1.401951
H	 0.280518	 0.939412	 0.917113
H	 -0.649175	 2.398289	 0.794195
C	 -2.259874	 0.272531	 0.000494
H	 -1.662852	 -0.210859	 2.008512
H	 -2.596462	 1.254052	 1.883494
C	 -3.549786	 -0.549746	 -0.000374
H	 -1.469018	 -0.299472	 -0.481563
H	 -2.402417	 1.164855	 -0.606495
C	 -4.809590	 0.315458	 -0.000369
H	 -3.560515	 -1.202009	 -0.871156
H	 -3.561123	 -1.202955	 0.869711
H	 -4.844746	 0.956611	 -0.876632
H	 -5.706986	 -0.295590	 -0.001609
H	 -4.845960	 0.954827	 0.877144
H	 1.883648	 2.284719	 4.824195
H	 2.613219	 3.723260	 4.095594
H	 0.948977	 3.757523	 4.696670

	symmetry c1
}
set optking {
	frozen_dihedral = ("
		9 5 8 12,
		15 11 8 12,
		1 2 3 6,
		9 5 3 6
	")
}

ee = energy('scf')
oeprop('DIPOLE', 'QUADRUPOLE', 'MULLIKEN_CHARGES')
f=open( 'psi4out.xyz', 'w' )
f.write( "25  " )
f.write( str(ee) + "\n" )
f.write( MOL.save_string_xyz() )
f.close()
--------------------------------------------------------------------------

    Molecular point group: c1

    Geometry (in Angstrom), charge = 0, multiplicity = 1:

       Center              X                  Y                   Z               Mass
    ------------   -----------------  -----------------  -----------------  -----------------
           O          2.730955807244     1.563171394616     0.230372027069    15.994914619560
           C          2.137908807244     1.270207394616     1.222958027069    12.000000000000
           C          0.858970807244     0.452773394616     1.190443027069    12.000000000000
           C          2.628121807244     1.699378394616     2.590678027069    12.000000000000
           C          0.413507807244     0.050726394616    -0.212466972931    12.000000000000
           H          1.010439807244    -0.427777605384     1.813400027069     1.007825032070
           H          0.082032807244     1.029500394616     1.690599027069     1.007825032070
           C         -0.876720192756    -0.770868605384    -0.204999972931    12.000000000000
           H          1.208087807244    -0.513977605384    -0.689837972931     1.007825032070
           H          0.278394807244     0.944899394616    -0.812755972931     1.007825032070
           C         -1.332304192756    -1.180858605384    -1.606456972931    12.000000000000
           H         -0.735282192756    -1.664248605384     0.401561027069     1.007825032070
           H         -1.668892192756    -0.199337605384     0.276543027069     1.007825032070
           C         -2.622216192756    -2.003135605384    -1.607324972931    12.000000000000
           H         -0.541448192756    -1.752861605384    -2.088513972931     1.007825032070
           H         -1.474847192756    -0.288534605384    -2.213445972931     1.007825032070
           C         -3.882020192756    -1.137931605384    -1.607319972931    12.000000000000
           H         -2.632945192756    -2.655398605384    -2.478106972931     1.007825032070
           H         -2.633553192756    -2.656344605384    -0.737239972931     1.007825032070
           H         -3.917176192756    -0.496778605384    -2.483582972931     1.007825032070
           H         -4.779416192756    -1.748979605384    -1.608559972931     1.007825032070
           H         -3.918390192756    -0.498562605384    -0.729806972931     1.007825032070
           H          2.811217807244     0.831329394616     3.217244027069     1.007825032070
           H          3.540788807244     2.269870394616     2.488643027069     1.007825032070
           H          1.876546807244     2.304133394616     3.089719027069     1.007825032070

  Charge       = 0
  Multiplicity = 1
  Basis Set: 6-31G*
  Basis Set:

    Orbital Energies (a.u.)
    -----------------------

    Doubly Occupied:

       1A    -20.550459     2A    -11.326301     3A    -11.231882
       4A    -11.228345     5A    -11.217056     6A    -11.216435
       7A    -11.214704     8A    -11.212802     9A    -11.208793
      10A     -1.395758    11A     -1.094188    12A     -1.056517
      13A     -1.013778    14A     -0.967511    15A     -0.893574
      16A     -0.820314    17A     -0.784098    18A     -0.729712
      19A     -0.657954    20A     -0.653288    21A     -0.625073
      22A     -0.619127    23A     -0.610955    24A     -0.589209
      25A     -0.568491    26A     -0.556804    27A     -0.537161
      28A     -0.523427    29A     -0.516261    30A     -0.491839
      31A     -0.486862    32A     -0.477737    33A     -0.464650
      34A     -0.454318    35A     -0.450064    36A     -0.399406

  @DF-RHF Final Energy:  -387.13358756871133

   => Energetics <=

    Nuclear Repulsion Energy =            441.9941986336621653
    One-Electron Energy =               -1400.5659606530148267
    Two-Electron Energy =                 571.4381744506370069
    DFT Exchange-Correlation Energy =       0.0000000000000000
    Empirical Dispersion Energy =           0.0000000000000000
    PCM Polarization Energy =               0.0000000000000000
    EFP Energy =                            0.0000000000000000
    Total Energy =                       -387.1335875687157113

  Mulliken Charges: (a.u.)
   Center  Symbol    Alpha    Beta     Spin     Total
       1     O     4.26115  4.26115  0.00000 -0.52230
       2     C     2.73572  2.73572  0.00000  0.52857
       3     C     3.21083  3.21083  0.00000 -0.42166
       4     C     3.28664  3.28664  0.00000 -0.57328
       5     C     3.14786  3.14786  0.00000 -0.29573
       6     H     0.41003  0.41003  0.00000  0.17995
       7     H     0.41008  0.41008  0.00000  0.17984
       8     C     3.15521  3.15521  0.00000 -0.31042
       9     H     0.41210  0.41210  0.00000  0.17580
      10     H     0.41214  0.41214  0.00000  0.17571
      11     C     3.15376  3.15376  0.00000 -0.30753
      12     H     0.42453  0.42453  0.00000  0.15094
      13     H     0.42423  0.42423  0.00000  0.15154
      14     C     3.15419  3.15419  0.00000 -0.30837
      15     H     0.42019  0.42019  0.00000  0.15961
      16     H     0.42159  0.42159  0.00000  0.15681
      17     C     3.24014  3.24014  0.00000 -0.48028
      18     H     0.41998  0.41998  0.00000  0.16005
      19     H     0.42296  0.42296  0.00000  0.15407
      20     H     0.42094  0.42094  0.00000  0.15812
      21     H     0.41959  0.41959  0.00000  0.16083
      22     H     0.42223  0.42223  0.00000  0.15554
      23     H     0.40875  0.40875  0.00000  0.18251
      24     H     0.39646  0.39646  0.00000  0.20709
      25     H     0.40870  0.40870  0.00000  0.18260

   Total alpha = 36.00000, Total beta = 36.00000, Total charge =  0.00000
