                              Psi4 1.0.54 Driver

  ==> Input File <==

--------------------------------------------------------------------------
set {
	reference rhf
	basis cc-pvtz
}

set_num_threads( 4 )
memory 2 gb

molecule MOL {
0 1

O	 -1.923493	 -0.674696	 0.284363
C	 -1.081510	 0.147522	 0.122720
C	 0.327029	 -0.064006	 0.641890
C	 -1.370518	 1.448387	 -0.587556
C	 1.349460	 -0.017068	 -0.500215
H	 0.399029	 -1.014606	 1.159950
H	 0.538021	 0.726928	 1.350471
C	 2.779782	 -0.209014	 -0.009215
H	 1.115007	 -0.782959	 -1.233891
H	 1.259071	 0.936707	 -1.006644
H	 3.481860	 -0.160270	 -0.833072
H	 2.903471	 -1.171535	 0.475559
H	 3.052569	 0.559584	 0.705428
H	 -1.021374	 2.290639	 -0.000644
H	 -2.428917	 1.541957	 -0.776057
H	 -0.831294	 1.468622	 -1.529194

	symmetry c1
}
set optking {
	frozen_dihedral = ("
		4 2 3 5
	")
}

ee,wfn = optimize('scf', return_wfn=True)
oeprop( wfn, 'DIPOLE', 'QUADRUPOLE', 'MULLIKEN_CHARGES')
f=open( 'psi4out.xyz', 'w' )
f.write( "16  " )
f.write( str(ee) + "\n" )
f.write( MOL.save_string_xyz() )
f.close()
--------------------------------------------------------------------------

    Molecular point group: c1
  Charge       = 0
  Multiplicity = 1
  Basis Set: CC-PVTZ
  Basis Set:
  @DF-RHF Final Energy:  -270.12781259564542
    Total Energy =                       -270.1278125956452527
    Molecular point group: c1
  Basis Set: CC-PVTZ
  Basis Set:
  Basis Set: CC-PVTZ
  Basis Set:
  @DF-RHF Final Energy:  -269.97791083279219
    Total Energy =                       -269.9779108327922472
  Basis Set: CC-PVTZ
  Basis Set:
  Basis Set: CC-PVTZ
  Basis Set:
  @DF-RHF Final Energy:  -270.08154742966036
    Total Energy =                       -270.0815474296604748
  Basis Set: CC-PVTZ
  Basis Set:
  Basis Set: CC-PVTZ
  Basis Set:
  @DF-RHF Final Energy:  -270.12615416187850
    Total Energy =                       -270.1261541618785031
  Basis Set: CC-PVTZ
  Basis Set:
  @DF-RHF Final Energy:  -270.12796627931948
    Total Energy =                       -270.1279662793194802
  @DF-RHF Final Energy:  -270.12875433113254
    Total Energy =                       -270.1287543311327681
  @DF-RHF Final Energy:  -270.12866770675942
    Total Energy =                       -270.1286677067595292
  @DF-RHF Final Energy:  -270.12889473195969
    Total Energy =                       -270.1288947319598037
  @DF-RHF Final Energy:  -270.12889171643531
    Total Energy =                       -270.1288917164351915
  Basis Set: CC-PVTZ
  Basis Set:
  @DF-RHF Final Energy:  -270.12893199309462
    Total Energy =                       -270.1289319930946817
  Basis Set: CC-PVTZ
  Basis Set:
  Basis Set: CC-PVTZ
  Basis Set:
  @DF-RHF Final Energy:  -270.12893319531884
    Total Energy =                       -270.1289331953185524
  Basis Set: CC-PVTZ
  Basis Set:
  Basis Set: CC-PVTZ
  Basis Set:
  @DF-RHF Final Energy:  -270.12893421734498
    Total Energy =                       -270.1289342173453178
  Basis Set: CC-PVTZ
  Basis Set:
  Charge       = 0
  Multiplicity = 1
  Basis Set: CC-PVTZ
  Basis Set:

    Orbital Energies (a.u.)
    -----------------------

    Doubly Occupied:

       1A    -20.537804     2A    -11.319782     3A    -11.233793
       4A    -11.228975     5A    -11.226595     6A    -11.219326
       7A     -1.397480     8A     -1.086448     9A     -1.011661
      10A     -0.952002    11A     -0.833641    12A     -0.736193
      13A     -0.660730    14A     -0.652221    15A     -0.620393
      16A     -0.607238    17A     -0.578131    18A     -0.554677
      19A     -0.535720    20A     -0.522550    21A     -0.507500
      22A     -0.486942    23A     -0.477556    24A     -0.400883

  @DF-RHF Final Energy:  -270.12893442879454

   => Energetics <=

    Nuclear Repulsion Energy =            237.4096788884388900
    One-Electron Energy =                -836.3007437792296059
    Two-Electron Energy =                 328.7621304619962075
    DFT Exchange-Correlation Energy =       0.0000000000000000
    Empirical Dispersion Energy =           0.0000000000000000
    PCM Polarization Energy =               0.0000000000000000
    EFP Energy =                            0.0000000000000000
    Total Energy =                       -270.1289344287945369
    Molecular point group: c1
  Basis Set: CC-PVTZ
  Basis Set:

  -Total Gradient:
     Atom            X                  Y                   Z
    ------   -----------------  -----------------  -----------------
       1        0.000028340594     0.000039018812     0.000000304292
       2       -0.000164818752     0.000058354862     0.000101566117
       3        0.000082504862    -0.000155873178    -0.000032512375
       4        0.000073651949    -0.000059685146    -0.000060671188
       5       -0.000002593881     0.000125338271    -0.000020981216
       6        0.000001325329     0.000000860004    -0.000002607343
       7       -0.000000860823    -0.000004026296    -0.000008880970
       8       -0.000013880881    -0.000021945810     0.000021342882
       9       -0.000007717872     0.000012272305     0.000023834899
      10        0.000001971190    -0.000023774594     0.000017901786
      11        0.000001782243     0.000004776693    -0.000001358538
      12       -0.000003883736     0.000023047251    -0.000013175649
      13        0.000004994398    -0.000011012118    -0.000015936410
      14        0.000001180825     0.000004648251     0.000007269361
      15       -0.000010905012     0.000005471791    -0.000009078480
      16        0.000008909566     0.000002528905    -0.000007017168

  **** Optimization is complete! (in 13 steps) ****
    Final optimized geometry and variables:
    Molecular point group: c1

    Geometry (in Angstrom), charge = 0, multiplicity = 1:

    O           -1.726350336898    -1.192270902313    -0.227822234786
    C           -1.077938781527    -0.196796397994    -0.223361506312
    C            0.112862186083    -0.039672162007     0.700693687933
    C           -1.413934151618     0.955423383670    -1.144263192997
    C            1.439893496361     0.195920307606    -0.027462810691
    H            0.168586700338    -0.935783501530     1.303714497452
    H           -0.084459271605     0.797462330843     1.366068902078
    C            2.620046098084     0.261498038715     0.935814331243
    H            1.601954770882    -0.604868364758    -0.742484301225
    H            1.393110261181     1.117228743720    -0.597719596492
    H            3.548374975081     0.426096057296     0.401923759770
    H            2.717913273505    -0.661219614577     1.496442386684
    H            2.498633627919     1.070556394237     1.648104449249
    H           -1.360389855889     1.903952364263    -0.622915422000
    H           -2.401924875100     0.811831105864    -1.554055873946
    H           -0.697898793440     0.990075110860    -1.957927252472

  Mulliken Charges: (a.u.)
   Center  Symbol    Alpha    Beta     Spin     Total
       1     O     4.17201  4.17201  0.00000 -0.34401
       2     C     2.85766  2.85766  0.00000  0.28469
       3     C     3.09669  3.09669  0.00000 -0.19339
       4     C     3.16296  3.16296  0.00000 -0.32592
       5     C     3.09709  3.09709  0.00000 -0.19417
       6     H     0.43866  0.43866  0.00000  0.12268
       7     H     0.44929  0.44929  0.00000  0.10141
       8     C     3.14859  3.14859  0.00000 -0.29717
       9     H     0.44563  0.44563  0.00000  0.10873
      10     H     0.45100  0.45100  0.00000  0.09800
      11     H     0.44615  0.44615  0.00000  0.10769
      12     H     0.45056  0.45056  0.00000  0.09888
      13     H     0.45444  0.45444  0.00000  0.09113
      14     H     0.44928  0.44928  0.00000  0.10143
      15     H     0.43255  0.43255  0.00000  0.13490
      16     H     0.44743  0.44743  0.00000  0.10513

   Total alpha = 24.00000, Total beta = 24.00000, Total charge =  0.00000

*** Psi4 exiting successfully. Buy a developer a beer!
