  ==> Input File <==

--------------------------------------------------------------------------
set {
	reference rhf
	basis 6-31G*
}

set_num_threads( 4 )
memory 2 gb

molecule MOL {
0 1

H	 2.465338	 -2.224223	 0.000000
O	 2.784187	 -1.332015	 0.000000
C	 1.765313	 -0.449364	 0.000000
C	 2.092008	 0.903120	 0.000000
C	 0.440931	 -0.841978	 0.000000
H	 3.128654	 1.182804	 0.000000
C	 1.093712	 1.855207	 0.000000
H	 0.160598	 -1.876840	 0.000000
C	 -0.536158	 0.140425	 0.000000
H	 1.354898	 2.897147	 0.000000
C	 -0.244776	 1.486027	 0.000000
N	 -1.935604	 -0.280333	 0.000000
H	 -1.030305	 2.212903	 0.000000
O	 -2.161694	 -1.452901	 0.000000
O	 -2.770341	 0.571417	 0.000000

	symmetry c1
}
set optking {
	frozen_dihedral = ("
		11 9 12 14
	")
}

ee = optimize('scf')
oeprop('DIPOLE', 'QUADRUPOLE', 'MULLIKEN_CHARGES')
f=open( 'psi4out.xyz', 'w' )
f.write( "15  " )
f.write( str(ee) + "\n" )
f.write( MOL.save_string_xyz() )
f.close()
--------------------------------------------------------------------------

    Molecular point group: c1
  Charge       = 0
  Multiplicity = 1
  Basis Set: 6-31G*
  Basis Set:

    Orbital Energies (a.u.)
    -----------------------

    Doubly Occupied:

       1A    -20.615792     2A    -20.605176     3A    -20.604615
       4A    -15.859555     5A    -11.330581     6A    -11.311202
       7A    -11.267280     8A    -11.266830     9A    -11.263678
      10A    -11.260796    11A     -1.638346    12A     -1.436489
      13A     -1.421618    14A     -1.200537    15A     -1.095033
      16A     -1.046473    17A     -0.966222    18A     -0.878683
      19A     -0.828643    20A     -0.791182    21A     -0.752000
      22A     -0.737257    23A     -0.724076    24A     -0.707848
      25A     -0.673241    26A     -0.635198    27A     -0.615879
      28A     -0.594707    29A     -0.558634    30A     -0.545100
      31A     -0.515291    32A     -0.492272    33A     -0.490172
      34A     -0.455008    35A     -0.377463    36A     -0.342942

  @DF-RHF Final Energy:  -509.02776879062799

   => Energetics <=

    Nuclear Repulsion Energy =            503.4812008364933718
    One-Electron Energy =               -1693.2063029108173851
    Two-Electron Energy =                 680.6973332836960253
    DFT Exchange-Correlation Energy =       0.0000000000000000
    Empirical Dispersion Energy =           0.0000000000000000
    PCM Polarization Energy =               0.0000000000000000
    EFP Energy =                            0.0000000000000000
    Total Energy =                       -509.0277687906279880
    Molecular point group: c1
  Basis Set: 6-31G*
  Basis Set:

  -Total Gradient:
     Atom            X                  Y                   Z
    ------   -----------------  -----------------  -----------------
       1       -0.000013757585    -0.000019601438    -0.000000000000
       2        0.000020698083     0.000025772313     0.000000000000
       3        0.000042293676    -0.000046363551     0.000000000000
       4        0.000081789120     0.000026925583    -0.000000000000
       5        0.000020387522    -0.000035913369    -0.000000000000
       6       -0.000050404413    -0.000019257055     0.000000000000
       7       -0.000090630500     0.000031850104     0.000000000000
       8        0.000004053400     0.000018364932     0.000000000000
       9       -0.000041542767     0.000069579216    -0.000000000000
      10        0.000000442543     0.000000313673    -0.000000000000
      11        0.000126907631    -0.000039683151     0.000000000000
      12       -0.000024302138     0.000065210781    -0.000000000000
      13       -0.000020758575     0.000017699859    -0.000000000000
      14       -0.000058509742    -0.000022536072     0.000000000000
      15        0.000003333733    -0.000072361815     0.000000000000

  **** Optimization is complete! (in 1 steps) ****
    Final optimized geometry and variables:
    Molecular point group: c1

    Geometry (in Angstrom), charge = 0, multiplicity = 1:

    H            2.465337558573    -2.224222529403     0.000000000000
    O            2.784186558573    -1.332014529403     0.000000000000
    C            1.765312558573    -0.449363529403     0.000000000000
    C            2.092007558573     0.903120470597     0.000000000000
    C            0.440930558573    -0.841977529403     0.000000000000
    H            3.128653558573     1.182804470597     0.000000000000
    C            1.093711558573     1.855207470597     0.000000000000
    H            0.160597558573    -1.876839529403     0.000000000000
    C           -0.536158441427     0.140425470597     0.000000000000
    H            1.354897558573     2.897147470597     0.000000000000
    C           -0.244776441427     1.486027470597     0.000000000000
    N           -1.935604441427    -0.280332529403     0.000000000000
    H           -1.030305441427     2.212903470597     0.000000000000
    O           -2.161694441427    -1.452900529403     0.000000000000
    O           -2.770341441427     0.571417470597     0.000000000000

  Mulliken Charges: (a.u.)
   Center  Symbol    Alpha    Beta     Spin     Total
       1     H     0.26725  0.26725  0.00000  0.46550
       2     O     4.37577  4.37577  0.00000 -0.75155
       3     C     2.79129  2.79129  0.00000  0.41741
       4     C     3.10849  3.10849  0.00000 -0.21697
       5     C     3.13723  3.13723  0.00000 -0.27446
       6     H     0.38086  0.38086  0.00000  0.23828
       7     C     3.10056  3.10056  0.00000 -0.20112
       8     H     0.36792  0.36792  0.00000  0.26416
       9     C     2.91369  2.91369  0.00000  0.17262
      10     H     0.38656  0.38656  0.00000  0.22688
      11     C     3.09783  3.09783  0.00000 -0.19565
      12     N     3.24017  3.24017  0.00000  0.51967
      13     H     0.36520  0.36520  0.00000  0.26960
      14     O     4.23554  4.23554  0.00000 -0.47108
      15     O     4.23164  4.23164  0.00000 -0.46328

   Total alpha = 36.00000, Total beta = 36.00000, Total charge = -0.00000
