  ==> Input File <==

--------------------------------------------------------------------------
set {
	reference rhf
	basis 6-31G*
}

set_num_threads( 4 )
memory 2 gb

molecule MOL {
0 1

H	 -0.207343	 -0.483377	 -2.035835
C	 -0.601317	 -1.070158	 -1.208422
O	 -1.392607	 -0.295399	 -0.366433
H	 -1.223687	 -1.860477	 -1.604898
H	 0.235497	 -1.516864	 -0.673048
C	 -0.719715	 0.768384	 0.229244
C	 0.719720	 0.768376	 -0.229267
H	 -1.185038	 1.714362	 -0.050570
H	 -0.750528	 0.687237	 1.313896
O	 1.392611	 -0.295398	 0.366430
H	 0.750534	 0.687200	 -1.313918
H	 1.185043	 1.714359	 0.050526
C	 2.706965	 -0.449871	 -0.062409
H	 2.756559	 -0.644779	 -1.131878
H	 3.305899	 0.433456	 0.155466
H	 3.125548	 -1.294566	 0.467107

	symmetry c1
}
set optking {
	frozen_dihedral = ("
		2 3 6 7
	")
}

ee = optimize('scf')
oeprop('DIPOLE', 'QUADRUPOLE', 'MULLIKEN_CHARGES')
f=open( 'psi4out.xyz', 'w' )
f.write( "16  " )
f.write( str(ee) + "\n" )
f.write( MOL.save_string_xyz() )
f.close()
--------------------------------------------------------------------------

    Molecular point group: c1
  Charge       = 0
  Multiplicity = 1
  Basis Set: 6-31G*
  Basis Set:
  @DF-RHF Final Energy:  -306.94664563060002
    Total Energy =                       -306.9466456306000737
    Molecular point group: c1
  Basis Set: 6-31G*
  Basis Set:
  Basis Set: 6-31G*
  Basis Set:
  @DF-RHF Final Energy:  -306.96082839041679
    Total Energy =                       -306.9608283904169639
  Basis Set: 6-31G*
  Basis Set:
  Basis Set: 6-31G*
  Basis Set:
  @DF-RHF Final Energy:  -306.96436055398209
    Total Energy =                       -306.9643605539820896
  Basis Set: 6-31G*
  Basis Set:
  Basis Set: 6-31G*
  Basis Set:
  @DF-RHF Final Energy:  -306.96721441483061
    Total Energy =                       -306.9672144148306643
  Basis Set: 6-31G*
  Basis Set:
  @DF-RHF Final Energy:  -306.96805027360705
    Total Energy =                       -306.9680502736070480
  @DF-RHF Final Energy:  -306.96850445147686
    Total Energy =                       -306.9685044514767469
  Basis Set: 6-31G*
  Basis Set:
  @DF-RHF Final Energy:  -306.96867093838887
    Total Energy =                       -306.9686709383888115
  Basis Set: 6-31G*
  Basis Set:
  Basis Set: 6-31G*
  Basis Set:
  @DF-RHF Final Energy:  -306.96869137537948
    Total Energy =                       -306.9686913753794215
  Basis Set: 6-31G*
  Basis Set:
  Basis Set: 6-31G*
  Basis Set:
  @DF-RHF Final Energy:  -306.96869485866205
    Total Energy =                       -306.9686948586619906
  Basis Set: 6-31G*
  Basis Set:
  Charge       = 0
  Multiplicity = 1
  Basis Set: 6-31G*
  Basis Set:

    Orbital Energies (a.u.)
    -----------------------

    Doubly Occupied:

       1A    -20.565020     2A    -20.544608     3A    -11.277814
       4A    -11.272634     5A    -11.268327     6A    -11.255977
       7A     -1.392279     8A     -1.361769     9A     -1.030481
      10A     -0.950905    11A     -0.898960    12A     -0.811413
      13A     -0.693839    14A     -0.682509    15A     -0.656105
      16A     -0.635073    17A     -0.625140    18A     -0.589640
      19A     -0.559843    20A     -0.546480    21A     -0.516891
      22A     -0.493207    23A     -0.445141    24A     -0.425245
      25A     -0.401873

  @DF-RHF Final Energy:  -306.96869527104695

   => Energetics <=

    Nuclear Repulsion Energy =            264.3359197896746764
    One-Electron Energy =                -942.8068834786280377
    Two-Electron Energy =                 371.5022684179062935
    DFT Exchange-Correlation Energy =       0.0000000000000000
    Empirical Dispersion Energy =           0.0000000000000000
    PCM Polarization Energy =               0.0000000000000000
    EFP Energy =                            0.0000000000000000
    Total Energy =                       -306.9686952710470678
    Molecular point group: c1
  Basis Set: 6-31G*
  Basis Set:

  -Total Gradient:
     Atom            X                  Y                   Z
    ------   -----------------  -----------------  -----------------
       1       -0.000004978325    -0.000008603604     0.000001459130
       2        0.000099496801    -0.000323377203     0.000334764519
       3       -0.000199667188     0.000597302641    -0.000716673420
       4        0.000003353629     0.000000153186     0.000004548245
       5       -0.000004600966     0.000013632466     0.000009734287
       6        0.000208096538    -0.000563152364     0.000675908531
       7       -0.000108996249     0.000262837741    -0.000303921509
       8       -0.000000882055     0.000002182911     0.000001586638
       9        0.000000534749     0.000006920349     0.000001960373
      10        0.000034358358     0.000009303731    -0.000016144468
      11        0.000001923807     0.000010455005    -0.000001687044
      12        0.000004653313    -0.000008113501     0.000004067545
      13       -0.000063234294    -0.000000161365     0.000014003779
      14        0.000012379809    -0.000001379630    -0.000009401852
      15        0.000014145883     0.000003664550    -0.000000214269
      16        0.000003416190    -0.000001664910     0.000000009513

  **** Optimization is complete! (in 10 steps) ****
    Final optimized geometry and variables:
    Molecular point group: c1

    Geometry (in Angstrom), charge = 0, multiplicity = 1:

    H           -0.994491431621    -0.625768460179    -1.988058440215
    C           -1.307990059442    -1.093614938720    -1.057417188240
    O           -1.830764382215    -0.168542222756    -0.151512764269
    H           -2.113046115074    -1.779883865014    -1.283180698062
    H           -0.475582999510    -1.647190039386    -0.642856585091
    C           -1.023523190834     0.831235840289     0.410022953719
    C            0.439128457560     0.886331022418     0.009451778562
    H           -1.465428486093     1.790240159313     0.151742847038
    H           -1.067999356955     0.727841048036     1.488605637518
    O            1.133696099171    -0.186982749176     0.567860840311
    H            0.556253128816     0.897579591545    -1.072300131509
    H            0.842127989532     1.827078315889     0.385155121698
    C            2.496265115059    -0.197067809884     0.279075953404
    H            2.676389713848    -0.269283964186    -0.791885097812
    H            2.987608505382     0.699714452061     0.651726361278
    H            2.926849009986    -1.060723949811     0.766266848262

  Mulliken Charges: (a.u.)
   Center  Symbol    Alpha    Beta     Spin     Total
       1     H     0.43469  0.43469  0.00000  0.13061
       2     C     3.08331  3.08331  0.00000 -0.16663
       3     O     4.31650  4.31650  0.00000 -0.63301
       4     H     0.41371  0.41371  0.00000  0.17259
       5     H     0.41327  0.41327  0.00000  0.17346
       6     C     2.97579  2.97579  0.00000  0.04842
       7     C     3.02197  3.02197  0.00000 -0.04394
       8     H     0.42570  0.42570  0.00000  0.14860
       9     H     0.41595  0.41595  0.00000  0.16810
      10     O     4.30198  4.30198  0.00000 -0.60395
      11     H     0.42502  0.42502  0.00000  0.14996
      12     H     0.42413  0.42413  0.00000  0.15173
      13     C     3.08127  3.08127  0.00000 -0.16255
      14     H     0.42887  0.42887  0.00000  0.14227
      15     H     0.42834  0.42834  0.00000  0.14331
      16     H     0.40949  0.40949  0.00000  0.18102

   Total alpha = 25.00000, Total beta = 25.00000, Total charge =  0.00000
