  ==> Input File <==

--------------------------------------------------------------------------
set {
	reference rhf
	basis cc-pvtz
}

set_num_threads( 4 )
memory 2 gb

molecule MOL {
0 1

O	 -2.817697	 1.304178	 0.001046
C	 -2.664672	 0.129869	 0.003507
C	 -3.797908	 -0.860100	 -0.001145
O	 -1.481217	 -0.452708	 0.001092
H	 -4.408836	 -0.679689	 -0.875387
H	 -3.443486	 -1.878443	 -0.002770
H	 -4.412123	 -0.683688	 0.871605
C	 -0.332055	 0.384012	 -0.000250
C	 0.892252	 -0.506059	 -0.000295
H	 -0.360822	 1.020205	 -0.874146
H	 -0.359817	 1.021310	 0.872861
C	 1.524096	 -0.613941	 -1.385032
H	 0.610822	 -1.491527	 0.356523
H	 1.614430	 -0.111184	 0.706951
C	 2.761580	 -1.506780	 -1.409478
H	 0.791128	 -1.000314	 -2.088915
H	 1.792651	 0.378211	 -1.739272
C	 3.393971	 -1.613905	 -2.792813
H	 2.494104	 -2.499012	 -1.057359
H	 3.494819	 -1.121576	 -0.706581
H	 2.695253	 -2.028645	 -3.511582
H	 4.268649	 -2.253550	 -2.775508
H	 3.703427	 -0.640475	 -3.158223

	symmetry c1
}
set optking {
	frozen_dihedral = ("
		13 9 8 10
	")
}

ee = optimize('scf')
oeprop('DIPOLE', 'QUADRUPOLE', 'MULLIKEN_CHARGES')
f=open( 'psi4out.xyz', 'w' )
f.write( "23  " )
f.write( str(ee) + "\n" )
f.write( MOL.save_string_xyz() )
f.close()
--------------------------------------------------------------------------

    Molecular point group: c1
  Charge       = 0
  Multiplicity = 1
  Basis Set: CC-PVTZ
  Basis Set:
  @DF-RHF Final Energy:  -423.13007907548183
    Total Energy =                       -423.1300790754820582
    Molecular point group: c1
  Basis Set: CC-PVTZ
  Basis Set:
  Basis Set: CC-PVTZ
  Basis Set:
  @DF-RHF Final Energy:  -423.13026812549180
    Total Energy =                       -423.1302681254921936
  Basis Set: CC-PVTZ
  Basis Set:
  Basis Set: CC-PVTZ
  Basis Set:
  @DF-RHF Final Energy:  -423.13046326849650
    Total Energy =                       -423.1304632684968965
  Basis Set: CC-PVTZ
  Basis Set:
  Basis Set: CC-PVTZ
  Basis Set:
  @DF-RHF Final Energy:  -423.13058812177746
    Total Energy =                       -423.1305881217771230
  Basis Set: CC-PVTZ
  Basis Set:
  Basis Set: CC-PVTZ
  Basis Set:
  @DF-RHF Final Energy:  -423.13059039629269
    Total Energy =                       -423.1305903962930870
  Basis Set: CC-PVTZ
  Basis Set:
  Basis Set: CC-PVTZ
  Basis Set:
  @DF-RHF Final Energy:  -423.13059141814568
    Total Energy =                       -423.1305914181458547
  Basis Set: CC-PVTZ
  Basis Set:
  Charge       = 0
  Multiplicity = 1
  Basis Set: CC-PVTZ
  Basis Set:

    Orbital Energies (a.u.)
    -----------------------

    Doubly Occupied:

       1A    -20.595442     2A    -20.529224     3A    -11.365970
       4A    -11.280249     5A    -11.230704     6A    -11.222590
       7A    -11.218848     8A    -11.217991     9A    -11.210214
      10A     -1.470289    11A     -1.363249    12A     -1.092972
      13A     -1.041955    14A     -1.003141    15A     -0.931440
      16A     -0.843260    17A     -0.799616    18A     -0.781908
      19A     -0.690690    20A     -0.684564    21A     -0.669228
      22A     -0.645682    23A     -0.609424    24A     -0.584445
      25A     -0.579201    26A     -0.575622    27A     -0.559384
      28A     -0.534985    29A     -0.528703    30A     -0.503747
      31A     -0.500295    32A     -0.473903    33A     -0.471381
      34A     -0.465762    35A     -0.447655    36A     -0.439330

  @DF-RHF Final Energy:  -423.13059148210118

   => Energetics <=

    Nuclear Repulsion Energy =            455.0145568431795482
    One-Electron Energy =               -1477.9641725492579098
    Two-Electron Energy =                 599.8190242239778627
    DFT Exchange-Correlation Energy =       0.0000000000000000
    Empirical Dispersion Energy =           0.0000000000000000
    PCM Polarization Energy =               0.0000000000000000
    EFP Energy =                            0.0000000000000000
    Total Energy =                       -423.1305914821004990
    Molecular point group: c1
  Basis Set: CC-PVTZ
  Basis Set:

  -Total Gradient:
     Atom            X                  Y                   Z
    ------   -----------------  -----------------  -----------------
       1        0.000005595808    -0.000017448332     0.000011423598
       2       -0.000018850506     0.000030401219    -0.000022251572
       3        0.000005126699    -0.000002172354     0.000025590092
       4        0.000018443240    -0.000015899910     0.000013833590
       5        0.000001221953    -0.000002436060    -0.000008398758
       6        0.000000007742     0.000000325994    -0.000000509537
       7       -0.000001072889     0.000002840200    -0.000008669713
       8        0.002538446519     0.003597582341     0.001806706937
       9        0.000499892334     0.000581682525     0.004200737744
      10       -0.002164507322    -0.003031542075    -0.002109586546
      11       -0.000003375941    -0.000004294052    -0.000001886833
      12        0.000016905313     0.000009605439    -0.000007501746
      13       -0.000887632440    -0.001145897354    -0.003893340809
      14       -0.000014649647     0.000000171268    -0.000002683591
      15        0.000003970436    -0.000004872501    -0.000007740794
      16       -0.000001465272    -0.000000133280     0.000002391877
      17        0.000001054517    -0.000002291366    -0.000000391186
      18        0.000003840185     0.000003147672     0.000001507018
      19       -0.000002196031    -0.000000954376    -0.000000595137
      20       -0.000000038477    -0.000000013401     0.000000860025
      21       -0.000000804999    -0.000001398278     0.000000860398
      22       -0.000000760811     0.000001925199     0.000002097866
      23        0.000000849590     0.000001671486    -0.000002452924

  **** Optimization is complete! (in 7 steps) ****
    Final optimized geometry and variables:
    Molecular point group: c1

    Geometry (in Angstrom), charge = 0, multiplicity = 1:

    O           -2.533958526313     1.699883320545     0.617166884737
    C           -2.359358549404     0.528296494661     0.611293818044
    C           -3.475442895897    -0.480883304996     0.575089930814
    O           -1.166692915137    -0.033132037071     0.637353138421
    H           -4.071333735351    -0.303109034389    -0.310072506518
    H           -3.104082674196    -1.493240054218     0.572437288600
    H           -4.110327082079    -0.322403234586     1.436498509127
    C           -0.029429202483     0.828830790988     0.671591671934
    C            1.219983886789    -0.045746698861     0.643246619564
    H           -0.086697987532     1.472100880702    -0.194487740907
    H           -0.086717129923     1.438647298836     1.560342095055
    C            1.827983837836    -0.182439041543    -0.752155020876
    H            0.948207853850    -1.032751745179     0.997653145521
    H            1.960113115786     0.357874268500     1.325099667152
    C            3.040412236425    -1.107129136328    -0.791339711314
    H            1.068720788634    -0.554538603415    -1.435531009609
    H            2.114270289939     0.800402190781    -1.118460350274
    C            3.650450846900    -1.235767589689    -2.183010900700
    H            2.752289600244    -2.091101306593    -0.431738337068
    H            3.794327073163    -0.739674439604    -0.100203440498
    H            2.930307858576    -1.633117478675    -2.890446147857
    H            4.507435749197    -1.899236883032    -2.175947721077
    H            3.981309827201    -0.272252762892    -2.556044776669

  Mulliken Charges: (a.u.)
   Center  Symbol    Alpha    Beta     Spin     Total
       1     O     4.20297  4.20297  0.00000 -0.40593
       2     C     2.81281  2.81281  0.00000  0.37439
       3     C     3.13915  3.13915  0.00000 -0.27829
       4     O     4.14942  4.14942  0.00000 -0.29884
       5     H     0.44219  0.44219  0.00000  0.11562
       6     H     0.44242  0.44242  0.00000  0.11515
       7     H     0.44196  0.44196  0.00000  0.11609
       8     C     2.98576  2.98576  0.00000  0.02848
       9     C     3.08978  3.08978  0.00000 -0.17956
      10     H     0.45332  0.45332  0.00000  0.09337
      11     H     0.44634  0.44634  0.00000  0.10732
      12     C     3.09070  3.09070  0.00000 -0.18140
      13     H     0.44845  0.44845  0.00000  0.10311
      14     H     0.44802  0.44802  0.00000  0.10395
      15     C     3.08652  3.08652  0.00000 -0.17304
      16     H     0.45165  0.45165  0.00000  0.09671
      17     H     0.45383  0.45383  0.00000  0.09234
      18     C     3.14959  3.14959  0.00000 -0.29918
      19     H     0.45341  0.45341  0.00000  0.09318
      20     H     0.45447  0.45447  0.00000  0.09106
      21     H     0.45467  0.45467  0.00000  0.09067
      22     H     0.44789  0.44789  0.00000  0.10422
      23     H     0.45470  0.45470  0.00000  0.09061

   Total alpha = 36.00000, Total beta = 36.00000, Total charge = -0.00000
