                              Psi4 1.0.54 Driver

  ==> Input File <==

--------------------------------------------------------------------------
set {
	reference rhf
	basis cc-pvtz
}

set_num_threads( 4 )
memory 2 gb

molecule MOL {
0 1

H	 -2.055292	 -0.814413	 -1.217866
O	 -2.321472	 -0.864941	 -0.318626
C	 -2.021813	 0.336996	 0.342658
C	 -0.669613	 0.837286	 -0.127252
H	 -2.780861	 1.084746	 0.127159
H	 -2.006390	 0.184138	 1.420053
C	 0.490865	 -0.082543	 0.241244
H	 -0.708709	 0.967192	 -1.204587
H	 -0.507562	 1.822272	 0.303070
C	 1.839800	 0.429565	 -0.255472
H	 0.305636	 -1.070211	 -0.165276
H	 0.527397	 -0.195943	 1.322876
C	 3.001144	 -0.485193	 0.119072
H	 1.804373	 0.541073	 -1.335756
H	 2.020437	 1.423114	 0.146921
H	 2.866892	 -1.477297	 -0.298806
H	 3.943543	 -0.095749	 -0.249061
H	 3.085064	 -0.590459	 1.195790

	symmetry c1
}
set optking {
	frozen_dihedral = ("
		1 2 3 4
	")
}

ee,wfn = optimize('scf', return_wfn=True)
oeprop( wfn, 'DIPOLE', 'QUADRUPOLE', 'MULLIKEN_CHARGES')
f=open( 'psi4out.xyz', 'w' )
f.write( "18  " )
f.write( str(ee) + "\n" )
f.write( MOL.save_string_xyz() )
f.close()
--------------------------------------------------------------------------

    Molecular point group: c1
  Charge       = 0
  Multiplicity = 1
  Basis Set: CC-PVTZ
  Basis Set:
  @DF-RHF Final Energy:  -271.28398072195677
    Total Energy =                       -271.2839807219569934
    Molecular point group: c1
  Basis Set: CC-PVTZ
  Basis Set:
  Basis Set: CC-PVTZ
  Basis Set:
  @DF-RHF Final Energy:  -271.28538879447490
    Total Energy =                       -271.2853887944752955
  Basis Set: CC-PVTZ
  Basis Set:
  Basis Set: CC-PVTZ
  Basis Set:
  @DF-RHF Final Energy:  -271.28577423769241
    Total Energy =                       -271.2857742376927490
  Basis Set: CC-PVTZ
  Basis Set:
  Basis Set: CC-PVTZ
  Basis Set:
  @DF-RHF Final Energy:  -271.28577792395589
    Total Energy =                       -271.2857779239558909
  Basis Set: CC-PVTZ
  Basis Set:
  Charge       = 0
  Multiplicity = 1
  Basis Set: CC-PVTZ
  Basis Set:

    Orbital Energies (a.u.)
    -----------------------

    Doubly Occupied:

       1A    -20.545265     2A    -11.265356     3A    -11.219370
       4A    -11.215943     5A    -11.213546     6A    -11.208019
       7A     -1.363430     8A     -1.082775     9A     -1.013473
      10A     -0.919844    11A     -0.833498    12A     -0.796069
      13A     -0.671704    14A     -0.655374    15A     -0.628400
      16A     -0.612055    17A     -0.576350    18A     -0.555490
      19A     -0.542256    20A     -0.496122    21A     -0.488050
      22A     -0.481708    23A     -0.467043    24A     -0.460244
      25A     -0.426897

  @DF-RHF Final Energy:  -271.28577847467409

   => Energetics <=

    Nuclear Repulsion Energy =            249.1199153898148779
    One-Electron Energy =                -861.3348242995687087
    Two-Electron Energy =                 340.9291304350797418
    DFT Exchange-Correlation Energy =       0.0000000000000000
    Empirical Dispersion Energy =           0.0000000000000000
    PCM Polarization Energy =               0.0000000000000000
    EFP Energy =                            0.0000000000000000
    Total Energy =                       -271.2857784746740890
    Molecular point group: c1
  Basis Set: CC-PVTZ
  Basis Set:

  -Total Gradient:
     Atom            X                  Y                   Z
    ------   -----------------  -----------------  -----------------
       1        0.001747314803    -0.000796260264     0.000486434042
       2       -0.002405162595     0.001256147888    -0.001039796200
       3        0.001204443697    -0.001097968600     0.001502642164
       4       -0.000593020590     0.000593475507    -0.000968469449
       5       -0.000002575049    -0.000010766366    -0.000025369464
       6        0.000009331951     0.000008680384     0.000015764110
       7        0.000019557751     0.000016165636    -0.000006739578
       8       -0.000002186311    -0.000008856040     0.000013858306
       9        0.000030831769     0.000015566762     0.000001530703
      10        0.000008717828     0.000006146337     0.000021582292
      11       -0.000016399032     0.000023240383    -0.000005747384
      12        0.000004639210    -0.000003727757     0.000003198776
      13       -0.000001182000     0.000000771070    -0.000001383288
      14       -0.000007677598    -0.000005404641     0.000006200503
      15        0.000003684158     0.000004741621    -0.000000839388
      16       -0.000001059321    -0.000002892399    -0.000000085240
      17        0.000000586196    -0.000000603025    -0.000002210943
      18        0.000000155128     0.000001543501    -0.000000569964

  **** Optimization is complete! (in 5 steps) ****
    Final optimized geometry and variables:
    Molecular point group: c1

    Geometry (in Angstrom), charge = 0, multiplicity = 1:

    H           -2.164780030449    -0.859203172241    -1.182369106313
    O           -2.413582748922    -0.855731109878    -0.276049799594
    C           -2.023364214575     0.351343079539     0.324635371481
    C           -0.656037432079     0.841450669287    -0.126115752036
    H           -2.764857779047     1.120249704646     0.122522104555
    H           -2.025787228698     0.172628546860     1.392669554753
    C            0.495830049655    -0.088442887498     0.246246211768
    H           -0.674331892141     0.992740514391    -1.204875556455
    H           -0.489428152010     1.822292440986     0.311203745269
    C            1.853711639979     0.412272701494    -0.237727694122
    H            0.310205073258    -1.077737304579    -0.159205711776
    H            0.520253804657    -0.205230883943     1.326989583366
    C            3.003332169866    -0.513692804315     0.144967639107
    H            1.829788576132     0.527851761063    -1.318166332956
    H            2.038718179165     1.402878712729     0.169158366448
    H            2.863955701283    -1.504159437763    -0.275142809869
    H            3.951884679984    -0.132069359470    -0.214948563904
    H            3.077113158128    -0.620892543302     1.222002897990

  Mulliken Charges: (a.u.)
   Center  Symbol    Alpha    Beta     Spin     Total
       1     H     0.39423  0.39423  0.00000  0.21154
       2     O     4.20541  4.20541  0.00000 -0.41082
       3     C     2.96624  2.96624  0.00000  0.06753
       4     C     3.11102  3.11102  0.00000 -0.22205
       5     H     0.46325  0.46325  0.00000  0.07351
       6     H     0.46246  0.46246  0.00000  0.07508
       7     C     3.08382  3.08382  0.00000 -0.16763
       8     H     0.45764  0.45764  0.00000  0.08472
       9     H     0.45065  0.45065  0.00000  0.09870
      10     C     3.08378  3.08378  0.00000 -0.16757
      11     H     0.44958  0.44958  0.00000  0.10085
      12     H     0.45412  0.45412  0.00000  0.09176
      13     C     3.14950  3.14950  0.00000 -0.29900
      14     H     0.45534  0.45534  0.00000  0.08932
      15     H     0.45524  0.45524  0.00000  0.08953
      16     H     0.45468  0.45468  0.00000  0.09065
      17     H     0.44848  0.44848  0.00000  0.10304
      18     H     0.45458  0.45458  0.00000  0.09083

   Total alpha = 25.00000, Total beta = 25.00000, Total charge = -0.00000

*** Psi4 exiting successfully. Buy a developer a beer!
