  ==> Input File <==

--------------------------------------------------------------------------
set {
	reference rhf
	basis 6-31G*
}

set_num_threads( 4 )
memory 2 gb

molecule MOL {
0 1

H	 2.618453	 -1.539848	 0.970078
O	 2.826016	 -1.159218	 0.122261
C	 2.077727	 -0.067559	 -0.035091
C	 0.624473	 -0.343591	 0.253101
O	 2.542965	 0.974826	 -0.363729
C	 -0.265902	 0.883932	 0.072916
H	 0.324016	 -1.163849	 -0.390541
H	 0.565024	 -0.726111	 1.268924
C	 -1.728698	 0.646073	 0.462102
H	 -0.209144	 1.219470	 -0.958188
H	 0.135059	 1.692851	 0.673903
C	 -2.482460	 -0.343073	 -0.431425
H	 -2.245265	 1.602650	 0.432430
H	 -1.779332	 0.308348	 1.496285
C	 -3.960546	 -0.461025	 -0.060175
H	 -2.395034	 -0.026811	 -1.468912
H	 -2.024850	 -1.327147	 -0.371646
H	 -4.472726	 -1.168004	 -0.705284
H	 -4.465146	 0.496508	 -0.151489
H	 -4.081218	 -0.800940	 0.964585

	symmetry c1
}
set optking {
	frozen_dihedral = ("
		1 2 3 5
	")
}

ee = optimize('scf')
oeprop('DIPOLE', 'QUADRUPOLE', 'MULLIKEN_CHARGES')
f=open( 'psi4out.xyz', 'w' )
f.write( "20  " )
f.write( str(ee) + "\n" )
f.write( MOL.save_string_xyz() )
f.close()
--------------------------------------------------------------------------

    Molecular point group: c1
  Charge       = 0
  Multiplicity = 1
  Basis Set: 6-31G*
  Basis Set:
  @DF-RHF Final Energy:  -383.92921193666393
    Total Energy =                       -383.9292119366638190
    Molecular point group: c1
  Basis Set: 6-31G*
  Basis Set:
  Basis Set: 6-31G*
  Basis Set:
  @DF-RHF Final Energy:  -383.93065441837746
    Total Energy =                       -383.9306544183774577
  Basis Set: 6-31G*
  Basis Set:
  Basis Set: 6-31G*
  Basis Set:
  @DF-RHF Final Energy:  -383.93078583574447
    Total Energy =                       -383.9307858357443024
  Basis Set: 6-31G*
  Basis Set:
  Basis Set: 6-31G*
  Basis Set:
  @DF-RHF Final Energy:  -383.93078992805880
    Total Energy =                       -383.9307899280585730
  Basis Set: 6-31G*
  Basis Set:
  Basis Set: 6-31G*
  Basis Set:
  @DF-RHF Final Energy:  -383.93077954755768
    Total Energy =                       -383.9307795475577336
  Basis Set: 6-31G*
  Basis Set:
  Basis Set: 6-31G*
  Basis Set:
  @DF-RHF Final Energy:  -383.93079427610166
    Total Energy =                       -383.9307942761014942
  Basis Set: 6-31G*
  Basis Set:
  Charge       = 0
  Multiplicity = 1
  Basis Set: 6-31G*
  Basis Set:

    Orbital Energies (a.u.)
    -----------------------

    Doubly Occupied:

       1A    -20.601724     2A    -20.556245     3A    -11.380881
       4A    -11.248192     5A    -11.227186     6A    -11.224514
       7A    -11.223746     8A    -11.215349     9A     -1.462657
      10A     -1.369468    11A     -1.099698    12A     -1.042618
      13A     -0.959827    14A     -0.865625    15A     -0.823344
      16A     -0.789829    17A     -0.717577    18A     -0.670689
      19A     -0.659129    20A     -0.636374    21A     -0.618481
      22A     -0.592990    23A     -0.563409    24A     -0.551281
      25A     -0.547820    26A     -0.512426    27A     -0.501296
      28A     -0.485343    29A     -0.472820    30A     -0.469367
      31A     -0.461541    32A     -0.441779

  @DF-RHF Final Energy:  -383.93079439142639

   => Energetics <=

    Nuclear Repulsion Energy =            375.4619958357322957
    One-Electron Energy =               -1266.7991316933610051
    Two-Electron Energy =                 507.4063414662024343
    DFT Exchange-Correlation Energy =       0.0000000000000000
    Empirical Dispersion Energy =           0.0000000000000000
    PCM Polarization Energy =               0.0000000000000000
    EFP Energy =                            0.0000000000000000
    Total Energy =                       -383.9307943914262751
    Molecular point group: c1
  Basis Set: 6-31G*
  Basis Set:

  -Total Gradient:
     Atom            X                  Y                   Z
    ------   -----------------  -----------------  -----------------
       1        0.004720631969     0.004042687944     0.002648298173
       2       -0.005522280964    -0.004382041858    -0.000777316049
       3       -0.000131327383    -0.001295842606    -0.007620504629
       4        0.000015989109    -0.000003452748     0.000048820477
       5        0.000909441006     0.001627297896     0.005684215922
       6       -0.000010766632     0.000010778298     0.000002389153
       7       -0.000002069929     0.000002157147     0.000009713259
       8        0.000011162109     0.000008966377     0.000008073771
       9       -0.000000079844    -0.000001204758    -0.000007506066
      10        0.000000751071     0.000003670559    -0.000006800347
      11        0.000002220766    -0.000007168021     0.000000018727
      12        0.000005712813    -0.000007412517     0.000010527163
      13       -0.000002492755    -0.000001879302     0.000001013289
      14        0.000003512437    -0.000002390247     0.000000387051
      15       -0.000002606016     0.000007249132    -0.000004235087
      16        0.000005973033    -0.000001884977     0.000004322725
      17       -0.000000816517    -0.000001881910    -0.000000254198
      18       -0.000001227128     0.000002503999    -0.000001774984
      19       -0.000002697778     0.000001138121     0.000002428137
      20        0.000000970634    -0.000001290526    -0.000001816487

  **** Optimization is complete! (in 7 steps) ****
    Final optimized geometry and variables:
    Molecular point group: c1

    Geometry (in Angstrom), charge = 0, multiplicity = 1:

    H            2.764930992244    -1.540964242082     0.983837980277
    O            2.896829086039    -1.139551883938     0.134504719731
    C            2.086364831942    -0.072314625265    -0.046072230414
    C            0.626856972156    -0.340224093023     0.251426530046
    O            2.522378056196     0.959513081646    -0.416294827169
    C           -0.263263708732     0.888194554341     0.075572897806
    H            0.320642535702    -1.158991263510    -0.392440911200
    H            0.553049493539    -0.720782688337     1.270094824991
    C           -1.727286203242     0.651899231700     0.460891131926
    H           -0.201881552583     1.225184009303    -0.954267409284
    H            0.138675913122     1.694658918593     0.679328934154
    C           -2.481827078307    -0.331533247241    -0.438305547724
    H           -2.241007801611     1.609933842062     0.433655511833
    H           -1.781949352092     0.310879433304     1.494016034406
    C           -3.961716249242    -0.444418166303    -0.072783859074
    H           -2.389074712275    -0.012555861520    -1.474329496682
    H           -2.028670970327    -1.317941896041    -0.380244703889
    H           -4.474316007843    -1.147210760624    -0.721999476916
    H           -4.461832268105     0.515469384097    -0.163215691046
    H           -4.087880135720    -0.786816907155     0.950528145080

  Mulliken Charges: (a.u.)
   Center  Symbol    Alpha    Beta     Spin     Total
       1     H     0.26926  0.26926  0.00000  0.46147
       2     O     4.36164  4.36164  0.00000 -0.72328
       3     C     2.61791  2.61791  0.00000  0.76418
       4     C     3.22429  3.22429  0.00000 -0.44857
       5     O     4.25146  4.25146  0.00000 -0.50293
       6     C     3.15329  3.15329  0.00000 -0.30658
       7     H     0.39541  0.39541  0.00000  0.20918
       8     H     0.41414  0.41414  0.00000  0.17172
       9     C     3.15597  3.15597  0.00000 -0.31194
      10     H     0.40899  0.40899  0.00000  0.18202
      11     H     0.40823  0.40823  0.00000  0.18354
      12     C     3.15481  3.15481  0.00000 -0.30961
      13     H     0.41674  0.41674  0.00000  0.16651
      14     H     0.42487  0.42487  0.00000  0.15026
      15     C     3.23931  3.23931  0.00000 -0.47862
      16     H     0.42019  0.42019  0.00000  0.15962
      17     H     0.42401  0.42401  0.00000  0.15198
      18     H     0.41778  0.41778  0.00000  0.16445
      19     H     0.42001  0.42001  0.00000  0.15998
      20     H     0.42169  0.42169  0.00000  0.15663

   Total alpha = 32.00000, Total beta = 32.00000, Total charge = -0.00000
