  ==> Input File <==

--------------------------------------------------------------------------
set {
	reference rhf
	basis 6-31G*
}

set_num_threads( 1 )
memory 2 gb

molecule MOL {
0 1

H	 -2.172150	 0.880146	 0.502514
C	 -2.018062	 -0.000025	 -0.114509
O	 -0.774054	 0.001095	 -0.743181
H	 -2.760490	 0.003458	 -0.901350
H	 -2.173624	 -0.884374	 0.496163
C	 -0.439573	 -1.044834	 -1.637992
C	 0.968138	 -0.682948	 -2.106393
C	 -0.419919	 -2.399258	 -0.922213
C	 -1.396338	 -1.076228	 -2.834123
H	 1.642399	 -0.633663	 -1.258823
H	 0.962895	 0.287775	 -2.589139
H	 1.347333	 -1.417820	 -2.809128
H	 0.203787	 -2.346557	 -0.036074
H	 -0.017799	 -3.165051	 -1.577545
H	 -1.412389	 -2.718105	 -0.622387
H	 -1.458265	 -0.094308	 -3.291342
H	 -1.041255	 -1.778653	 -3.581150
H	 -2.396894	 -1.383992	 -2.549869

	symmetry c1
}
set optking {
	frozen_dihedral = ("
		2 3 6 7
	")
}

ee = energy('scf')
oeprop('DIPOLE', 'QUADRUPOLE', 'MULLIKEN_CHARGES')
f=open( 'psi4out.xyz', 'w' )
f.write( "18  " )
f.write( str(ee) + "\n" )
f.write( MOL.save_string_xyz() )
f.close()
--------------------------------------------------------------------------

    Molecular point group: c1

    Geometry (in Angstrom), charge = 0, multiplicity = 1:

       Center              X                  Y                   Z               Mass
    ------------   -----------------  -----------------  -----------------  -----------------
           H         -1.475137375046     1.740378212131     1.883285941220     1.007825032070
           C         -1.321049375046     0.860207212131     1.266262941220    12.000000000000
           O         -0.077041375046     0.861327212131     0.637590941220    15.994914619560
           H         -2.063477375046     0.863690212131     0.479421941220     1.007825032070
           H         -1.476611375046    -0.024141787869     1.876934941220     1.007825032070
           C          0.257439624954    -0.184601787869    -0.257220058780    12.000000000000
           C          1.665150624954     0.177284212131    -0.725621058780    12.000000000000
           C          0.277093624954    -1.539025787869     0.458558941220    12.000000000000
           C         -0.699325375046    -0.215995787869    -1.453351058780    12.000000000000
           H          2.339411624954     0.226569212131     0.121948941220     1.007825032070
           H          1.659907624954     1.148007212131    -1.208367058780     1.007825032070
           H          2.044345624954    -0.557587787869    -1.428356058780     1.007825032070
           H          0.900799624954    -1.486324787869     1.344697941220     1.007825032070
           H          0.679213624954    -2.304818787869    -0.196773058780     1.007825032070
           H         -0.715376375046    -1.857872787869     0.758384941220     1.007825032070
           H         -0.761252375046     0.765924212131    -1.910570058780     1.007825032070
           H         -0.344242375046    -0.918420787869    -2.200378058780     1.007825032070
           H         -1.699881375046    -0.523759787869    -1.169097058780     1.007825032070

  Charge       = 0
  Multiplicity = 1
  Basis Set: 6-31G*
  Basis Set:

    Orbital Energies (a.u.)
    -----------------------

    Doubly Occupied:

       1A    -20.544882     2A    -11.282268     3A    -11.260681
       4A    -11.208910     5A    -11.208751     6A    -11.203366
       7A     -1.369413     8A     -1.072830     9A     -0.946315
      10A     -0.940095    11A     -0.911808    12A     -0.752035
      13A     -0.653840    14A     -0.645510    15A     -0.639384
      16A     -0.593748    17A     -0.576404    18A     -0.549948
      19A     -0.533398    20A     -0.525092    21A     -0.514702
      22A     -0.489136    23A     -0.486297    24A     -0.436643
      25A     -0.402796

  @DF-RHF Final Energy:  -271.17276182349480

   => Energetics <=

    Nuclear Repulsion Energy =            272.4471796059498843
    One-Electron Energy =                -907.7429215643589941
    Two-Electron Energy =                 364.1229801349144282
    DFT Exchange-Correlation Energy =       0.0000000000000000
    Empirical Dispersion Energy =           0.0000000000000000
    PCM Polarization Energy =               0.0000000000000000
    EFP Energy =                            0.0000000000000000
    Total Energy =                       -271.1727618234946249

  Mulliken Charges: (a.u.)
   Center  Symbol    Alpha    Beta     Spin     Total
       1     H     0.41226  0.41226  0.00000  0.17548
       2     C     3.07908  3.07908  0.00000 -0.15816
       3     O     4.32006  4.32006  0.00000 -0.64011
       4     H     0.42990  0.42990  0.00000  0.14020
       5     H     0.42978  0.42978  0.00000  0.14043
       6     C     2.84184  2.84184  0.00000  0.31632
       7     C     3.23274  3.23274  0.00000 -0.46548
       8     C     3.24739  3.24739  0.00000 -0.49479
       9     C     3.24899  3.24899  0.00000 -0.49797
      10     H     0.41388  0.41388  0.00000  0.17224
      11     H     0.41403  0.41403  0.00000  0.17194
      12     H     0.42519  0.42519  0.00000  0.14962
      13     H     0.41309  0.41309  0.00000  0.17382
      14     H     0.41967  0.41967  0.00000  0.16066
      15     H     0.42019  0.42019  0.00000  0.15961
      16     H     0.41307  0.41307  0.00000  0.17387
      17     H     0.41911  0.41911  0.00000  0.16178
      18     H     0.41973  0.41973  0.00000  0.16054

   Total alpha = 25.00000, Total beta = 25.00000, Total charge =  0.00000
