                              Psi4 1.0.54 Driver

  ==> Input File <==

--------------------------------------------------------------------------
set {
	reference rhf
	basis cc-pvtz
}

set_num_threads( 4 )
memory 2 gb

molecule MOL {
0 1

O	 1.215499	 1.305749	 0.034893
C	 1.120003	 0.127693	 0.099125
C	 -0.172673	 -0.647192	 0.096378
O	 2.164384	 -0.680081	 0.183663
C	 -1.413045	 0.229353	 0.001137
H	 -0.123613	 -1.349847	 -0.729061
H	 -0.186486	 -1.251189	 0.997743
C	 -2.702562	 -0.586401	 0.000228
H	 -1.358298	 0.830751	 -0.899343
H	 -1.421644	 0.929034	 0.829338
C	 -3.953810	 0.284959	 -0.000782
H	 -2.717793	 -1.238567	 -0.869075
H	 -2.719108	 -1.238472	 0.869576
H	 -3.983727	 0.924403	 -0.876454
H	 -4.852989	 -0.320147	 -0.001515
H	 -3.985140	 0.924399	 0.874841
C	 3.445992	 -0.084563	 0.196276
H	 3.614949	 0.476040	 -0.711141
H	 4.150896	 -0.896815	 0.268565
H	 3.550928	 0.576650	 1.043630

	symmetry c1
}
set optking {
	frozen_dihedral = ("
		9 5 8 12
	")
}

ee,wfn = optimize('scf', return_wfn=True)
oeprop( wfn, 'DIPOLE', 'QUADRUPOLE', 'MULLIKEN_CHARGES')
f=open( 'psi4out.xyz', 'w' )
f.write( "20  " )
f.write( str(ee) + "\n" )
f.write( MOL.save_string_xyz() )
f.close()
--------------------------------------------------------------------------

    Molecular point group: c1
  Charge       = 0
  Multiplicity = 1
  Basis Set: CC-PVTZ
  Basis Set:
  @DF-RHF Final Energy:  -384.08321937282051
    Total Energy =                       -384.0832193728205084
    Molecular point group: c1
  Basis Set: CC-PVTZ
  Basis Set:
  Basis Set: CC-PVTZ
  Basis Set:
  @DF-RHF Final Energy:  -384.08322672559808
    Total Energy =                       -384.0832267255977968
  Basis Set: CC-PVTZ
  Basis Set:
  Basis Set: CC-PVTZ
  Basis Set:
  @DF-RHF Final Energy:  -384.08320878236464
    Total Energy =                       -384.0832087823644088
  Basis Set: CC-PVTZ
  Basis Set:
  Basis Set: CC-PVTZ
  Basis Set:
  @DF-RHF Final Energy:  -384.08322926238020
    Total Energy =                       -384.0832292623799731
  Basis Set: CC-PVTZ
  Basis Set:
  Charge       = 0
  Multiplicity = 1
  Basis Set: CC-PVTZ
  Basis Set:

    Orbital Energies (a.u.)
    -----------------------

    Doubly Occupied:

       1A    -20.596409     2A    -20.534233     3A    -11.364687
       4A    -11.278555     5A    -11.233909     6A    -11.218463
       7A    -11.217340     8A    -11.208710     9A     -1.472318
      10A     -1.365895    11A     -1.090001    12A     -1.025499
      13A     -0.969942    14A     -0.886348    15A     -0.804531
      16A     -0.769544    17A     -0.699090    18A     -0.686911
      19A     -0.675872    20A     -0.647292    21A     -0.598965
      22A     -0.592674    23A     -0.580119    24A     -0.540699
      25A     -0.538239    26A     -0.524140    27A     -0.501383
      28A     -0.478589    29A     -0.474958    30A     -0.471979
      31A     -0.459396    32A     -0.440149

  @DF-RHF Final Energy:  -384.08322959501186

   => Energetics <=

    Nuclear Repulsion Energy =            381.7296689031612686
    One-Electron Energy =               -1279.7321170206218994
    Two-Electron Energy =                 513.9192185224485456
    DFT Exchange-Correlation Energy =       0.0000000000000000
    Empirical Dispersion Energy =           0.0000000000000000
    PCM Polarization Energy =               0.0000000000000000
    EFP Energy =                            0.0000000000000000
    Total Energy =                       -384.0832295950120852
    Molecular point group: c1
  Basis Set: CC-PVTZ
  Basis Set:

  -Total Gradient:
     Atom            X                  Y                   Z
    ------   -----------------  -----------------  -----------------
       1        0.000002591226    -0.000003538532     0.000005826639
       2        0.000004361611     0.000005180583    -0.000010256609
       3       -0.000007992861     0.000003727045     0.000003623626
       4       -0.000001504984    -0.000009774239     0.000002034319
       5       -0.000535911457     0.000836088203     0.000344573295
       6        0.000001317173    -0.000000323963     0.000001659251
       7        0.000005118199    -0.000002601134     0.000001971582
       8        0.000515834370    -0.000812942105     0.000416657098
       9        0.000363281638    -0.000571886998    -0.000365163766
      10       -0.000000184639    -0.000000515557     0.000003233192
      11        0.000013446537    -0.000004596846     0.000004622405
      12       -0.000341594099     0.000551104985    -0.000410751751
      13       -0.000002702625    -0.000000524911     0.000002717557
      14       -0.000001154689    -0.000001530967     0.000000894449
      15        0.000000784844     0.000001994659    -0.000000370844
      16       -0.000004510152     0.000002787960    -0.000000960175
      17        0.000000579376     0.000013348689    -0.000000642182
      18       -0.000002532767    -0.000002481879     0.000001307318
      19       -0.000007142068    -0.000001199421    -0.000000038115
      20       -0.000002084632    -0.000002315571    -0.000000937288

  **** Optimization is complete! (in 5 steps) ****
    Final optimized geometry and variables:
    Molecular point group: c1

    Geometry (in Angstrom), charge = 0, multiplicity = 1:

    O            1.216936255849     1.303868642072    -0.044288341804
    C            1.121420612079     0.125908753470     0.021589436039
    C           -0.171465166080    -0.648628389332     0.025885798821
    O            2.165957181203    -0.682093619705     0.102252196256
    C           -1.412353687242     0.228345894093    -0.063612635044
    H           -0.126906293271    -1.351719036662    -0.799510750596
    H           -0.180675767890    -1.252249967923     0.927509589910
    C           -2.700728182482    -0.589438544091    -0.071546804315
    H           -1.355778114642     0.831131170318    -0.962943517045
    H           -1.420817369414     0.923402749278     0.768325311593
    C           -3.952531758883     0.281577978164    -0.085636971024
    H           -2.709811825362    -1.239252145926    -0.942600157335
    H           -2.725140144242    -1.240366783661     0.798286445912
    H           -3.970837234704     0.924784330279    -0.958920322810
    H           -4.851354957693    -0.323872320895    -0.101439975576
    H           -3.996223883819     0.917276195446     0.792143429190
    C            3.447716182792    -0.086924802277     0.108379673558
    H            3.612750563010     0.472546414413    -0.800456553822
    H            4.152722352204    -0.899279477871     0.178468052131
    H            3.556655938070     0.575277515496     0.954457353303

  Mulliken Charges: (a.u.)
   Center  Symbol    Alpha    Beta     Spin     Total
       1     O     4.19685  4.19685  0.00000 -0.39370
       2     C     2.80658  2.80658  0.00000  0.38684
       3     C     3.10032  3.10032  0.00000 -0.20063
       4     O     4.14655  4.14655  0.00000 -0.29309
       5     C     3.08113  3.08113  0.00000 -0.16226
       6     H     0.44029  0.44029  0.00000  0.11942
       7     H     0.44027  0.44027  0.00000  0.11947
       8     C     3.08697  3.08697  0.00000 -0.17393
       9     H     0.44652  0.44652  0.00000  0.10696
      10     H     0.44702  0.44702  0.00000  0.10597
      11     C     3.14922  3.14922  0.00000 -0.29843
      12     H     0.45484  0.45484  0.00000  0.09032
      13     H     0.45551  0.45551  0.00000  0.08897
      14     H     0.45379  0.45379  0.00000  0.09241
      15     H     0.44842  0.44842  0.00000  0.10316
      16     H     0.45399  0.45399  0.00000  0.09202
      17     C     3.03771  3.03771  0.00000 -0.07541
      18     H     0.45435  0.45435  0.00000  0.09131
      19     H     0.44535  0.44535  0.00000  0.10931
      20     H     0.45435  0.45435  0.00000  0.09130

   Total alpha = 32.00000, Total beta = 32.00000, Total charge = -0.00000

*** Psi4 exiting successfully. Buy a developer a beer!
