                              Psi4 1.0.54 Driver

  ==> Input File <==

--------------------------------------------------------------------------
set {
	reference rhf
	basis cc-pvtz
}

set_num_threads( 4 )
memory 2 gb

molecule MOL {
0 1

H	 -3.436473	 1.252944	 -1.023892
O	 -3.458596	 0.315260	 -0.960865
C	 -3.176635	 -0.080824	 0.355601
C	 -1.763371	 0.265266	 0.799691
H	 -3.321825	 -1.153438	 0.379502
H	 -3.895468	 0.357385	 1.043382
C	 -0.673390	 -0.426948	 -0.013392
H	 -1.631049	 1.344913	 0.747560
H	 -1.664587	 -0.001624	 1.849167
C	 0.737842	 -0.043159	 0.423759
H	 -0.806103	 -0.190518	 -1.063345
H	 -0.797221	 -1.503753	 0.074146
C	 1.689034	 -1.237008	 0.478591
H	 1.125198	 0.708605	 -0.257192
H	 0.697070	 0.425797	 1.404715
C	 3.095089	 -0.916972	 0.988917
H	 1.760786	 -1.683765	 -0.510404
H	 1.254523	 -1.997099	 1.122083
C	 3.912448	 -0.004216	 0.077904
H	 3.633700	 -1.850774	 1.118097
H	 3.024594	 -0.469793	 1.977088
H	 3.994889	 -0.423215	 -0.919954
H	 4.916935	 0.125179	 0.464563
H	 3.470124	 0.980544	 -0.012654

	symmetry c1
}
set optking {
	frozen_dihedral = ("
		13 10 7 11
	")
}

ee,wfn = optimize('scf', return_wfn=True)
oeprop( wfn, 'DIPOLE', 'QUADRUPOLE', 'MULLIKEN_CHARGES')
f=open( 'psi4out.xyz', 'w' )
f.write( "24  " )
f.write( str(ee) + "\n" )
f.write( MOL.save_string_xyz() )
f.close()
--------------------------------------------------------------------------

    Molecular point group: c1
  Charge       = 0
  Multiplicity = 1
  Basis Set: CC-PVTZ
  Basis Set:
  @DF-RHF Final Energy:  -349.37590083707130
    Total Energy =                       -349.3759008370712991
    Molecular point group: c1
  Basis Set: CC-PVTZ
  Basis Set:
  Basis Set: CC-PVTZ
  Basis Set:
  @DF-RHF Final Energy:  -349.37616250140206
    Total Energy =                       -349.3761625014020638
  Basis Set: CC-PVTZ
  Basis Set:
  Basis Set: CC-PVTZ
  Basis Set:
  @DF-RHF Final Energy:  -349.37623541014659
    Total Energy =                       -349.3762354101462506
  Basis Set: CC-PVTZ
  Basis Set:
  Basis Set: CC-PVTZ
  Basis Set:
  @DF-RHF Final Energy:  -349.37622630634598
    Total Energy =                       -349.3762263063464388
  Basis Set: CC-PVTZ
  Basis Set:
  Basis Set: CC-PVTZ
  Basis Set:
  @DF-RHF Final Energy:  -349.37624700333004
    Total Energy =                       -349.3762470033299223
  Basis Set: CC-PVTZ
  Basis Set:
  Charge       = 0
  Multiplicity = 1
  Basis Set: CC-PVTZ
  Basis Set:

    Orbital Energies (a.u.)
    -----------------------

    Doubly Occupied:

       1A    -20.546324     2A    -11.265292     3A    -11.215337
       4A    -11.212160     5A    -11.210465     6A    -11.209719
       7A    -11.208680     8A    -11.205231     9A     -1.364122
      10A     -1.088605    11A     -1.049140    12A     -0.985761
      13A     -0.915917    14A     -0.851511    15A     -0.801796
      16A     -0.777328    17A     -0.681838    18A     -0.653466
      19A     -0.625085    20A     -0.621724    21A     -0.596702
      22A     -0.577519    23A     -0.572519    24A     -0.531275
      25A     -0.523868    26A     -0.513927    27A     -0.492685
      28A     -0.479303    29A     -0.466759    30A     -0.461162
      31A     -0.454304    32A     -0.446267    33A     -0.421606

  @DF-RHF Final Energy:  -349.37624703654450

   => Energetics <=

    Nuclear Repulsion Energy =            384.3029789221405395
    One-Electron Energy =               -1235.3036639606980316
    Two-Electron Energy =                 501.6244380020128233
    DFT Exchange-Correlation Energy =       0.0000000000000000
    Empirical Dispersion Energy =           0.0000000000000000
    PCM Polarization Energy =               0.0000000000000000
    EFP Energy =                            0.0000000000000000
    Total Energy =                       -349.3762470365447257
    Molecular point group: c1
  Basis Set: CC-PVTZ
  Basis Set:

  -Total Gradient:
     Atom            X                  Y                   Z
    ------   -----------------  -----------------  -----------------
       1        0.000001928100     0.000003053915    -0.000000111370
       2       -0.000002550594    -0.000000322366    -0.000000495206
       3       -0.000000970495    -0.000012656610     0.000007445473
       4        0.000015876005     0.000007223998    -0.000007399128
       5       -0.000002659161    -0.000002071035    -0.000003571872
       6        0.000002408997     0.000000418558     0.000000657518
       7        0.001321857242    -0.004359639680    -0.000249226741
       8        0.000002564010     0.000006915606     0.000003034654
       9       -0.000005122988     0.000001463924     0.000000315680
      10        0.000629424478     0.001504157579    -0.003322758453
      11       -0.001275711626     0.003359621675     0.001012283003
      12        0.000006511344    -0.000000705578    -0.000005412319
      13       -0.000676354178    -0.000512445085     0.002571255940
      14       -0.000002351117     0.000000805771    -0.000009335821
      15       -0.000009603337     0.000005276819     0.000007641758
      16       -0.000001569327     0.000007703171    -0.000003217854
      17       -0.000000157989    -0.000004400141    -0.000001048993
      18        0.000012025351     0.000001863116     0.000004872419
      19       -0.000003168469    -0.000002320361    -0.000003401134
      20       -0.000004369945    -0.000001313824     0.000000107820
      21       -0.000006287167    -0.000001176164    -0.000000388161
      22       -0.000001075593     0.000002439830    -0.000004366963
      23       -0.000000909813    -0.000003735926     0.000001522140
      24        0.000000266268    -0.000000157190     0.000001597611

  **** Optimization is complete! (in 6 steps) ****
    Final optimized geometry and variables:
    Molecular point group: c1

    Geometry (in Angstrom), charge = 0, multiplicity = 1:

    H           -3.407023699224     1.530029927610    -1.239552012939
    O           -3.434722702286     0.590854554437    -1.210446614485
    C           -3.183797449514     0.147249577520     0.097218159651
    C           -1.777039918666     0.464021872617     0.581413398767
    H           -3.339350140159    -0.924167902108     0.081065557400
    H           -3.912986003043     0.568549570562     0.784705836257
    C           -0.675262217549    -0.220385982284    -0.226332597569
    H           -1.630183960715     1.543072417345     0.560032302606
    H           -1.703195816862     0.169374345065     1.625505352520
    C            0.739344419694     0.182986972285     0.224364748406
    H           -0.819063636874     0.038780078872    -1.267964429148
    H           -0.800508638632    -1.295884714912    -0.146233960438
    C            1.721953770110    -0.987361348863     0.250042673436
    H            1.109749021257     0.975754160277    -0.415108167022
    H            0.693363204886     0.602563091112     1.226589882588
    C            3.134747460549    -0.631938564245     0.715416046461
    H            1.774364149637    -1.439625200949    -0.738216852287
    H            1.322131061814    -1.751898623905     0.910298272263
    C            3.911738337900     0.273810604355    -0.237097809373
    H            3.693299573618    -1.553177370371     0.850328812316
    H            3.082368722605    -0.164318319351     1.695359501511
    H            3.976702354053    -0.167208185558    -1.226632911787
    H            4.923090909624     0.430325257542     0.120549454914
    H            3.449301801943     1.248050781330    -0.339447911486

  Mulliken Charges: (a.u.)
   Center  Symbol    Alpha    Beta     Spin     Total
       1     H     0.39526  0.39526  0.00000  0.20947
       2     O     4.20386  4.20386  0.00000 -0.40771
       3     C     2.97730  2.97730  0.00000  0.04541
       4     C     3.10134  3.10134  0.00000 -0.20268
       5     H     0.45893  0.45893  0.00000  0.08214
       6     H     0.46046  0.46046  0.00000  0.07908
       7     C     3.09178  3.09178  0.00000 -0.18356
       8     H     0.45801  0.45801  0.00000  0.08398
       9     H     0.45338  0.45338  0.00000  0.09323
      10     C     3.09535  3.09535  0.00000 -0.19071
      11     H     0.44414  0.44414  0.00000  0.11171
      12     H     0.45450  0.45450  0.00000  0.09100
      13     C     3.09468  3.09468  0.00000 -0.18936
      14     H     0.44965  0.44965  0.00000  0.10069
      15     H     0.45688  0.45688  0.00000  0.08625
      16     C     3.09016  3.09016  0.00000 -0.18032
      17     H     0.45255  0.45255  0.00000  0.09491
      18     H     0.45001  0.45001  0.00000  0.09999
      19     C     3.15183  3.15183  0.00000 -0.30365
      20     H     0.44873  0.44873  0.00000  0.10253
      21     H     0.45531  0.45531  0.00000  0.08938
      22     H     0.45465  0.45465  0.00000  0.09069
      23     H     0.44695  0.44695  0.00000  0.10609
      24     H     0.45428  0.45428  0.00000  0.09144

   Total alpha = 33.00000, Total beta = 33.00000, Total charge =  0.00000

*** Psi4 exiting successfully. Buy a developer a beer!
