                              Psi4 1.0.54 Driver

  ==> Input File <==

--------------------------------------------------------------------------
set {
	reference rhf
	basis cc-pvtz
}

set_num_threads( 4 )
memory 2 gb

molecule MOL {
0 1

O	 -2.081319	 -0.951530	 -0.502732
N	 -1.613558	 0.006676	 0.014756
C	 -0.329345	 -0.171618	 0.743966
O	 -2.068523	 1.100482	 -0.024385
C	 0.835904	 0.041968	 -0.213982
H	 -0.346048	 -1.174374	 1.137184
H	 -0.333613	 0.555559	 1.538590
C	 2.177039	 -0.130175	 0.494460
H	 0.754456	 -0.665923	 -1.030569
H	 0.765464	 1.037260	 -0.637266
C	 2.803478	 1.203413	 0.886377
H	 2.859521	 -0.674114	 -0.151903
H	 2.040467	 -0.740202	 1.382503
H	 2.982901	 1.822161	 0.014221
H	 2.156680	 1.756549	 1.558246
H	 3.751882	 1.053189	 1.387499

	symmetry c1
}
set optking {
	frozen_dihedral = ("
		11 8 5 9
	")
}

ee,wfn = optimize('scf', return_wfn=True)
oeprop( wfn, 'DIPOLE', 'QUADRUPOLE', 'MULLIKEN_CHARGES')
f=open( 'psi4out.xyz', 'w' )
f.write( "16  " )
f.write( str(ee) + "\n" )
f.write( MOL.save_string_xyz() )
f.close()
--------------------------------------------------------------------------

    Molecular point group: c1
  Charge       = 0
  Multiplicity = 1
  Basis Set: CC-PVTZ
  Basis Set:
  @DF-RHF Final Energy:  -360.90502640058861
    Total Energy =                       -360.9050264005886675
    Molecular point group: c1
  Basis Set: CC-PVTZ
  Basis Set:
  Basis Set: CC-PVTZ
  Basis Set:
  @DF-RHF Final Energy:  -360.90535957389233
    Total Energy =                       -360.9053595738922695
  Basis Set: CC-PVTZ
  Basis Set:
  Basis Set: CC-PVTZ
  Basis Set:
  @DF-RHF Final Energy:  -360.90528340250319
    Total Energy =                       -360.9052834025030734
  Basis Set: CC-PVTZ
  Basis Set:
  Basis Set: CC-PVTZ
  Basis Set:
  @DF-RHF Final Energy:  -360.90529068860002
    Total Energy =                       -360.9052906886004166
  Basis Set: CC-PVTZ
  Basis Set:
  @DF-RHF Final Energy:  -360.90538457619692
    Total Energy =                       -360.9053845761973207
  Basis Set: CC-PVTZ
  Basis Set:
  @DF-RHF Final Energy:  -360.90540540184543
    Total Energy =                       -360.9054054018457691
  Basis Set: CC-PVTZ
  Basis Set:
  Basis Set: CC-PVTZ
  Basis Set:
  @DF-RHF Final Energy:  -360.90540816911056
    Total Energy =                       -360.9054081691106148
  Basis Set: CC-PVTZ
  Basis Set:
  Basis Set: CC-PVTZ
  Basis Set:
  @DF-RHF Final Energy:  -360.90541007982853
    Total Energy =                       -360.9054100798289824
  Basis Set: CC-PVTZ
  Basis Set:
  Charge       = 0
  Multiplicity = 1
  Basis Set: CC-PVTZ
  Basis Set:

    Orbital Energies (a.u.)
    -----------------------

    Doubly Occupied:

       1A    -20.589755     2A    -20.589586     3A    -15.836090
       4A    -11.296761     5A    -11.250454     6A    -11.241874
       7A    -11.226648     8A     -1.635169     9A     -1.419508
      10A     -1.135906    11A     -1.058160    12A     -0.949275
      13A     -0.848323    14A     -0.826080    15A     -0.760633
      16A     -0.737478    17A     -0.727608    18A     -0.666520
      19A     -0.630616    20A     -0.602230    21A     -0.564162
      22A     -0.553052    23A     -0.513802    24A     -0.502801
      25A     -0.494174    26A     -0.484883    27A     -0.469719
      28A     -0.451903

  @DF-RHF Final Energy:  -360.90541101784135

   => Energetics <=

    Nuclear Repulsion Energy =            314.9558933251312851
    One-Electron Energy =               -1115.5962700577999840
    Two-Electron Energy =                 439.7349657148274673
    DFT Exchange-Correlation Energy =       0.0000000000000000
    Empirical Dispersion Energy =           0.0000000000000000
    PCM Polarization Energy =               0.0000000000000000
    EFP Energy =                            0.0000000000000000
    Total Energy =                       -360.9054110178412884
    Molecular point group: c1
  Basis Set: CC-PVTZ
  Basis Set:

  -Total Gradient:
     Atom            X                  Y                   Z
    ------   -----------------  -----------------  -----------------
       1        0.000008510613    -0.000006847827    -0.000008362196
       2       -0.000030510116     0.000005068493     0.000043009106
       3       -0.000001006971     0.000065037570    -0.000021785579
       4        0.000016913919     0.000015332774    -0.000014822060
       5       -0.001253744343    -0.002957422615     0.002013722028
       6       -0.000017737958    -0.000007036114    -0.000026025645
       7        0.000016402734    -0.000018187075     0.000015021089
       8       -0.001385365915     0.000508504295     0.002820972647
       9        0.001357644427     0.002347973593    -0.002243165061
      10        0.000021261139    -0.000044758436    -0.000099431266
      11        0.001180908817     0.000098387602    -0.002301955117
      12       -0.000005153983     0.000115129785    -0.000105640545
      13        0.000085131895    -0.000118477778    -0.000068950653
      14        0.000053800529    -0.000022179957    -0.000005082527
      15       -0.000025301077     0.000018884043    -0.000045972161
      16       -0.000021753710     0.000000591648     0.000048467940

  **** Optimization is complete! (in 9 steps) ****
    Final optimized geometry and variables:
    Molecular point group: c1

    Geometry (in Angstrom), charge = 0, multiplicity = 1:

    O           -2.044205729692    -1.071262312577    -0.674893251293
    N           -1.536353461972    -0.135959669112    -0.153240224001
    C           -0.244806644172    -0.365979883696     0.548353744658
    O           -1.956810047483     0.972251510957    -0.168069472533
    C            0.909890915912    -0.180673675252    -0.427723311910
    H           -0.287103953992    -1.372175525449     0.930121073508
    H           -0.210041439332     0.351238129962     1.351447321141
    C            2.273676040062    -0.307222734334     0.272628707003
    H            0.823284782492    -0.897882629266    -1.233260008838
    H            0.823692021917     0.799182114541    -0.882663784670
    C            2.890490006432     1.037993948824     0.644862959796
    H            2.955904875322    -0.827990667615    -0.388645318162
    H            2.182676921278    -0.932030893727     1.155851562231
    H            3.083412904879     1.629879865813    -0.242292528239
    H            2.235727903329     1.615122996533     1.289590258139
    H            3.830218076515     0.902843764094     1.166712930398

  Mulliken Charges: (a.u.)
   Center  Symbol    Alpha    Beta     Spin     Total
       1     O     4.17408  4.17408  0.00000 -0.34817
       2     N     3.27607  3.27607  0.00000  0.44787
       3     C     3.04079  3.04079  0.00000 -0.08159
       4     O     4.17365  4.17365  0.00000 -0.34731
       5     C     3.10943  3.10943  0.00000 -0.21886
       6     H     0.43346  0.43346  0.00000  0.13307
       7     H     0.43396  0.43396  0.00000  0.13208
       8     C     3.09758  3.09758  0.00000 -0.19517
       9     H     0.43068  0.43068  0.00000  0.13864
      10     H     0.43899  0.43899  0.00000  0.12201
      11     C     3.14560  3.14560  0.00000 -0.29121
      12     H     0.44279  0.44279  0.00000  0.11442
      13     H     0.45263  0.45263  0.00000  0.09475
      14     H     0.45097  0.45097  0.00000  0.09806
      15     H     0.45363  0.45363  0.00000  0.09275
      16     H     0.44567  0.44567  0.00000  0.10865

   Total alpha = 28.00000, Total beta = 28.00000, Total charge =  0.00000

*** Psi4 exiting successfully. Buy a developer a beer!
