  ==> Input File <==

--------------------------------------------------------------------------
set {
	reference rhf
	basis 6-31G*
}

set_num_threads( 1 )
memory 2 gb

molecule MOL {
0 1

H	 3.759285	 -0.851306	 0.306554
O	 2.844552	 -1.112517	 0.348823
C	 2.095445	 -0.020572	 0.197457
C	 0.624473	 -0.343591	 0.253101
O	 2.572772	 1.055780	 0.040483
C	 -0.265902	 0.883932	 0.072916
H	 0.436968	 -1.098491	 -0.503431
H	 0.437361	 -0.827604	 1.208336
C	 -1.728698	 0.646073	 0.462102
H	 -0.209144	 1.219470	 -0.958188
H	 0.135059	 1.692851	 0.673903
C	 -2.482460	 -0.343073	 -0.431425
H	 -2.245265	 1.602650	 0.432430
H	 -1.779332	 0.308348	 1.496285
C	 -3.960546	 -0.461025	 -0.060175
H	 -2.395034	 -0.026811	 -1.468912
H	 -2.024850	 -1.327147	 -0.371646
H	 -4.472726	 -1.168004	 -0.705284
H	 -4.465146	 0.496508	 -0.151489
H	 -4.081218	 -0.800940	 0.964585

	symmetry c1
}
set optking {
	frozen_dihedral = ("
		16 12 9 6,
		12 9 6 10,
		5 3 4 7,
		1 2 3 5
	")
}

ee = energy('scf')
oeprop('DIPOLE', 'QUADRUPOLE', 'MULLIKEN_CHARGES')
f=open( 'psi4out.xyz', 'w' )
f.write( "20  " )
f.write( str(ee) + "\n" )
f.write( MOL.save_string_xyz() )
f.close()
--------------------------------------------------------------------------

    Molecular point group: c1

    Geometry (in Angstrom), charge = 0, multiplicity = 1:

       Center              X                  Y                   Z               Mass
    ------------   -----------------  -----------------  -----------------  -----------------
           H          3.750661378249    -0.874107139213     0.193833682546     1.007825032070
           O          2.835928378249    -1.135318139213     0.236102682546    15.994914619560
           C          2.086821378249    -0.043373139213     0.084736682546    12.000000000000
           C          0.615849378249    -0.366392139213     0.140380682546    12.000000000000
           O          2.564148378249     1.032978860787    -0.072237317454    15.994914619560
           C         -0.274525621751     0.861130860787    -0.039804317454    12.000000000000
           H          0.428344378249    -1.121292139213    -0.616151317454     1.007825032070
           H          0.428737378249    -0.850405139213     1.095615682546     1.007825032070
           C         -1.737321621751     0.623271860787     0.349381682546    12.000000000000
           H         -0.217767621751     1.196668860787    -1.070908317454     1.007825032070
           H          0.126435378249     1.670049860787     0.561182682546     1.007825032070
           C         -2.491083621751    -0.365874139213    -0.544145317454    12.000000000000
           H         -2.253888621751     1.579848860787     0.319709682546     1.007825032070
           H         -1.787955621751     0.285546860787     1.383564682546     1.007825032070
           C         -3.969169621751    -0.483826139213    -0.172895317454    12.000000000000
           H         -2.403657621751    -0.049612139213    -1.581632317454     1.007825032070
           H         -2.033473621751    -1.349948139213    -0.484366317454     1.007825032070
           H         -4.481349621751    -1.190805139213    -0.818004317454     1.007825032070
           H         -4.473769621751     0.473706860787    -0.264209317454     1.007825032070
           H         -4.089841621751    -0.823741139213     0.851864682546     1.007825032070

  Charge       = 0
  Multiplicity = 1
  Basis Set: 6-31G*
  Basis Set:

    Orbital Energies (a.u.)
    -----------------------

    Doubly Occupied:

       1A    -20.612656     2A    -20.551779     3A    -11.381328
       4A    -11.240196     5A    -11.222435     6A    -11.220558
       7A    -11.219966     8A    -11.212317     9A     -1.474734
      10A     -1.365827    11A     -1.096064    12A     -1.040954
      13A     -0.961115    14A     -0.868789    15A     -0.816144
      16A     -0.776868    17A     -0.699810    18A     -0.690348
      19A     -0.664173    20A     -0.635859    21A     -0.601903
      22A     -0.593966    23A     -0.575104    24A     -0.554176
      25A     -0.542637    26A     -0.511881    27A     -0.496122
      28A     -0.479376    29A     -0.469919    30A     -0.467481
      31A     -0.456867    32A     -0.444189

  @DF-RHF Final Energy:  -383.94844193888167

   => Energetics <=

    Nuclear Repulsion Energy =            375.7350598532916024
    One-Electron Energy =               -1267.4759432001517325
    Two-Electron Energy =                 507.7924414079785151
    DFT Exchange-Correlation Energy =       0.0000000000000000
    Empirical Dispersion Energy =           0.0000000000000000
    PCM Polarization Energy =               0.0000000000000000
    EFP Energy =                            0.0000000000000000
    Total Energy =                       -383.9484419388815581

  Mulliken Charges: (a.u.)
   Center  Symbol    Alpha    Beta     Spin     Total
       1     H     0.26782  0.26782  0.00000  0.46437
       2     O     4.35137  4.35137  0.00000 -0.70273
       3     C     2.62308  2.62308  0.00000  0.75383
       4     C     3.21278  3.21278  0.00000 -0.42555
       5     O     4.27906  4.27906  0.00000 -0.55812
       6     C     3.15541  3.15541  0.00000 -0.31082
       7     H     0.39664  0.39664  0.00000  0.20672
       8     H     0.39902  0.39902  0.00000  0.20195
       9     C     3.15590  3.15590  0.00000 -0.31180
      10     H     0.41421  0.41421  0.00000  0.17159
      11     H     0.40450  0.40450  0.00000  0.19100
      12     C     3.15471  3.15471  0.00000 -0.30942
      13     H     0.41809  0.41809  0.00000  0.16382
      14     H     0.42342  0.42342  0.00000  0.15316
      15     C     3.23931  3.23931  0.00000 -0.47862
      16     H     0.42179  0.42179  0.00000  0.15643
      17     H     0.42253  0.42253  0.00000  0.15495
      18     H     0.41839  0.41839  0.00000  0.16321
      19     H     0.42065  0.42065  0.00000  0.15870
      20     H     0.42133  0.42133  0.00000  0.15733

   Total alpha = 32.00000, Total beta = 32.00000, Total charge = -0.00000
