                              Psi4 1.0.54 Driver

  ==> Input File <==

--------------------------------------------------------------------------
set {
	reference rhf
	basis cc-pvtz
}

set_num_threads( 4 )
memory 2 gb

molecule MOL {
0 1

O	 1.668200	 1.605771	 0.478351
C	 1.183871	 1.022157	 1.387119
C	 -0.126563	 0.278425	 1.351521
O	 1.746901	 0.946530	 2.581980
C	 -0.824290	 0.329213	 -0.000115
H	 0.077027	 -0.744594	 1.650576
H	 -0.753211	 0.695104	 2.133271
C	 -2.146151	 -0.432825	 -0.000068
H	 -0.164707	 -0.077629	 -0.758206
H	 -0.995677	 1.363774	 -0.275071
C	 -3.366283	 0.483552	 0.000557
H	 -2.189286	 -1.084450	 -0.869996
H	 -2.188867	 -1.085083	 0.869399
C	 -4.687436	 -0.278003	 0.000108
H	 -3.325150	 1.134819	 -0.867957
H	 -3.325087	 1.133730	 0.869885
H	 -4.773783	 -0.912098	 -0.876078
H	 -5.531922	 0.401392	 0.000363
H	 -4.773901	 -0.912898	 0.875703
C	 2.986449	 1.602186	 2.757942
H	 3.729914	 1.198683	 2.086633
H	 3.274080	 1.425184	 3.781556
H	 2.886275	 2.662067	 2.576751

	symmetry c1
}
set optking {
	frozen_dihedral = ("
		9 5 8 12
	")
}

ee,wfn = optimize('scf', return_wfn=True)
oeprop( wfn, 'DIPOLE', 'QUADRUPOLE', 'MULLIKEN_CHARGES')
f=open( 'psi4out.xyz', 'w' )
f.write( "23  " )
f.write( str(ee) + "\n" )
f.write( MOL.save_string_xyz() )
f.close()
--------------------------------------------------------------------------

    Molecular point group: c1
  Charge       = 0
  Multiplicity = 1
  Basis Set: CC-PVTZ
  Basis Set:
  @DF-RHF Final Energy:  -423.12584708835237
    Total Energy =                       -423.1258470883523160
    Molecular point group: c1
  Basis Set: CC-PVTZ
  Basis Set:
  Basis Set: CC-PVTZ
  Basis Set:
  @DF-RHF Final Energy:  -423.12614442462620
    Total Energy =                       -423.1261444246258634
  Basis Set: CC-PVTZ
  Basis Set:
  Basis Set: CC-PVTZ
  Basis Set:
  @DF-RHF Final Energy:  -423.12608222682422
    Total Energy =                       -423.1260822268239963
  Basis Set: CC-PVTZ
  Basis Set:
  Basis Set: CC-PVTZ
  Basis Set:
  @DF-RHF Final Energy:  -423.12621042520044
    Total Energy =                       -423.1262104252002700
  Basis Set: CC-PVTZ
  Basis Set:
  Basis Set: CC-PVTZ
  Basis Set:
  @DF-RHF Final Energy:  -423.12621185509062
    Total Energy =                       -423.1262118550905598
  Basis Set: CC-PVTZ
  Basis Set:
  Basis Set: CC-PVTZ
  Basis Set:
  @DF-RHF Final Energy:  -423.12621300020959
    Total Energy =                       -423.1262130002095319
  Basis Set: CC-PVTZ
  Basis Set:
  Charge       = 0
  Multiplicity = 1
  Basis Set: CC-PVTZ
  Basis Set:

    Orbital Energies (a.u.)
    -----------------------

    Doubly Occupied:

       1A    -20.596310     2A    -20.534207     3A    -11.364453
       4A    -11.278490     5A    -11.234301     6A    -11.216832
       7A    -11.216283     8A    -11.215322     9A    -11.208341
      10A     -1.472192    11A     -1.365795    12A     -1.093214
      13A     -1.044315    14A     -0.987484    15A     -0.932581
      16A     -0.847212    17A     -0.795501    18A     -0.769201
      19A     -0.702890    20A     -0.685513    21A     -0.676464
      22A     -0.635394    23A     -0.622684    24A     -0.600126
      25A     -0.574875    26A     -0.560157    27A     -0.555831
      28A     -0.529708    29A     -0.522610    30A     -0.498271
      31A     -0.497590    32A     -0.470692    33A     -0.465336
      34A     -0.462030    35A     -0.453148    36A     -0.438772

  @DF-RHF Final Energy:  -423.12621308855807

   => Energetics <=

    Nuclear Repulsion Energy =            455.5441933905033238
    One-Electron Energy =               -1479.0925709286980236
    Two-Electron Energy =                 600.4221644496368526
    DFT Exchange-Correlation Energy =       0.0000000000000000
    Empirical Dispersion Energy =           0.0000000000000000
    PCM Polarization Energy =               0.0000000000000000
    EFP Energy =                            0.0000000000000000
    Total Energy =                       -423.1262130885578472
    Molecular point group: c1
  Basis Set: CC-PVTZ
  Basis Set:

  -Total Gradient:
     Atom            X                  Y                   Z
    ------   -----------------  -----------------  -----------------
       1       -0.000004511749     0.000000687259    -0.000009069488
       2        0.000008548868    -0.000007776908    -0.000000530181
       3       -0.000003596677     0.000015192051     0.000005491246
       4       -0.000006691459     0.000000070488     0.000008506364
       5        0.001470498031    -0.002736763391     0.002628236364
       6        0.000006033815    -0.000001868709    -0.000003595212
       7        0.000001304428    -0.000004673409    -0.000000479975
       8       -0.001603333723     0.002962790037    -0.002235472253
       9       -0.000957602699     0.001803542914    -0.001826102505
      10        0.000000814756     0.000002418063    -0.000002066810
      11       -0.000005624957    -0.000003620219    -0.000006186625
      12        0.001094246321    -0.002029547955     0.001437378672
      13       -0.000002228257    -0.000004171927    -0.000002138479
      14        0.000003394113     0.000002844230     0.000005986825
      15       -0.000002681189    -0.000002421023    -0.000003039899
      16       -0.000000334627     0.000003296177     0.000001103384
      17        0.000001840372     0.000001581402    -0.000001515269
      18        0.000000667452    -0.000000216551     0.000001263737
      19       -0.000000975577    -0.000001920113     0.000002153765
      20       -0.000002015095    -0.000000090843     0.000000848612
      21        0.000001061536    -0.000000934015    -0.000002020549
      22        0.000000593972    -0.000000559059     0.000001982265
      23        0.000000592358     0.000002141499    -0.000000733988

  **** Optimization is complete! (in 7 steps) ****
    Final optimized geometry and variables:
    Molecular point group: c1

    Geometry (in Angstrom), charge = 0, multiplicity = 1:

    O            2.025453999648     1.002439933558    -0.462161898319
    C            1.540083127176     0.398494904271     0.432697850570
    C            0.250094430089    -0.378357546023     0.367144744416
    O            2.083591594675     0.326317459522     1.636881237143
    C           -0.421766129655    -0.340549747445    -0.998319559672
    H            0.473206057756    -1.396920179631     0.666427110988
    H           -0.403112043967     0.019328715205     1.137244838292
    C           -1.770140644375    -1.083840954285    -1.024340183474
    H            0.249351623556    -0.743259384669    -1.745897306927
    H           -0.570465614461     0.694046921828    -1.284531492849
    C           -2.983872448951    -0.158408428382    -1.001394125763
    H           -1.817957056110    -1.726429889698    -1.897378915428
    H           -1.830459363449    -1.759374572675    -0.174271933172
    C           -4.310420168136    -0.909100561064    -0.973069014413
    H           -2.953281492758     0.489436150866    -1.872573309445
    H           -2.921160300447     0.495724550667    -0.135314254765
    H           -4.415096267814    -1.549857071394    -1.842362017254
    H           -5.149714473501    -0.223286889187    -0.965272213074
    H           -4.387436973707    -1.536219636671    -0.091000837326
    C            3.302669500300     1.011484159773     1.840686460289
    H            4.067983987633     0.633093325499     1.179352826264
    H            3.576651934265     0.832523833129     2.867721111790
    H            3.178848122891     2.070132081365     1.666938316879

  Mulliken Charges: (a.u.)
   Center  Symbol    Alpha    Beta     Spin     Total
       1     O     4.19678  4.19678  0.00000 -0.39356
       2     C     2.80814  2.80814  0.00000  0.38371
       3     C     3.09730  3.09730  0.00000 -0.19460
       4     O     4.14710  4.14710  0.00000 -0.29420
       5     C     3.09458  3.09458  0.00000 -0.18916
       6     H     0.43903  0.43903  0.00000  0.12194
       7     H     0.43969  0.43969  0.00000  0.12061
       8     C     3.09893  3.09893  0.00000 -0.19787
       9     H     0.43992  0.43992  0.00000  0.12017
      10     H     0.44673  0.44673  0.00000  0.10654
      11     C     3.08138  3.08138  0.00000 -0.16277
      12     H     0.44546  0.44546  0.00000  0.10908
      13     H     0.45755  0.45755  0.00000  0.08489
      14     C     3.15076  3.15076  0.00000 -0.30151
      15     H     0.45190  0.45190  0.00000  0.09620
      16     H     0.45530  0.45530  0.00000  0.08940
      17     H     0.45449  0.45449  0.00000  0.09103
      18     H     0.44798  0.44798  0.00000  0.10403
      19     H     0.45524  0.45524  0.00000  0.08953
      20     C     3.03780  3.03780  0.00000 -0.07561
      21     H     0.45433  0.45433  0.00000  0.09134
      22     H     0.44530  0.44530  0.00000  0.10941
      23     H     0.45429  0.45429  0.00000  0.09141

   Total alpha = 36.00000, Total beta = 36.00000, Total charge = -0.00000

*** Psi4 exiting successfully. Buy a developer a beer!
