  ==> Input File <==

--------------------------------------------------------------------------
set {
	reference rhf
	basis cc-pvtz
}

set_num_threads( 4 )
memory 2 gb

molecule MOL {
0 1

H	 -1.293951	 -0.899742	 0.699521
N	 -1.173824	 -0.310545	 -0.096857
C	 -0.022588	 0.563366	 0.065815
H	 -1.059112	 -0.906471	 -0.890158
C	 1.270420	 -0.230572	 -0.014245
H	 -0.045354	 1.293678	 -0.735129
H	 -0.043155	 1.123061	 1.001180
H	 1.336273	 -0.754933	 -0.959364
H	 2.130728	 0.422015	 0.082222
H	 1.323344	 -0.967006	 0.781773

	symmetry c1
}
set optking {
	frozen_dihedral = ("
		1 2 3 6
	")
}

ee = optimize('scf')
oeprop('DIPOLE', 'QUADRUPOLE', 'MULLIKEN_CHARGES')
f=open( 'psi4out.xyz', 'w' )
f.write( "10  " )
f.write( str(ee) + "\n" )
f.write( MOL.save_string_xyz() )
f.close()
--------------------------------------------------------------------------

    Molecular point group: c1
  Charge       = 0
  Multiplicity = 1
  Basis Set: CC-PVTZ
  Basis Set:
  @DF-RHF Final Energy:  -134.30236061866108
    Total Energy =                       -134.3023606186610550
    Molecular point group: c1
  Basis Set: CC-PVTZ
  Basis Set:
  Basis Set: CC-PVTZ
  Basis Set:
  @DF-RHF Final Energy:  -134.30426858617233
    Total Energy =                       -134.3042685861723271
  Basis Set: CC-PVTZ
  Basis Set:
  Basis Set: CC-PVTZ
  Basis Set:
  @DF-RHF Final Energy:  -134.30448671405418
    Total Energy =                       -134.3044867140540930
  Basis Set: CC-PVTZ
  Basis Set:
  Basis Set: CC-PVTZ
  Basis Set:
  @DF-RHF Final Energy:  -134.30448953121143
    Total Energy =                       -134.3044895312115443
  Basis Set: CC-PVTZ
  Basis Set:
  Charge       = 0
  Multiplicity = 1
  Basis Set: CC-PVTZ
  Basis Set:

    Orbital Energies (a.u.)
    -----------------------

    Doubly Occupied:

       1A    -15.526756     2A    -11.241174     3A    -11.208297
       4A     -1.178272     5A     -0.988310     6A     -0.832360
       7A     -0.675757     8A     -0.600316     9A     -0.573790
      10A     -0.561956    11A     -0.507527    12A     -0.482847
      13A     -0.383297

  @DF-RHF Final Energy:  -134.30448970080710

   => Energetics <=

    Nuclear Repulsion Energy =             83.3258431471145968
    One-Electron Energy =                -345.7393478705832877
    Two-Electron Energy =                 128.1090150226616231
    DFT Exchange-Correlation Energy =       0.0000000000000000
    Empirical Dispersion Energy =           0.0000000000000000
    PCM Polarization Energy =               0.0000000000000000
    EFP Energy =                            0.0000000000000000
    Total Energy =                       -134.3044897008070677
    Molecular point group: c1
  Basis Set: CC-PVTZ
  Basis Set:

  -Total Gradient:
     Atom            X                  Y                   Z
    ------   -----------------  -----------------  -----------------
       1       -0.000575045405     0.000758848188     0.000503191925
       2        0.000566634569    -0.000824968872    -0.000513396121
       3        0.000495130640    -0.000559215916    -0.000607878330
       4        0.000005525166    -0.000001060859     0.000010160362
       5       -0.000020162514     0.000001914897     0.000004159562
       6       -0.000482521881     0.000599850599     0.000595518549
       7        0.000010094237     0.000007021743     0.000008836127
       8       -0.000006462725     0.000006883247     0.000011728162
       9        0.000009240302     0.000005966286    -0.000000903006
      10       -0.000002432389     0.000004760687    -0.000011417228

  **** Optimization is complete! (in 5 steps) ****
    Final optimized geometry and variables:
    Molecular point group: c1

    Geometry (in Angstrom), charge = 0, multiplicity = 1:

    H           -1.337107127516    -0.866275491029     0.726262446154
    N           -1.229428950196    -0.264744367905    -0.062868273668
    C           -0.035536889077     0.553415438308     0.059753604705
    H           -1.194438978536    -0.839723250919    -0.878260011590
    C            1.287379899677    -0.202816728377     0.005685461123
    H           -0.060640191964     1.303882405423    -0.722687525141
    H           -0.104438753093     1.096280193702     0.995859267888
    H            1.393561819441    -0.731832717209    -0.936214140077
    H            2.129264440900     0.474786554711     0.103403186693
    H            1.350434988732    -0.933185491313     0.805978845139

  Mulliken Charges: (a.u.)
   Center  Symbol    Alpha    Beta     Spin     Total
       1     H     0.43098  0.43098  0.00000  0.13804
       2     N     3.68833  3.68833  0.00000 -0.37665
       3     C     3.02823  3.02823  0.00000 -0.05646
       4     H     0.43138  0.43138  0.00000  0.13723
       5     C     3.13746  3.13746  0.00000 -0.27492
       6     H     0.45417  0.45417  0.00000  0.09166
       7     H     0.45459  0.45459  0.00000  0.09081
       8     H     0.45953  0.45953  0.00000  0.08093
       9     H     0.45592  0.45592  0.00000  0.08815
      10     H     0.45939  0.45939  0.00000  0.08121

   Total alpha = 13.00000, Total beta = 13.00000, Total charge = -0.00000
