  ==> Input File <==

--------------------------------------------------------------------------
set {
	reference rhf
	basis 6-31G*
}

set_num_threads( 4 )
memory 2 gb

molecule MOL {
0 1

O	 -2.821601	 1.309235	 -0.001213
C	 -2.668563	 0.129746	 -0.000350
C	 -3.801572	 -0.864014	 -0.000442
O	 -1.481751	 -0.454642	 0.000584
H	 -4.417280	 -0.689587	 -0.874708
H	 -3.443784	 -1.883046	 -0.000565
H	 -4.417179	 -0.689832	 0.873954
C	 -0.334255	 0.388708	 0.000906
C	 0.891947	 -0.504646	 0.000751
H	 -0.365390	 1.025305	 -0.873475
H	 -0.365484	 1.024911	 0.875569
C	 1.755161	 -0.298022	 1.246800
H	 1.474466	 -0.301216	 -0.893524
H	 0.571456	 -1.540867	 -0.062447
C	 2.997917	 -1.189951	 1.265422
H	 2.062158	 0.744622	 1.307887
H	 1.160864	 -0.493824	 2.137617
C	 3.860761	 -0.982571	 2.509351
H	 3.593131	 -0.995322	 0.376088
H	 2.692873	 -2.232342	 1.206772
H	 4.209631	 0.043870	 2.578078
H	 4.733395	 -1.627937	 2.493637
H	 3.302736	 -1.202765	 3.414963

	symmetry c1
}
set optking {
	frozen_dihedral = ("
		13 9 8 10
	")
}

ee = optimize('scf')
oeprop('DIPOLE', 'QUADRUPOLE', 'MULLIKEN_CHARGES')
f=open( 'psi4out.xyz', 'w' )
f.write( "23  " )
f.write( str(ee) + "\n" )
f.write( MOL.save_string_xyz() )
f.close()
--------------------------------------------------------------------------

    Molecular point group: c1
  Charge       = 0
  Multiplicity = 1
  Basis Set: 6-31G*
  Basis Set:
  @DF-RHF Final Energy:  -422.97337276899981
    Total Energy =                       -422.9733727689999796
    Molecular point group: c1
  Basis Set: 6-31G*
  Basis Set:
  Basis Set: 6-31G*
  Basis Set:
  @DF-RHF Final Energy:  -422.97368187597209
    Total Energy =                       -422.9736818759713515
  Basis Set: 6-31G*
  Basis Set:
  Basis Set: 6-31G*
  Basis Set:
  @DF-RHF Final Energy:  -422.97380397445397
    Total Energy =                       -422.9738039744539719
  Basis Set: 6-31G*
  Basis Set:
  Basis Set: 6-31G*
  Basis Set:
  @DF-RHF Final Energy:  -422.97366240185380
    Total Energy =                       -422.9736624018544262
  Basis Set: 6-31G*
  Basis Set:
  Basis Set: 6-31G*
  Basis Set:
  @DF-RHF Final Energy:  -422.97380802660280
    Total Energy =                       -422.9738080266025690
  Basis Set: 6-31G*
  Basis Set:
  Charge       = 0
  Multiplicity = 1
  Basis Set: 6-31G*
  Basis Set:

    Orbital Energies (a.u.)
    -----------------------

    Doubly Occupied:

       1A    -20.602963     2A    -20.540426     3A    -11.373779
       4A    -11.281801     5A    -11.232417     6A    -11.224098
       7A    -11.222260     8A    -11.220539     9A    -11.212470
      10A     -1.467567    11A     -1.360338    12A     -1.091601
      13A     -1.040784    14A     -1.002364    15A     -0.930692
      16A     -0.842706    17A     -0.800534    18A     -0.779652
      19A     -0.687942    20A     -0.681077    21A     -0.666812
      22A     -0.645214    23A     -0.607384    24A     -0.582999
      25A     -0.580750    26A     -0.571747    27A     -0.558491
      28A     -0.534843    29A     -0.525946    30A     -0.501599
      31A     -0.498809    32A     -0.474650    33A     -0.470774
      34A     -0.464520    35A     -0.444976    36A     -0.435373

  @DF-RHF Final Energy:  -422.97380793496205

   => Energetics <=

    Nuclear Repulsion Energy =            451.5962896837398262
    One-Electron Energy =               -1470.8183990248915052
    Two-Electron Energy =                 596.2483014061895119
    DFT Exchange-Correlation Energy =       0.0000000000000000
    Empirical Dispersion Energy =           0.0000000000000000
    PCM Polarization Energy =               0.0000000000000000
    EFP Energy =                            0.0000000000000000
    Total Energy =                       -422.9738079349622240
    Molecular point group: c1
  Basis Set: 6-31G*
  Basis Set:

  -Total Gradient:
     Atom            X                  Y                   Z
    ------   -----------------  -----------------  -----------------
       1        0.000005894598    -0.000013633267     0.000054814647
       2       -0.000030353813     0.000020619886    -0.000121090846
       3       -0.000007457765    -0.000002013892     0.000032023296
       4        0.000073820641     0.000026737191     0.000060843716
       5        0.000000319174     0.000001680596     0.000000769486
       6        0.000000295275     0.000003266366     0.000001893176
       7       -0.000009166090    -0.000006229503    -0.000000374104
       8       -0.000461648659    -0.000700042609    -0.000567544507
       9        0.000482236503     0.000696385982     0.000483292546
      10        0.000327146914     0.000467241587     0.000339470988
      11       -0.000027246385    -0.000007929579     0.000015317132
      12       -0.000022714917    -0.000001109764     0.000011519564
      13       -0.000331937492    -0.000469319933    -0.000318382179
      14       -0.000005243879    -0.000003553431     0.000013674790
      15       -0.000005306584     0.000007002261    -0.000011366363
      16       -0.000016568665     0.000002850994     0.000006660023
      17        0.000001884230    -0.000020475728    -0.000007635477
      18        0.000016127506     0.000002550160    -0.000004364408
      19       -0.000001535510    -0.000009920110    -0.000001888414
      20        0.000002457881     0.000005567234     0.000007538658
      21       -0.000000907394    -0.000001522489     0.000001649104
      22        0.000010005204     0.000002498883     0.000008529990
      23       -0.000000100771    -0.000000650836    -0.000005350815

  **** Optimization is complete! (in 6 steps) ****
    Final optimized geometry and variables:
    Molecular point group: c1

    Geometry (in Angstrom), charge = 0, multiplicity = 1:

    O           -2.635777976011     1.579343380014    -0.575704756443
    C           -2.483283611795     0.399611040744    -0.565841153281
    C           -3.617676427156    -0.592720147410    -0.555602615140
    O           -1.297571325272    -0.186249924054    -0.561792286132
    H           -4.234785350193    -0.424744263550    -1.430139870890
    H           -3.261347731720    -1.612254944434    -0.548036079963
    H           -4.231460625120    -0.410571615117     0.318458067731
    C           -0.148305317727     0.658800871733    -0.571839414518
    C            1.102649194395    -0.226569877285    -0.552143810244
    H           -0.191109072076     1.288676371626    -1.448892850590
    H           -0.195208571219     1.306897293535     0.292869939050
    C            1.966137864856    -0.030586760236     0.696118489275
    H            1.698591580497    -0.034602293085    -1.439869015618
    H            0.785469107982    -1.261699749416    -0.616866524167
    C            3.210022216287    -0.919497139648     0.709253368052
    H            2.269548275487     1.012673209056     0.767420033014
    H            1.365365892625    -0.235144663152     1.580478718603
    C            4.071461093658    -0.721039242741     1.955833871599
    H            3.806604300692    -0.717069387914    -0.177764803877
    H            2.907022959212    -1.962102999292     0.641532093403
    H            4.418548369824     0.305390036524     2.033404085087
    H            4.945223763416    -1.364782519824     1.936010803404
    H            3.512680758192    -0.949474947807     2.858912676344

  Mulliken Charges: (a.u.)
   Center  Symbol    Alpha    Beta     Spin     Total
       1     O     4.28433  4.28433  0.00000 -0.56866
       2     C     2.61526  2.61526  0.00000  0.76948
       3     C     3.28750  3.28750  0.00000 -0.57500
       4     O     4.31118  4.31118  0.00000 -0.62236
       5     H     0.39748  0.39748  0.00000  0.20504
       6     H     0.40023  0.40023  0.00000  0.19954
       7     H     0.39755  0.39755  0.00000  0.20490
       8     C     3.00404  3.00404  0.00000 -0.00807
       9     C     3.17110  3.17110  0.00000 -0.34220
      10     H     0.40787  0.40787  0.00000  0.18426
      11     H     0.40708  0.40708  0.00000  0.18585
      12     C     3.15784  3.15784  0.00000 -0.31568
      13     H     0.41629  0.41629  0.00000  0.16742
      14     H     0.40479  0.40479  0.00000  0.19043
      15     C     3.15291  3.15291  0.00000 -0.30583
      16     H     0.42178  0.42178  0.00000  0.15645
      17     H     0.41946  0.41946  0.00000  0.16107
      18     C     3.23963  3.23963  0.00000 -0.47925
      19     H     0.42214  0.42214  0.00000  0.15573
      20     H     0.42144  0.42144  0.00000  0.15711
      21     H     0.42101  0.42101  0.00000  0.15798
      22     H     0.41826  0.41826  0.00000  0.16349
      23     H     0.42085  0.42085  0.00000  0.15830

   Total alpha = 36.00000, Total beta = 36.00000, Total charge = -0.00000
