  ==> Input File <==

--------------------------------------------------------------------------
set {
	reference rhf
	basis 6-31G*
}

set_num_threads( 1 )
memory 2 gb

molecule MOL {
0 1

O	 0.749854	 1.307668	 -0.000040
C	 0.576249	 0.131685	 -0.000108
C	 -0.766779	 -0.556801	 -0.000461
O	 1.568443	 -0.749345	 -0.000005
C	 -1.945214	 0.412366	 0.000161
H	 -0.796911	 -1.211249	 -0.867467
H	 -0.796854	 -1.212390	 0.865687
C	 -3.287791	 -0.317055	 0.000105
H	 -1.876087	 1.060580	 -0.866812
H	 -1.875822	 1.059691	 0.867761
H	 -3.394745	 -0.949193	 -0.877058
H	 -4.111778	 0.388953	 0.000015
H	 -3.394954	 -0.949187	 0.877259
C	 1.510335	 -1.782589	 0.966555
H	 1.514558	 -1.369527	 1.965006
H	 2.390877	 -2.385242	 0.807432
H	 0.619183	 -2.378732	 0.832494

	symmetry c1
}
set optking {
	frozen_dihedral = ("
		1 2 3 6,
		9 5 3 6
	")
}

ee = energy('scf')
oeprop('DIPOLE', 'QUADRUPOLE', 'MULLIKEN_CHARGES')
f=open( 'psi4out.xyz', 'w' )
f.write( "17  " )
f.write( str(ee) + "\n" )
f.write( MOL.save_string_xyz() )
f.close()
--------------------------------------------------------------------------

    Molecular point group: c1

    Geometry (in Angstrom), charge = 0, multiplicity = 1:

       Center              X                  Y                   Z               Mass
    ------------   -----------------  -----------------  -----------------  -----------------
           O          0.962375874737     1.546987436706    -0.149223027550    15.994914619560
           C          0.788770874737     0.371004436706    -0.149291027550    12.000000000000
           C         -0.554257125263    -0.317481563294    -0.149644027550    12.000000000000
           O          1.780964874737    -0.510025563294    -0.149188027550    15.994914619560
           C         -1.732692125263     0.651685436706    -0.149022027550    12.000000000000
           H         -0.584389125263    -0.971929563294    -1.016650027550     1.007825032070
           H         -0.584332125263    -0.973070563294     0.716503972450     1.007825032070
           C         -3.075269125263    -0.077735563294    -0.149078027550    12.000000000000
           H         -1.663565125263     1.299899436706    -1.015995027550     1.007825032070
           H         -1.663300125263     1.299010436706     0.718577972450     1.007825032070
           H         -3.182223125263    -0.709873563294    -1.026241027550     1.007825032070
           H         -3.899256125263     0.628272436706    -0.149168027550     1.007825032070
           H         -3.182432125263    -0.709867563294     0.728075972450     1.007825032070
           C          1.722856874737    -1.543269563294     0.817371972450    12.000000000000
           H          1.727079874737    -1.130207563294     1.815822972450     1.007825032070
           H          2.603398874737    -2.145922563294     0.658248972450     1.007825032070
           H          0.831704874737    -2.139412563294     0.683310972450     1.007825032070

  Charge       = 0
  Multiplicity = 1
  Basis Set: 6-31G*
  Basis Set:

    Orbital Energies (a.u.)
    -----------------------

    Doubly Occupied:

       1A    -20.596401     2A    -20.551805     3A    -11.374774
       4A    -11.297541     5A    -11.239901     6A    -11.224924
       7A    -11.217745     8A     -1.465998     9A     -1.369998
      10A     -1.082096    11A     -0.991236    12A     -0.969359
      13A     -0.840188    14A     -0.766896    15A     -0.702167
      16A     -0.683803    17A     -0.681388    18A     -0.642127
      19A     -0.613640    20A     -0.578408    21A     -0.568979
      22A     -0.554193    23A     -0.520185    24A     -0.494736
      25A     -0.489912    26A     -0.481496    27A     -0.456631
      28A     -0.432699

  @DF-RHF Final Energy:  -344.88079364454620

   => Energetics <=

    Nuclear Repulsion Energy =            315.9290938637809631
    One-Electron Energy =               -1095.8412668039995879
    Two-Electron Energy =                 435.0313792956719681
    DFT Exchange-Correlation Energy =       0.0000000000000000
    Empirical Dispersion Energy =           0.0000000000000000
    PCM Polarization Energy =               0.0000000000000000
    EFP Energy =                            0.0000000000000000
    Total Energy =                       -344.8807936445466567

  Mulliken Charges: (a.u.)
   Center  Symbol    Alpha    Beta     Spin     Total
       1     O     4.26268  4.26268  0.00000 -0.52537
       2     C     2.60288  2.60288  0.00000  0.79425
       3     C     3.23015  3.23015  0.00000 -0.46031
       4     O     4.30326  4.30326  0.00000 -0.60653
       5     C     3.14975  3.14975  0.00000 -0.29951
       6     H     0.39910  0.39910  0.00000  0.20179
       7     H     0.40579  0.40579  0.00000  0.18842
       8     C     3.24263  3.24263  0.00000 -0.48526
       9     H     0.40882  0.40882  0.00000  0.18235
      10     H     0.41097  0.41097  0.00000  0.17806
      11     H     0.42144  0.42144  0.00000  0.15713
      12     H     0.41428  0.41428  0.00000  0.17144
      13     H     0.42305  0.42305  0.00000  0.15390
      14     C     3.10087  3.10087  0.00000 -0.20173
      15     H     0.41124  0.41124  0.00000  0.17752
      16     H     0.39821  0.39821  0.00000  0.20357
      17     H     0.41486  0.41486  0.00000  0.17028

   Total alpha = 28.00000, Total beta = 28.00000, Total charge = -0.00000
