  ==> Input File <==

--------------------------------------------------------------------------
set {
	reference rhf
	basis 6-31G*
}

set_num_threads( 1 )
memory 2 gb

molecule MOL {
0 1

O	 -0.988096	 -1.408613	 0.050699
C	 -0.676749	 -0.249230	 -0.009274
C	 -1.746085	 0.827156	 -0.009539
N	 0.623947	 0.147590	 -0.102813
H	 -1.701500	 1.431508	 -0.908902
H	 -2.703425	 0.330732	 0.036390
H	 -1.647323	 1.487769	 0.845106
C	 1.618298	 -0.536428	 0.700469
C	 1.047164	 1.409033	 -0.670170
H	 2.532539	 -0.645714	 0.127550
H	 1.250031	 -1.509655	 0.974606
H	 1.846241	 0.021266	 1.606251
H	 2.022802	 1.283620	 -1.124526
H	 0.370190	 1.745564	 -1.439187
H	 1.126927	 2.188155	 0.085753

	symmetry c1
}
set optking {
	frozen_dihedral = ("
		2 4 8 10
	")
}

ee = energy('scf')
oeprop('DIPOLE', 'QUADRUPOLE', 'MULLIKEN_CHARGES')
f=open( 'psi4out.xyz', 'w' )
f.write( "15  " )
f.write( str(ee) + "\n" )
f.write( MOL.save_string_xyz() )
f.close()
--------------------------------------------------------------------------

    Molecular point group: c1

    Geometry (in Angstrom), charge = 0, multiplicity = 1:

       Center              X                  Y                   Z               Mass
    ------------   -----------------  -----------------  -----------------  -----------------
           O         -0.976207795973    -1.446804161653     0.053987334496    15.994914619560
           C         -0.664860795973    -0.287421161653    -0.005985665504    12.000000000000
           C         -1.734196795973     0.788964838347    -0.006250665504    12.000000000000
           N          0.635835204027     0.109398838347    -0.099524665504    14.003074004780
           H         -1.689611795973     1.393316838347    -0.905613665504     1.007825032070
           H         -2.691536795973     0.292540838347     0.039678334496     1.007825032070
           H         -1.635434795973     1.449577838347     0.848394334496     1.007825032070
           C          1.630186204027    -0.574619161653     0.703757334496    12.000000000000
           C          1.059052204027     1.370841838347    -0.666881665504    12.000000000000
           H          2.544427204027    -0.683905161653     0.130838334496     1.007825032070
           H          1.261919204027    -1.547846161653     0.977894334496     1.007825032070
           H          1.858129204027    -0.016925161653     1.609539334496     1.007825032070
           H          2.034690204027     1.245428838347    -1.121237665504     1.007825032070
           H          0.382078204027     1.707372838347    -1.435898665504     1.007825032070
           H          1.138815204027     2.149963838347     0.089041334496     1.007825032070

  Charge       = 0
  Multiplicity = 1
  Basis Set: 6-31G*
  Basis Set:

    Orbital Energies (a.u.)
    -----------------------

    Doubly Occupied:

       1A    -20.520714     2A    -15.575750     3A    -11.343045
       4A    -11.265280     5A    -11.252447     6A    -11.227217
       7A     -1.386023     8A     -1.242856     9A     -1.011803
      10A     -0.973996    11A     -0.919660    12A     -0.738861
      13A     -0.678867    14A     -0.658249    15A     -0.651111
      16A     -0.591559    17A     -0.577467    18A     -0.570366
      19A     -0.561501    20A     -0.551935    21A     -0.533229
      22A     -0.495653    23A     -0.412930    24A     -0.361664

  @DF-RHF Final Energy:  -286.01891452762379

   => Energetics <=

    Nuclear Repulsion Energy =            252.0035650858311840
    One-Electron Energy =                -887.8404615939066389
    Two-Electron Energy =                 349.8179819804515773
    DFT Exchange-Correlation Energy =       0.0000000000000000
    Empirical Dispersion Energy =           0.0000000000000000
    PCM Polarization Energy =               0.0000000000000000
    EFP Energy =                            0.0000000000000000
    Total Energy =                       -286.0189145276239060

  Mulliken Charges: (a.u.)
   Center  Symbol    Alpha    Beta     Spin     Total
       1     O     4.29175  4.29175  0.00000 -0.58350
       2     C     2.63419  2.63419  0.00000  0.73162
       3     C     3.29274  3.29274  0.00000 -0.58548
       4     N     3.82019  3.82019  0.00000 -0.64037
       5     H     0.40937  0.40937  0.00000  0.18125
       6     H     0.39280  0.39280  0.00000  0.21441
       7     H     0.40695  0.40695  0.00000  0.18609
       8     C     3.14524  3.14524  0.00000 -0.29047
       9     C     3.14050  3.14050  0.00000 -0.28099
      10     H     0.41698  0.41698  0.00000  0.16605
      11     H     0.38823  0.38823  0.00000  0.22353
      12     H     0.42221  0.42221  0.00000  0.15559
      13     H     0.40846  0.40846  0.00000  0.18307
      14     H     0.40963  0.40963  0.00000  0.18073
      15     H     0.42076  0.42076  0.00000  0.15847

   Total alpha = 24.00000, Total beta = 24.00000, Total charge =  0.00000
