  ==> Input File <==

--------------------------------------------------------------------------
set {
	reference rhf
	basis 6-31G*
}

set_num_threads( 1 )
memory 2 gb

molecule MOL {
0 1

H	 -2.083594	 -1.326210	 -2.348247
N	 -1.176753	 -1.404967	 -1.930620
C	 -1.258646	 -1.249388	 -0.489026
H	 -0.607212	 -0.675556	 -2.313625
C	 0.125474	 -1.333317	 0.119498
H	 -1.716311	 -0.310562	 -0.174146
H	 -1.862410	 -2.057062	 -0.086643
O	 0.874168	 -0.245412	 -0.342030
H	 0.060829	 -1.308810	 1.207091
H	 0.597923	 -2.268136	 -0.173999
C	 2.202317	 -0.244239	 0.074611
H	 2.711377	 -1.041390	 -0.449894
H	 2.692099	 0.699270	 -0.159667
H	 2.283185	 -0.418429	 1.145558

	symmetry c1
}
set optking {
	frozen_dihedral = ("
		8 5 3 6,
		6 3 2 4,
		11 8 5 3
	")
}

ee = energy('scf')
oeprop('DIPOLE', 'QUADRUPOLE', 'MULLIKEN_CHARGES')
f=open( 'psi4out.xyz', 'w' )
f.write( "14  " )
f.write( str(ee) + "\n" )
f.write( MOL.save_string_xyz() )
f.close()
--------------------------------------------------------------------------

    Molecular point group: c1

    Geometry (in Angstrom), charge = 0, multiplicity = 1:

       Center              X                  Y                   Z               Mass
    ------------   -----------------  -----------------  -----------------  -----------------
           H         -2.249122381454    -0.443048333722    -1.823070415923     1.007825032070
           N         -1.342281381454    -0.521805333722    -1.405443415923    14.003074004780
           C         -1.424174381454    -0.366226333722     0.036150584077    12.000000000000
           H         -0.772740381454     0.207605666278    -1.788448415923     1.007825032070
           C         -0.040054381454    -0.450155333722     0.644674584077    12.000000000000
           H         -1.881839381454     0.572599666278     0.351030584077     1.007825032070
           H         -2.027938381454    -1.173900333722     0.438533584077     1.007825032070
           O          0.708639618546     0.637749666278     0.183146584077    15.994914619560
           H         -0.104699381454    -0.425648333722     1.732267584077     1.007825032070
           H          0.432394618546    -1.384974333722     0.351177584077     1.007825032070
           C          2.036788618546     0.638922666278     0.599787584077    12.000000000000
           H          2.545848618546    -0.158228333722     0.075282584077     1.007825032070
           H          2.526570618546     1.582431666278     0.365509584077     1.007825032070
           H          2.117656618546     0.464732666278     1.670734584077     1.007825032070

  Charge       = 0
  Multiplicity = 1
  Basis Set: 6-31G*
  Basis Set:

    Orbital Energies (a.u.)
    -----------------------

    Doubly Occupied:

       1A    -20.556106     2A    -15.528464     3A    -11.266381
       4A    -11.266177     5A    -11.240957     6A     -1.380973
       7A     -1.173661     8A     -0.998626     9A     -0.907226
      10A     -0.815392    11A     -0.684058    12A     -0.674980
      13A     -0.642701    14A     -0.610186    15A     -0.607491
      16A     -0.539927    17A     -0.530783    18A     -0.497979
      19A     -0.471401    20A     -0.416182    21A     -0.380155

  @DF-RHF Final Energy:  -248.12389690047746

   => Energetics <=

    Nuclear Repulsion Energy =            194.7188952546085829
    One-Electron Energy =                -723.3059270196722537
    Two-Electron Energy =                 280.4631348645866069
    DFT Exchange-Correlation Energy =       0.0000000000000000
    Empirical Dispersion Energy =           0.0000000000000000
    PCM Polarization Energy =               0.0000000000000000
    EFP Energy =                            0.0000000000000000
    Total Energy =                       -248.1238969004770638

  Mulliken Charges: (a.u.)
   Center  Symbol    Alpha    Beta     Spin     Total
       1     H     0.33283  0.33283  0.00000  0.33434
       2     N     3.92531  3.92531  0.00000 -0.85063
       3     C     3.06878  3.06878  0.00000 -0.13755
       4     H     0.32365  0.32365  0.00000  0.35271
       5     C     2.99010  2.99010  0.00000  0.01979
       6     H     0.42647  0.42647  0.00000  0.14706
       7     H     0.42043  0.42043  0.00000  0.15913
       8     O     4.31063  4.31063  0.00000 -0.62126
       9     H     0.43054  0.43054  0.00000  0.13891
      10     H     0.42296  0.42296  0.00000  0.15408
      11     C     3.07908  3.07908  0.00000 -0.15816
      12     H     0.42576  0.42576  0.00000  0.14848
      13     H     0.41293  0.41293  0.00000  0.17414
      14     H     0.43051  0.43051  0.00000  0.13897

   Total alpha = 21.00000, Total beta = 21.00000, Total charge =  0.00000
