                              Psi4 1.0.54 Driver

  ==> Input File <==

--------------------------------------------------------------------------
set {
	reference rhf
	basis cc-pvtz
}

set_num_threads( 4 )
memory 2 gb

molecule MOL {
0 1

O	 0.074770	 1.259872	 0.000487
C	 0.029490	 0.077183	 0.000078
C	 -1.232113	 -0.748027	 0.000015
O	 1.106773	 -0.690081	 -0.000204
C	 -2.501422	 0.088592	 -0.000052
H	 -1.188777	 -1.400384	 -0.865133
H	 -1.188857	 -1.400312	 0.865225
H	 -2.548170	 0.725504	 -0.873205
H	 -3.371613	 -0.556398	 -0.000040
H	 -2.548215	 0.725571	 0.873047
C	 1.386299	 -1.416586	 1.179498
H	 1.536201	 -0.746740	 2.013208
H	 2.288852	 -1.971336	 0.980813
H	 0.576670	 -2.092485	 1.411675

	symmetry c1
}
set optking {
	frozen_dihedral = ("
		11 4 2 3
	")
}

ee,wfn = optimize('scf', return_wfn=True)
oeprop( wfn, 'DIPOLE', 'QUADRUPOLE', 'MULLIKEN_CHARGES')
f=open( 'psi4out.xyz', 'w' )
f.write( "14  " )
f.write( str(ee) + "\n" )
f.write( MOL.save_string_xyz() )
f.close()
--------------------------------------------------------------------------

    Molecular point group: c1
  Charge       = 0
  Multiplicity = 1
  Basis Set: CC-PVTZ
  Basis Set:
  @DF-RHF Final Energy:  -305.96437104551831
    Total Energy =                       -305.9643710455184191
    Molecular point group: c1
  Basis Set: CC-PVTZ
  Basis Set:
  Basis Set: CC-PVTZ
  Basis Set:
  @DF-RHF Final Energy:  -305.96611758697622
    Total Energy =                       -305.9661175869759973
  Basis Set: CC-PVTZ
  Basis Set:
  Basis Set: CC-PVTZ
  Basis Set:
  @DF-RHF Final Energy:  -305.96736649229410
    Total Energy =                       -305.9673664922937633
  Basis Set: CC-PVTZ
  Basis Set:
  Basis Set: CC-PVTZ
  Basis Set:
  @DF-RHF Final Energy:  -305.96744404755447
    Total Energy =                       -305.9674440475546362
  Basis Set: CC-PVTZ
  Basis Set:
  Basis Set: CC-PVTZ
  Basis Set:
  @DF-RHF Final Energy:  -305.96748467679458
    Total Energy =                       -305.9674846767945837
  Basis Set: CC-PVTZ
  Basis Set:
  Basis Set: CC-PVTZ
  Basis Set:
  @DF-RHF Final Energy:  -305.96755655640970
    Total Energy =                       -305.9675565564097042
  Basis Set: CC-PVTZ
  Basis Set:
  Basis Set: CC-PVTZ
  Basis Set:
  @DF-RHF Final Energy:  -305.96755766445335
    Total Energy =                       -305.9675576644532953
  Basis Set: CC-PVTZ
  Basis Set:
  Charge       = 0
  Multiplicity = 1
  Basis Set: CC-PVTZ
  Basis Set:

    Orbital Energies (a.u.)
    -----------------------

    Doubly Occupied:

       1A    -20.581301     2A    -20.543856     3A    -11.368110
       4A    -11.291856     5A    -11.243235     6A    -11.218580
       7A     -1.462444     8A     -1.371121     9A     -1.063563
      10A     -0.979155    11A     -0.896106    12A     -0.768056
      13A     -0.703597    14A     -0.680543    15A     -0.676614
      16A     -0.629353    17A     -0.613735    18A     -0.559120
      19A     -0.547861    20A     -0.526098    21A     -0.512404
      22A     -0.492413    23A     -0.460301    24A     -0.439554

  @DF-RHF Final Energy:  -305.96755780147578

   => Energetics <=

    Nuclear Repulsion Energy =            247.1480351685633252
    One-Electron Energy =                -906.9732372208806055
    Two-Electron Energy =                 353.8576442508415880
    DFT Exchange-Correlation Energy =       0.0000000000000000
    Empirical Dispersion Energy =           0.0000000000000000
    PCM Polarization Energy =               0.0000000000000000
    EFP Energy =                            0.0000000000000000
    Total Energy =                       -305.9675578014757207
    Molecular point group: c1
  Basis Set: CC-PVTZ
  Basis Set:

  -Total Gradient:
     Atom            X                  Y                   Z
    ------   -----------------  -----------------  -----------------
       1       -0.000011339838     0.000013061733    -0.000000985395
       2        0.000301083507     0.000363967508     0.001953921218
       3        0.000017166142     0.000099419762    -0.001124944845
       4       -0.000963504895    -0.001446658091    -0.001331270640
       5        0.000013739810    -0.000004802827    -0.000003423064
       6        0.000004606045    -0.000003354739    -0.000009589689
       7       -0.000001257083    -0.000010447972    -0.000008971833
       8        0.000000521122     0.000001335374    -0.000000199938
       9        0.000008203579    -0.000001367267     0.000000432027
      10       -0.000004211080     0.000004929977     0.000004479423
      11        0.000631778811     0.000977610201     0.000513346968
      12        0.000000347360     0.000006313280    -0.000000669248
      13        0.000004335495     0.000001805405     0.000002108528
      14       -0.000001468975    -0.000001812338     0.000005766487

  **** Optimization is complete! (in 8 steps) ****
    Final optimized geometry and variables:
    Molecular point group: c1

    Geometry (in Angstrom), charge = 0, multiplicity = 1:

    O            0.217243244317     1.489269874999    -0.133002721587
    C            0.178339003400     0.314285024690    -0.148198655708
    C           -1.095085312624    -0.492759895034    -0.241120823500
    O            1.315086562982    -0.409039985854    -0.173897360131
    C           -2.350457822721     0.362146435250    -0.314308018036
    H           -0.997516360109    -1.128342513481    -1.115042941047
    H           -1.140316791617    -1.163824809547     0.609855913198
    H           -2.325092273385     1.015068898713    -1.175956723965
    H           -3.227345817937    -0.269508472147    -0.387718204392
    H           -2.449314294491     0.983968530148     0.565321898848
    C            1.637375764076    -1.216708123402     0.933303357165
    H            1.622040442380    -0.638168555546     1.849186616525
    H            2.637720237904    -1.580943002162     0.765070813959
    H            0.966725991122    -2.062092994220     1.025298518776

  Mulliken Charges: (a.u.)
   Center  Symbol    Alpha    Beta     Spin     Total
       1     O     4.16658  4.16658  0.00000 -0.33315
       2     C     2.79535  2.79535  0.00000  0.40930
       3     C     3.11223  3.11223  0.00000 -0.22447
       4     O     4.15769  4.15769  0.00000 -0.31537
       5     C     3.13864  3.13864  0.00000 -0.27728
       6     H     0.43773  0.43773  0.00000  0.12454
       7     H     0.44742  0.44742  0.00000  0.10516
       8     H     0.44541  0.44541  0.00000  0.10919
       9     H     0.45090  0.45090  0.00000  0.09819
      10     H     0.44815  0.44815  0.00000  0.10369
      11     C     3.04071  3.04071  0.00000 -0.08141
      12     H     0.45823  0.45823  0.00000  0.08354
      13     H     0.43845  0.43845  0.00000  0.12311
      14     H     0.46251  0.46251  0.00000  0.07498

   Total alpha = 24.00000, Total beta = 24.00000, Total charge = -0.00000

*** Psi4 exiting successfully. Buy a developer a beer!
