                              Psi4 1.0.54 Driver

  ==> Input File <==

--------------------------------------------------------------------------
set {
	reference rhf
	basis cc-pvtz
}

set_num_threads( 4 )
memory 2 gb

molecule MOL {
0 1

H	 -2.900921	 -0.130614	 -0.661313
O	 -2.346257	 -0.289210	 0.080372
C	 -1.183935	 0.486039	 -0.009831
C	 0.062853	 -0.375310	 0.027457
H	 -1.178881	 1.094526	 -0.908634
H	 -1.184406	 1.155156	 0.838676
O	 1.172093	 0.457955	 -0.054438
H	 0.052476	 -1.081302	 -0.804627
H	 0.076323	 -0.955658	 0.947560
C	 2.395478	 -0.199028	 -0.000366
H	 2.505946	 -0.901710	 -0.823354
H	 3.174616	 0.545641	 -0.071768
H	 2.513730	 -0.742241	 0.934223

	symmetry c1
}
set optking {
	frozen_dihedral = ("
		1 2 3 5
	")
}

ee,wfn = optimize('scf', return_wfn=True)
oeprop( wfn, 'DIPOLE', 'QUADRUPOLE', 'MULLIKEN_CHARGES')
f=open( 'psi4out.xyz', 'w' )
f.write( "13  " )
f.write( str(ee) + "\n" )
f.write( MOL.save_string_xyz() )
f.close()
--------------------------------------------------------------------------

    Molecular point group: c1
  Charge       = 0
  Multiplicity = 1
  Basis Set: CC-PVTZ
  Basis Set:
  @DF-RHF Final Energy:  -268.06094755138804
    Total Energy =                       -268.0609475513880398
    Molecular point group: c1
  Basis Set: CC-PVTZ
  Basis Set:
  Basis Set: CC-PVTZ
  Basis Set:
  @DF-RHF Final Energy:  -268.06134399197924
    Total Energy =                       -268.0613439919792427
  Basis Set: CC-PVTZ
  Basis Set:
  Basis Set: CC-PVTZ
  Basis Set:
  @DF-RHF Final Energy:  -268.06146551540962
    Total Energy =                       -268.0614655154095658
  Basis Set: CC-PVTZ
  Basis Set:
  Basis Set: CC-PVTZ
  Basis Set:
  @DF-RHF Final Energy:  -268.06146979477842
    Total Energy =                       -268.0614697947785317
  Basis Set: CC-PVTZ
  Basis Set:
  Charge       = 0
  Multiplicity = 1
  Basis Set: CC-PVTZ
  Basis Set:

    Orbital Energies (a.u.)
    -----------------------

    Doubly Occupied:

       1A    -20.553070     2A    -20.551339     3A    -11.267868
       4A    -11.265383     5A    -11.265070     6A     -1.389047
       7A     -1.367504     8A     -1.019267     9A     -0.912408
      10A     -0.835029    11A     -0.715735    12A     -0.679516
      13A     -0.649437    14A     -0.643052    15A     -0.606062
      16A     -0.554167    17A     -0.547982    18A     -0.492502
      19A     -0.479585    20A     -0.441074    21A     -0.421584

  @DF-RHF Final Energy:  -268.06147013825120

   => Energetics <=

    Nuclear Repulsion Energy =            190.4691752202743373
    One-Electron Energy =                -743.7479275774119287
    Two-Electron Energy =                 285.2172822188865666
    DFT Exchange-Correlation Energy =       0.0000000000000000
    Empirical Dispersion Energy =           0.0000000000000000
    PCM Polarization Energy =               0.0000000000000000
    EFP Energy =                            0.0000000000000000
    Total Energy =                       -268.0614701382510248
    Molecular point group: c1
  Basis Set: CC-PVTZ
  Basis Set:

  -Total Gradient:
     Atom            X                  Y                   Z
    ------   -----------------  -----------------  -----------------
       1        0.000037272305    -0.000067303674    -0.000028184058
       2       -0.000053688477     0.000115043754     0.000041915088
       3        0.000049663057    -0.000114590168    -0.000036456966
       4       -0.000012702371    -0.000009309918    -0.000004561844
       5       -0.000025030532     0.000047889969     0.000035649037
       6       -0.000000862601    -0.000012678911    -0.000002809942
       7        0.000029313095     0.000014356912    -0.000001076256
       8       -0.000011210913     0.000000041864    -0.000004396140
       9       -0.000006497601     0.000021654234    -0.000006177174
      10       -0.000002653449     0.000005079823     0.000010317134
      11       -0.000005423602     0.000002865394     0.000000160546
      12        0.000000781412    -0.000001088036    -0.000002217907
      13        0.000001039678    -0.000001961241    -0.000002161518

  **** Optimization is complete! (in 5 steps) ****
    Final optimized geometry and variables:
    Molecular point group: c1

    Geometry (in Angstrom), charge = 0, multiplicity = 1:

    H           -2.870130937537    -0.185531157640    -0.703264465522
    O           -2.325390078343    -0.285803670297     0.052854053874
    C           -1.173123013047     0.508276474071    -0.057641172506
    C            0.053856950614    -0.374520656123     0.019709583401
    H           -1.159273005680     1.064605269138    -0.988137226947
    H           -1.151331041542     1.225884336881     0.753547093682
    O            1.180347967387     0.439616534439    -0.032024733815
    H            0.049584997076    -1.084255956177    -0.806003715151
    H            0.028577809311    -0.946784874903     0.944738653795
    C            2.388517111365    -0.240590923726     0.057064099597
    H            2.508177019353    -0.947486050621    -0.760957392714
    H            3.184019237401     0.488456165231     0.006122091864
    H            2.470270362848    -0.783942203184     0.995571011480

  Mulliken Charges: (a.u.)
   Center  Symbol    Alpha    Beta     Spin     Total
       1     H     0.38886  0.38886  0.00000  0.22228
       2     O     4.20676  4.20676  0.00000 -0.41353
       3     C     2.97138  2.97138  0.00000  0.05724
       4     C     2.95854  2.95854  0.00000  0.08291
       5     H     0.46941  0.46941  0.00000  0.06118
       6     H     0.46194  0.46194  0.00000  0.07612
       7     O     4.17656  4.17656  0.00000 -0.35312
       8     H     0.47677  0.47677  0.00000  0.04645
       9     H     0.47074  0.47074  0.00000  0.05853
      10     C     3.03096  3.03096  0.00000 -0.06191
      11     H     0.47112  0.47112  0.00000  0.05775
      12     H     0.44687  0.44687  0.00000  0.10627
      13     H     0.47008  0.47008  0.00000  0.05984

   Total alpha = 21.00000, Total beta = 21.00000, Total charge =  0.00000

*** Psi4 exiting successfully. Buy a developer a beer!
