  ==> Input File <==

--------------------------------------------------------------------------
set {
	reference rhf
	basis 6-31G*
}

set_num_threads( 4 )
memory 2 gb

molecule MOL {
0 1

H	 2.427017	 2.816795	 1.138636
O	 1.483121	 2.767226	 1.195296
C	 1.020188	 1.647506	 0.598377
C	 1.863119	 0.722863	 -0.004787
C	 -0.347782	 1.437560	 0.601732
H	 2.927410	 0.888148	 -0.006287
C	 1.338120	 -0.410024	 -0.603630
H	 -0.999993	 2.150979	 1.067276
C	 -0.865228	 0.300799	 0.000000
H	 2.000389	 -1.118442	 -1.067227
C	 -0.027775	 -0.627882	 -0.604975
C	 -2.333960	 0.069074	 0.000000
H	 -0.437717	 -1.507162	 -1.069539
O	 -2.847347	 -1.003763	 0.000000
H	 -2.943845	 0.977528	 0.000000

	symmetry c1
}
set optking {
	frozen_dihedral = ("
		11 9 12 14
	")
}

ee = optimize('scf')
oeprop('DIPOLE', 'QUADRUPOLE', 'MULLIKEN_CHARGES')
f=open( 'psi4out.xyz', 'w' )
f.write( "15  " )
f.write( str(ee) + "\n" )
f.write( MOL.save_string_xyz() )
f.close()
--------------------------------------------------------------------------

    Molecular point group: c1
  Charge       = 0
  Multiplicity = 1
  Basis Set: 6-31G*
  Basis Set:
  @DF-RHF Final Energy:  -418.28337181585829
    Total Energy =                       -418.2833718158581178
    Molecular point group: c1
  Basis Set: 6-31G*
  Basis Set:
  Basis Set: 6-31G*
  Basis Set:
  @DF-RHF Final Energy:  -418.28199878211319
    Total Energy =                       -418.2819987821127370
  Basis Set: 6-31G*
  Basis Set:
  Basis Set: 6-31G*
  Basis Set:
  @DF-RHF Final Energy:  -418.28367362660055
    Total Energy =                       -418.2836736266004891
  Basis Set: 6-31G*
  Basis Set:
  Basis Set: 6-31G*
  Basis Set:
  @DF-RHF Final Energy:  -418.28385347660122
    Total Energy =                       -418.2838534766015073
  Basis Set: 6-31G*
  Basis Set:
  Charge       = 0
  Multiplicity = 1
  Basis Set: 6-31G*
  Basis Set:

    Orbital Energies (a.u.)
    -----------------------

    Doubly Occupied:

       1A    -20.604472     2A    -20.566474     3A    -11.333372
       4A    -11.314649     5A    -11.253305     6A    -11.251207
       7A    -11.247826     8A    -11.245694     9A    -11.239482
      10A     -1.423878    11A     -1.406513    12A     -1.169236
      13A     -1.050546    14A     -1.024506    15A     -0.901086
      16A     -0.845412    17A     -0.814059    18A     -0.738044
      19A     -0.701043    20A     -0.673244    21A     -0.663245
      22A     -0.629103    23A     -0.612102    24A     -0.603487
      25A     -0.579390    26A     -0.544654    27A     -0.538883
      28A     -0.515712    29A     -0.486683    30A     -0.423759
      31A     -0.355446    32A     -0.324392

  @DF-RHF Final Energy:  -418.28385650861486

   => Energetics <=

    Nuclear Repulsion Energy =            402.1932111104729870
    One-Electron Energy =               -1366.7923295320874786
    Two-Electron Energy =                 546.3152619129997447
    DFT Exchange-Correlation Energy =       0.0000000000000000
    Empirical Dispersion Energy =           0.0000000000000000
    PCM Polarization Energy =               0.0000000000000000
    EFP Energy =                            0.0000000000000000
    Total Energy =                       -418.2838565086148037
    Molecular point group: c1
  Basis Set: 6-31G*
  Basis Set:

  -Total Gradient:
     Atom            X                  Y                   Z
    ------   -----------------  -----------------  -----------------
       1       -0.000002593851    -0.000003886765     0.000001482436
       2        0.000050774189    -0.000008823043    -0.000037552872
       3       -0.000442509123     0.000111734000     0.000143394995
       4        0.000059302403    -0.000439401935    -0.000131253114
       5        0.000306022875     0.000245615117     0.000028782284
       6       -0.000000289455     0.000023551634    -0.000007822952
       7        0.000333771827     0.000313385159     0.000021838168
       8       -0.000020070014    -0.000042423574     0.000000828151
       9        0.000382225341    -0.003651394323     0.007729820468
      10       -0.000012579015    -0.000027271107     0.000010864603
      11       -0.000626746997     0.002421064129    -0.003636865855
      12        0.000008805954     0.001316129884    -0.009445281759
      13        0.000017573766    -0.000030639381     0.000005027405
      14       -0.000099969111    -0.000217350337     0.005339135742
      15        0.000046281207    -0.000010289452    -0.000022397701

  **** Optimization is complete! (in 5 steps) ****
    Final optimized geometry and variables:
    Molecular point group: c1

    Geometry (in Angstrom), charge = 0, multiplicity = 1:

    H            2.508700839978     2.250011927004     0.995909757285
    O            1.564424186096     2.196330947465     1.043820051911
    C            1.114346956696     1.070600718713     0.447323461714
    C            1.958240470962     0.151523305852    -0.153884726686
    C           -0.256358443960     0.856704944771     0.438404344597
    H            3.021659768520     0.322025585696    -0.160439159969
    C            1.432495167232    -0.983476532767    -0.755959983256
    H           -0.899531264580     1.589851654994     0.891243188510
    C           -0.768560764077    -0.293998031831    -0.135584203147
    H            2.097127644898    -1.683407206855    -1.229145305916
    C            0.071863845913    -1.215947441051    -0.751210001177
    C           -2.243439329724    -0.496818419758    -0.157949390891
    H           -0.345113040489    -2.094800302131    -1.204801403124
    O           -2.769348048188    -1.563027534825    -0.191168051270
    H           -2.840959844312     0.417353673514    -0.098234234742

  Mulliken Charges: (a.u.)
   Center  Symbol    Alpha    Beta     Spin     Total
       1     H     0.27008  0.27008  0.00000  0.45984
       2     O     4.37730  4.37730  0.00000 -0.75459
       3     C     2.79466  2.79466  0.00000  0.41068
       4     C     3.13655  3.13655  0.00000 -0.27310
       5     C     3.12857  3.12857  0.00000 -0.25714
       6     H     0.39940  0.39940  0.00000  0.20120
       7     C     3.09383  3.09383  0.00000 -0.18766
       8     H     0.38517  0.38517  0.00000  0.22967
       9     C     3.03604  3.03604  0.00000 -0.07208
      10     H     0.39264  0.39264  0.00000  0.21472
      11     C     3.10436  3.10436  0.00000 -0.20873
      12     C     2.83894  2.83894  0.00000  0.32212
      13     H     0.38127  0.38127  0.00000  0.23746
      14     O     4.24022  4.24022  0.00000 -0.48043
      15     H     0.42098  0.42098  0.00000  0.15804

   Total alpha = 32.00000, Total beta = 32.00000, Total charge =  0.00000
