  ==> Input File <==

--------------------------------------------------------------------------
set {
	reference rhf
	basis 6-31G*
}

set_num_threads( 4 )
memory 2 gb

molecule MOL {
0 1

H	 1.179365	 -5.448648	 -1.353414
O	 2.072120	 -5.241920	 -1.588623
C	 2.095104	 -4.091818	 -2.395339
C	 1.803617	 -2.809910	 -1.623020
H	 3.091694	 -4.046851	 -2.815409
H	 1.398495	 -4.195367	 -3.226479
C	 0.395917	 -2.750077	 -1.024967
H	 2.541194	 -2.709187	 -0.831059
H	 1.945862	 -1.967616	 -2.298057
C	 0.115918	 -1.429151	 -0.302766
H	 0.266894	 -3.576872	 -0.332053
H	 -0.340209	 -2.886960	 -1.817256
C	 -1.309753	 -1.282496	 0.241564
H	 0.826627	 -1.309501	 0.512969
H	 0.306773	 -0.610120	 -0.993029
C	 -2.037799	 -0.007733	 -0.193645
H	 -1.890610	 -2.142323	 -0.085726
H	 -1.285946	 -1.330893	 1.329189
C	 -3.489788	 0.042957	 0.286558
H	 -2.017067	 0.064384	 -1.280144
H	 -1.513726	 0.868678	 0.179924
C	 -4.216917	 1.317354	 -0.141063
H	 -4.025645	 -0.823308	 -0.095450
H	 -3.513059	 -0.038752	 1.371301
H	 -4.239342	 1.411634	 -1.223113
H	 -5.243387	 1.322503	 0.212445
H	 -3.726170	 2.201406	 0.256408

	symmetry c1
}
set optking {
	frozen_dihedral = ("
		14 10 13 16
	")
}

ee = optimize('scf')
oeprop('DIPOLE', 'QUADRUPOLE', 'MULLIKEN_CHARGES')
f=open( 'psi4out.xyz', 'w' )
f.write( "27  " )
f.write( str(ee) + "\n" )
f.write( MOL.save_string_xyz() )
f.close()
--------------------------------------------------------------------------

    Molecular point group: c1
  Charge       = 0
  Multiplicity = 1
  Basis Set: 6-31G*
  Basis Set:
  @DF-RHF Final Energy:  -388.27771647570830
    Total Energy =                       -388.2777164757083028
    Molecular point group: c1
  Basis Set: 6-31G*
  Basis Set:
  Basis Set: 6-31G*
  Basis Set:
  @DF-RHF Final Energy:  -388.27824997918776
    Total Energy =                       -388.2782499791883311
  Basis Set: 6-31G*
  Basis Set:
  Basis Set: 6-31G*
  Basis Set:
  @DF-RHF Final Energy:  -388.27834223066532
    Total Energy =                       -388.2783422306650891
  Basis Set: 6-31G*
  Basis Set:
  Basis Set: 6-31G*
  Basis Set:
  @DF-RHF Final Energy:  -388.27834052450328
    Total Energy =                       -388.2783405245043014
  Basis Set: 6-31G*
  Basis Set:
  Basis Set: 6-31G*
  Basis Set:
  @DF-RHF Final Energy:  -388.27835993153462
    Total Energy =                       -388.2783599315348511
  Basis Set: 6-31G*
  Basis Set:
  Basis Set: 6-31G*
  Basis Set:
  @DF-RHF Final Energy:  -388.27835762968101
    Total Energy =                       -388.2783576296808405
  Basis Set: 6-31G*
  Basis Set:
  Basis Set: 6-31G*
  Basis Set:
  @DF-RHF Final Energy:  -388.27836116025424
    Total Energy =                       -388.2783611602543488
  Basis Set: 6-31G*
  Basis Set:
  Charge       = 0
  Multiplicity = 1
  Basis Set: 6-31G*
  Basis Set:

    Orbital Energies (a.u.)
    -----------------------

    Doubly Occupied:

       1A    -20.552140     2A    -11.267060     3A    -11.220678
       4A    -11.216816     5A    -11.215837     6A    -11.215276
       7A    -11.215095     8A    -11.214619     9A    -11.209378
      10A     -1.358955    11A     -1.093726    12A     -1.062591
      13A     -1.010706    14A     -0.950474    15A     -0.882581
      16A     -0.820826    17A     -0.792529    18A     -0.790717
      19A     -0.693956    20A     -0.653210    21A     -0.634416
      22A     -0.615440    23A     -0.603343    24A     -0.582641
      25A     -0.578224    26A     -0.554613    27A     -0.536021
      28A     -0.523093    29A     -0.507832    30A     -0.500164
      31A     -0.477102    32A     -0.476479    33A     -0.470573
      34A     -0.462397    35A     -0.455001    36A     -0.441590
      37A     -0.420613

  @DF-RHF Final Energy:  -388.27836114489520

   => Energetics <=

    Nuclear Repulsion Energy =            452.4489778672438547
    One-Electron Energy =               -1422.9012569528522363
    Two-Electron Energy =                 582.1739179407134088
    DFT Exchange-Correlation Energy =       0.0000000000000000
    Empirical Dispersion Energy =           0.0000000000000000
    PCM Polarization Energy =               0.0000000000000000
    EFP Energy =                            0.0000000000000000
    Total Energy =                       -388.2783611448949159
    Molecular point group: c1
  Basis Set: 6-31G*
  Basis Set:

  -Total Gradient:
     Atom            X                  Y                   Z
    ------   -----------------  -----------------  -----------------
       1        0.000003265880    -0.000000249992    -0.000003589266
       2        0.000005537861     0.000003613707     0.000001026869
       3       -0.000012103467    -0.000002540916    -0.000011165294
       4       -0.000003320373     0.000003734513     0.000009997003
       5       -0.000000347847    -0.000001024083     0.000000091116
       6       -0.000000164308    -0.000002392475     0.000000146242
       7       -0.000005675599     0.000005982093     0.000002017669
       8       -0.000004518267    -0.000001048317     0.000004502522
       9        0.000002338350    -0.000000601742     0.000002532752
      10       -0.000166058814     0.002167975639    -0.000848625441
      11       -0.000009695696     0.000000040800     0.000008773290
      12        0.000008501448    -0.000006790733    -0.000001422775
      13        0.000680731639     0.000437723045     0.001744107052
      14       -0.000015673136    -0.001936083907     0.000282598944
      15        0.000012905303     0.000006742415    -0.000010132741
      16       -0.000479572790    -0.000664434954    -0.001166514285
      17       -0.000013692961     0.000003104791     0.000009008319
      18       -0.000004299686    -0.000008521899    -0.000001557879
      19       -0.000005879089    -0.000016773388    -0.000022394625
      20        0.000000668975     0.000008692687    -0.000001303840
      21        0.000007783667     0.000001740758     0.000002758115
      22        0.000001347672     0.000003478904     0.000003742922
      23       -0.000007858634    -0.000000963274    -0.000001051961
      24        0.000005913320    -0.000002926671    -0.000005987495
      25       -0.000001871957    -0.000001952194     0.000001956010
      26        0.000000326322     0.000002822300     0.000003081400
      27        0.000001412188     0.000000652899    -0.000002594621

  **** Optimization is complete! (in 8 steps) ****
    Final optimized geometry and variables:
    Molecular point group: c1

    Geometry (in Angstrom), charge = 0, multiplicity = 1:

    H            1.614916287812    -3.578997234528    -0.601564115160
    O            2.523776484595    -3.400937313003    -0.795082592466
    C            2.620794479394    -2.247982446575    -1.591889664011
    C            2.323554614563    -0.962606315585    -0.827384941391
    H            3.639174995928    -2.228642924993    -1.958091797048
    H            1.966820360027    -2.327981306269    -2.459491581947
    C            0.888795689569    -0.866872382180    -0.305430781645
    H            3.020463165149    -0.886025425250     0.003171448626
    H            2.524007832459    -0.120736246098    -1.488221254719
    C            0.593979615302     0.456582935023     0.406340928455
    H            0.696366154570    -1.685012125375     0.386041790605
    H            0.191283777422    -0.989339028090    -1.133990783579
    C           -0.844820711354     0.547855044740     0.960221796805
    H            1.309438160247     0.573696887341     1.215971745111
    H            0.777687685021     1.275078727387    -0.285500012543
    C           -1.581895738597     1.822492738267     0.542290423281
    H           -1.421209079009    -0.309215665499     0.617671258981
    H           -0.829985457856     0.479831274103     2.044825549398
    C           -3.004131738634     1.910998270910     1.097091785453
    H           -1.615386074521     1.873456934996    -0.545003548161
    H           -1.013853219331     2.692241435210     0.869176483670
    C           -3.734749031291     3.183540783709     0.669573429163
    H           -3.572465070610     1.042155671970     0.771316275857
    H           -2.970099626248     1.862484199431     2.183457719070
    H           -3.816615784445     3.244151988141    -0.412056372613
    H           -4.739519634645     3.217391057069     1.079327677826
    H           -3.208662006788     4.070852741293     1.010330019493

  Mulliken Charges: (a.u.)
   Center  Symbol    Alpha    Beta     Spin     Total
       1     H     0.27990  0.27990  0.00000  0.44019
       2     O     4.37096  4.37096  0.00000 -0.74192
       3     C     2.99718  2.99718  0.00000  0.00565
       4     C     3.16209  3.16209  0.00000 -0.32418
       5     H     0.41444  0.41444  0.00000  0.17113
       6     H     0.43208  0.43208  0.00000  0.13584
       7     C     3.16375  3.16375  0.00000 -0.32750
       8     H     0.41499  0.41499  0.00000  0.17002
       9     H     0.42413  0.42413  0.00000  0.15173
      10     C     3.15335  3.15335  0.00000 -0.30670
      11     H     0.42455  0.42455  0.00000  0.15091
      12     H     0.42494  0.42494  0.00000  0.15012
      13     C     3.15523  3.15523  0.00000 -0.31046
      14     H     0.41905  0.41905  0.00000  0.16191
      15     H     0.42014  0.42014  0.00000  0.15972
      16     C     3.15254  3.15254  0.00000 -0.30509
      17     H     0.42249  0.42249  0.00000  0.15503
      18     H     0.42008  0.42008  0.00000  0.15985
      19     C     3.15218  3.15218  0.00000 -0.30436
      20     H     0.42444  0.42444  0.00000  0.15112
      21     H     0.42322  0.42322  0.00000  0.15355
      22     C     3.23918  3.23918  0.00000 -0.47836
      23     H     0.42338  0.42338  0.00000  0.15323
      24     H     0.42283  0.42283  0.00000  0.15435
      25     H     0.42200  0.42200  0.00000  0.15601
      26     H     0.41926  0.41926  0.00000  0.16147
      27     H     0.42164  0.42164  0.00000  0.15673

   Total alpha = 37.00000, Total beta = 37.00000, Total charge =  0.00000
