  ==> Input File <==

--------------------------------------------------------------------------
set {
	reference rhf
	basis 6-31G*
}

set_num_threads( 4 )
memory 2 gb

molecule MOL {
0 1

H	 2.041449	 2.153556	 -0.876503
N	 1.227522	 1.574611	 -0.953039
C	 1.267428	 0.496480	 0.024474
H	 1.222456	 1.204062	 -1.884479
C	 -0.016086	 -0.325158	 -0.029487
H	 1.363874	 0.946480	 1.007953
H	 2.127251	 -0.166107	 -0.102267
C	 -1.282277	 0.529072	 0.046735
H	 -0.012495	 -0.908639	 -0.945788
H	 -0.015903	 -1.041248	 0.791956
C	 -2.563920	 -0.301775	 -0.006060
H	 -1.284084	 1.244622	 -0.773004
H	 -1.271387	 1.115393	 0.963286
H	 -2.621848	 -0.873522	 -0.927727
H	 -3.445135	 0.329952	 0.047812
H	 -2.609542	 -1.004582	 0.821105

	symmetry c1
}
set optking {
	frozen_dihedral = ("
		6 3 5 9
	")
}

ee = optimize('scf')
oeprop('DIPOLE', 'QUADRUPOLE', 'MULLIKEN_CHARGES')
f=open( 'psi4out.xyz', 'w' )
f.write( "16  " )
f.write( str(ee) + "\n" )
f.write( MOL.save_string_xyz() )
f.close()
--------------------------------------------------------------------------

    Molecular point group: c1
  Charge       = 0
  Multiplicity = 1
  Basis Set: 6-31G*
  Basis Set:
  @DF-RHF Final Energy:  -212.31560390797355
    Total Energy =                       -212.3156039079734683
    Molecular point group: c1
  Basis Set: 6-31G*
  Basis Set:
  Basis Set: 6-31G*
  Basis Set:
  @DF-RHF Final Energy:  -212.31597122020608
    Total Energy =                       -212.3159712202059950
  Basis Set: 6-31G*
  Basis Set:
  Basis Set: 6-31G*
  Basis Set:
  @DF-RHF Final Energy:  -212.31619526484056
    Total Energy =                       -212.3161952648403030
  Basis Set: 6-31G*
  Basis Set:
  Basis Set: 6-31G*
  Basis Set:
  @DF-RHF Final Energy:  -212.31620061341553
    Total Energy =                       -212.3162006134155035
  Basis Set: 6-31G*
  Basis Set:
  Charge       = 0
  Multiplicity = 1
  Basis Set: 6-31G*
  Basis Set:

    Orbital Energies (a.u.)
    -----------------------

    Doubly Occupied:

       1A    -15.533739     2A    -11.240894     3A    -11.210766
       4A    -11.204474     5A    -11.202602     6A     -1.177856
       7A     -1.052193     8A     -0.958165     9A     -0.846628
      10A     -0.780930    11A     -0.666541    12A     -0.622479
      13A     -0.613885    14A     -0.573845    15A     -0.562071
      16A     -0.519286    17A     -0.498953    18A     -0.466731
      19A     -0.461525    20A     -0.457569    21A     -0.379409

  @DF-RHF Final Energy:  -212.31620133537004

   => Energetics <=

    Nuclear Repulsion Energy =            188.9475339035506352
    One-Electron Energy =                -660.4663908007864848
    Two-Electron Energy =                 259.2026555618658108
    DFT Exchange-Correlation Energy =       0.0000000000000000
    Empirical Dispersion Energy =           0.0000000000000000
    PCM Polarization Energy =               0.0000000000000000
    EFP Energy =                            0.0000000000000000
    Total Energy =                       -212.3162013353700672
    Molecular point group: c1
  Basis Set: 6-31G*
  Basis Set:

  -Total Gradient:
     Atom            X                  Y                   Z
    ------   -----------------  -----------------  -----------------
       1        0.000019115231     0.000037075395    -0.000041273785
       2        0.000052524668    -0.000083013104     0.000032412347
       3       -0.001423456049     0.002249700629    -0.000715181138
       4        0.000005234574     0.000031250013    -0.000050615746
       5       -0.001162861981     0.001978586875    -0.001461852940
       6        0.001334328508    -0.002188333654     0.000915130260
       7        0.000037365180     0.000064370847    -0.000069304072
       8        0.000062387034    -0.000079010594     0.000102073596
       9        0.001194310867    -0.002053684232     0.001297053435
      10       -0.000079366376    -0.000004894524     0.000015228362
      11       -0.000030860080     0.000016343700    -0.000007091522
      12        0.000026678879     0.000017321366    -0.000021293692
      13       -0.000035362629     0.000005254624     0.000004134274
      14        0.000023154761     0.000005196916     0.000014647008
      15       -0.000015477514    -0.000009817966    -0.000018866177
      16       -0.000007715068     0.000013653710     0.000004799790

  **** Optimization is complete! (in 5 steps) ****
    Final optimized geometry and variables:
    Molecular point group: c1

    Geometry (in Angstrom), charge = 0, multiplicity = 1:

    H            2.376346747388     1.719574839016    -0.656113218312
    N            1.547398754059     1.167349704340    -0.762299498669
    C            1.510094505840     0.101060878732     0.227655289305
    H            1.571285195419     0.783910011393    -1.688539354382
    C            0.216743717810    -0.709112812527     0.150024649624
    H            1.595161696982     0.546923289650     1.214247818614
    H            2.352455195957    -0.589004998728     0.136579591953
    C           -1.062386031868     0.121789176621     0.249216827621
    H            0.214875046956    -1.297701765658    -0.767501313113
    H            0.235384915427    -1.438905447485     0.958151968382
    C           -2.324611746459    -0.740030863602     0.224294623116
    H           -1.090969718090     0.841780413981    -0.560056774165
    H           -1.037839351407     0.701624479449     1.169582112179
    H           -2.389481466366    -1.315132099554    -0.695606038667
    H           -3.218997148104    -0.128266266908     0.293101295538
    H           -2.341086002698    -1.443100074406     1.052820102075

  Mulliken Charges: (a.u.)
   Center  Symbol    Alpha    Beta     Spin     Total
       1     H     0.33157  0.33157  0.00000  0.33685
       2     N     3.91998  3.91998  0.00000 -0.83996
       3     C     3.06348  3.06348  0.00000 -0.12696
       4     H     0.33544  0.33544  0.00000  0.32913
       5     C     3.15709  3.15709  0.00000 -0.31419
       6     H     0.42079  0.42079  0.00000  0.15842
       7     H     0.43252  0.43252  0.00000  0.13495
       8     C     3.14667  3.14667  0.00000 -0.29333
       9     H     0.42731  0.42731  0.00000  0.14539
      10     H     0.42350  0.42350  0.00000  0.15300
      11     C     3.24018  3.24018  0.00000 -0.48036
      12     H     0.40895  0.40895  0.00000  0.18209
      13     H     0.42481  0.42481  0.00000  0.15037
      14     H     0.42380  0.42380  0.00000  0.15239
      15     H     0.41979  0.41979  0.00000  0.16042
      16     H     0.42411  0.42411  0.00000  0.15178

   Total alpha = 21.00000, Total beta = 21.00000, Total charge =  0.00000
