  ==> Input File <==

--------------------------------------------------------------------------
set {
	reference rhf
	basis 6-31G*
}

set_num_threads( 4 )
memory 2 gb

molecule MOL {
0 1

H	 -1.915499	 -0.052598	 0.518329
N	 -1.172117	 -0.314371	 -0.100254
C	 -0.024542	 0.565565	 0.069209
H	 -0.925796	 -1.259477	 0.125972
C	 1.271298	 -0.229563	 -0.014192
H	 -0.049409	 1.297310	 -0.731596
H	 -0.046881	 1.125219	 1.006750
H	 1.332152	 -0.753033	 -0.961461
H	 2.134169	 0.422483	 0.080702
H	 1.326077	 -0.968298	 0.781395

	symmetry c1
}
set optking {
	frozen_dihedral = ("
		1 2 3 6
	")
}

ee = optimize('scf')
oeprop('DIPOLE', 'QUADRUPOLE', 'MULLIKEN_CHARGES')
f=open( 'psi4out.xyz', 'w' )
f.write( "10  " )
f.write( str(ee) + "\n" )
f.write( MOL.save_string_xyz() )
f.close()
--------------------------------------------------------------------------

    Molecular point group: c1
  Charge       = 0
  Multiplicity = 1
  Basis Set: 6-31G*
  Basis Set:
  @DF-RHF Final Energy:  -134.24388935742445
    Total Energy =                       -134.2438893574243934
    Molecular point group: c1
  Basis Set: 6-31G*
  Basis Set:
  Basis Set: 6-31G*
  Basis Set:
  @DF-RHF Final Energy:  -134.24414567715596
    Total Energy =                       -134.2441456771560411
  Basis Set: 6-31G*
  Basis Set:
  Basis Set: 6-31G*
  Basis Set:
  @DF-RHF Final Energy:  -134.24420177819491
    Total Energy =                       -134.2442017781948493
  Basis Set: 6-31G*
  Basis Set:
  Basis Set: 6-31G*
  Basis Set:
  @DF-RHF Final Energy:  -134.24420308941237
    Total Energy =                       -134.2442030894123377
  Basis Set: 6-31G*
  Basis Set:
  Charge       = 0
  Multiplicity = 1
  Basis Set: 6-31G*
  Basis Set:

    Orbital Energies (a.u.)
    -----------------------

    Doubly Occupied:

       1A    -15.531401     2A    -11.242567     3A    -11.213209
       4A     -1.174811     5A     -0.989907     6A     -0.829027
       7A     -0.657488     8A     -0.624575     9A     -0.591257
      10A     -0.524972    11A     -0.503009    12A     -0.493165
      13A     -0.380444

  @DF-RHF Final Energy:  -134.24420331230604

   => Energetics <=

    Nuclear Repulsion Energy =             83.3439181048910029
    One-Electron Energy =                -345.6645792801826929
    Two-Electron Energy =                 128.0764578629855919
    DFT Exchange-Correlation Energy =       0.0000000000000000
    Empirical Dispersion Energy =           0.0000000000000000
    PCM Polarization Energy =               0.0000000000000000
    EFP Energy =                            0.0000000000000000
    Total Energy =                       -134.2442033123060696
    Molecular point group: c1
  Basis Set: 6-31G*
  Basis Set:

  -Total Gradient:
     Atom            X                  Y                   Z
    ------   -----------------  -----------------  -----------------
       1        0.001204583311    -0.002090272021     0.002364980990
       2       -0.001093241455     0.002178395329    -0.003368493398
       3       -0.001815949564     0.001765552904     0.002789750573
       4        0.000004530103    -0.000000830844    -0.000015863370
       5       -0.000009467575     0.000001821179     0.000003804488
       6        0.001691692707    -0.001887883407    -0.001757587798
       7        0.000013099002     0.000018866342     0.000000255939
       8        0.000002602383    -0.000008626029    -0.000001318259
       9        0.000009629179     0.000010776631    -0.000001702264
      10       -0.000007478090     0.000012199916    -0.000013826902

  **** Optimization is complete! (in 5 steps) ****
    Final optimized geometry and variables:
    Molecular point group: c1

    Geometry (in Angstrom), charge = 0, multiplicity = 1:

    H           -1.939728349399    -0.039131323527     0.501527702054
    N           -1.191388532413    -0.299613830121    -0.110147805089
    C           -0.032026593804     0.573018139218     0.073652632353
    H           -0.957921261447    -1.243472190637     0.131404614747
    C            1.270332221523    -0.214711626161    -0.014215527290
    H           -0.029305482307     1.316937225186    -0.717026240915
    H           -0.065256198844     1.106310974563     1.022116481853
    H            1.323044118001    -0.757224773515    -0.953168184636
    H            2.128487527972     0.447137611720     0.040917886639
    H            1.349956253737    -0.933912290070     0.796952498011

  Mulliken Charges: (a.u.)
   Center  Symbol    Alpha    Beta     Spin     Total
       1     H     0.33300  0.33300  0.00000  0.33401
       2     N     3.92447  3.92447  0.00000 -0.84893
       3     C     3.05256  3.05256  0.00000 -0.10512
       4     H     0.33402  0.33402  0.00000  0.33195
       5     C     3.25253  3.25253  0.00000 -0.50507
       6     H     0.41860  0.41860  0.00000  0.16279
       7     H     0.43040  0.43040  0.00000  0.13920
       8     H     0.41332  0.41332  0.00000  0.17336
       9     H     0.41725  0.41725  0.00000  0.16550
      10     H     0.42385  0.42385  0.00000  0.15229

   Total alpha = 13.00000, Total beta = 13.00000, Total charge =  0.00000
