  ==> Input File <==

--------------------------------------------------------------------------
set {
	reference rhf
	basis 6-31G*
}

set_num_threads( 4 )
memory 2 gb

molecule MOL {
0 1

H	 -2.798360	 -0.862255	 -0.071053
N	 -1.863561	 -0.715187	 0.256814
C	 -1.344686	 0.554728	 -0.219830
H	 -1.300452	 -1.461917	 -0.101532
C	 0.081427	 0.741154	 0.254071
H	 -1.362155	 0.656231	 -1.305829
H	 -1.952773	 1.354456	 0.191809
O	 0.329817	 -0.185298	 1.272440
H	 0.775915	 0.585462	 -0.571207
H	 0.213729	 1.754865	 0.625717
C	 1.585380	 -0.067957	 1.861815
H	 1.661638	 -0.829671	 2.625802
H	 2.381792	 -0.218337	 1.135114
H	 1.718570	 0.908641	 2.322604

	symmetry c1
}
set optking {
	frozen_dihedral = ("
		8 5 3 6
	")
}

ee = optimize('scf')
oeprop('DIPOLE', 'QUADRUPOLE', 'MULLIKEN_CHARGES')
f=open( 'psi4out.xyz', 'w' )
f.write( "14  " )
f.write( str(ee) + "\n" )
f.write( MOL.save_string_xyz() )
f.close()
--------------------------------------------------------------------------

    Molecular point group: c1
  Charge       = 0
  Multiplicity = 1
  Basis Set: 6-31G*
  Basis Set:
  @DF-RHF Final Energy:  -248.10850178309707
    Total Energy =                       -248.1085017830970401
    Molecular point group: c1
  Basis Set: 6-31G*
  Basis Set:
  Basis Set: 6-31G*
  Basis Set:
  @DF-RHF Final Energy:  -248.10962556728134
    Total Energy =                       -248.1096255672814550
  Basis Set: 6-31G*
  Basis Set:
  Basis Set: 6-31G*
  Basis Set:
  @DF-RHF Final Energy:  -248.11146888256755
    Total Energy =                       -248.1114688825676353
  Basis Set: 6-31G*
  Basis Set:
  Basis Set: 6-31G*
  Basis Set:
  @DF-RHF Final Energy:  -248.11168777034615
    Total Energy =                       -248.1116877703461796
  Basis Set: 6-31G*
  Basis Set:
  @DF-RHF Final Energy:  -248.11178513233278
    Total Energy =                       -248.1117851323327841
  @DF-RHF Final Energy:  -248.11185333193620
    Total Energy =                       -248.1118533319361745
  @DF-RHF Final Energy:  -248.11192845181358
    Total Energy =                       -248.1119284518135260
  @DF-RHF Final Energy:  -248.11194527623317
    Total Energy =                       -248.1119452762333140
  @DF-RHF Final Energy:  -248.11195240398234
    Total Energy =                       -248.1119524039824000
  @DF-RHF Final Energy:  -248.11196010110399
    Total Energy =                       -248.1119601011039890
  @DF-RHF Final Energy:  -248.11198004002182
    Total Energy =                       -248.1119800400217059
  @DF-RHF Final Energy:  -248.11204640098339
    Total Energy =                       -248.1120464009832745
  @DF-RHF Final Energy:  -248.11218965083418
    Total Energy =                       -248.1121896508342388
  @DF-RHF Final Energy:  -248.11243589108196
    Total Energy =                       -248.1124358910819296
  @DF-RHF Final Energy:  -248.11383444482874
    Total Energy =                       -248.1138344448286261
  @DF-RHF Final Energy:  -248.11656616102576
    Total Energy =                       -248.1165661610256734
  Basis Set: 6-31G*
  Basis Set:
  @DF-RHF Final Energy:  -248.11793673349223
    Total Energy =                       -248.1179367334921153
  Basis Set: 6-31G*
  Basis Set:
  Basis Set: 6-31G*
  Basis Set:
  @DF-RHF Final Energy:  -248.11807849402612
    Total Energy =                       -248.1180784940260651
  Basis Set: 6-31G*
  Basis Set:
  Basis Set: 6-31G*
  Basis Set:
  @DF-RHF Final Energy:  -248.11807292831182
    Total Energy =                       -248.1180729283117898
  Basis Set: 6-31G*
  Basis Set:
  Charge       = 0
  Multiplicity = 1
  Basis Set: 6-31G*
  Basis Set:

    Orbital Energies (a.u.)
    -----------------------

    Doubly Occupied:

       1A    -20.562138     2A    -15.525969     3A    -11.270601
       4A    -11.269973     5A    -11.242220     6A     -1.386404
       7A     -1.170918     8A     -0.995472     9A     -0.912663
      10A     -0.820085    11A     -0.688310    12A     -0.662812
      13A     -0.647335    14A     -0.641887    15A     -0.571749
      16A     -0.555250    17A     -0.526008    18A     -0.499100
      19A     -0.479559    20A     -0.418662    21A     -0.378710

  @DF-RHF Final Energy:  -248.11810663636999

   => Energetics <=

    Nuclear Repulsion Energy =            194.7605619017523395
    One-Electron Energy =                -723.3056874758769936
    Two-Electron Energy =                 280.4270189377547240
    DFT Exchange-Correlation Energy =       0.0000000000000000
    Empirical Dispersion Energy =           0.0000000000000000
    PCM Polarization Energy =               0.0000000000000000
    EFP Energy =                            0.0000000000000000
    Total Energy =                       -248.1181066363699301
    Molecular point group: c1
  Basis Set: 6-31G*
  Basis Set:

  -Total Gradient:
     Atom            X                  Y                   Z
    ------   -----------------  -----------------  -----------------
       1       -0.000007870090    -0.000052546130    -0.000005343147
       2        0.000034086622    -0.000011265470    -0.000028031031
       3       -0.000646378473     0.005866158859     0.000235239894
       4        0.000006147251     0.000048407736    -0.000021415909
       5       -0.001539249537     0.002349027495     0.004017738286
       6        0.000822968724    -0.005523234292    -0.000958923457
       7        0.000021487121     0.000045549973    -0.000001791582
       8        0.001347250260    -0.002724671668    -0.003234075273
       9       -0.000002519228     0.000013583986    -0.000008765931
      10        0.000007450401    -0.000011920814     0.000013522814
      11       -0.000035692266     0.000002119543     0.000006454551
      12       -0.000001215729    -0.000002154636    -0.000000323171
      13       -0.000007867246     0.000001481996    -0.000011176975
      14        0.000001402190    -0.000000536576    -0.000003109070

  **** Optimization is complete! (in 20 steps) ****
    Final optimized geometry and variables:
    Molecular point group: c1

    Geometry (in Angstrom), charge = 0, multiplicity = 1:

    H           -1.264107837793    -1.420426659275    -1.109172540759
    N           -1.767908206826    -0.711424678510    -0.610902287573
    C           -1.146272020435     0.583246537287    -0.823013711202
    H           -1.701024641007    -0.961655486253     0.356241241191
    C            0.318049154641     0.713199381089    -0.346225171479
    H           -1.177228008368     0.766367972356    -1.891357107824
    H           -1.762414154422     1.331791139198    -0.339286433132
    O            0.602676165115    -0.276371133987     0.597421372961
    H            0.999321438164     0.601848642794    -1.190485348173
    H            0.493405937962     1.702029415848     0.075591939786
    C            1.894208385006    -0.214904126341     1.112967098269
    H            2.005314010391    -1.029585744470     1.815500249054
    H            2.640497093055    -0.322000140550     0.327849672854
    H            2.072756981684     0.724892155034     1.631716460091

  Mulliken Charges: (a.u.)
   Center  Symbol    Alpha    Beta     Spin     Total
       1     H     0.33472  0.33472  0.00000  0.33056
       2     N     3.91186  3.91186  0.00000 -0.82372
       3     C     3.07904  3.07904  0.00000 -0.15808
       4     H     0.32577  0.32577  0.00000  0.34846
       5     C     2.99886  2.99886  0.00000  0.00227
       6     H     0.41685  0.41685  0.00000  0.16630
       7     H     0.41450  0.41450  0.00000  0.17100
       8     O     4.30784  4.30784  0.00000 -0.61569
       9     H     0.43213  0.43213  0.00000  0.13573
      10     H     0.42953  0.42953  0.00000  0.14095
      11     C     3.07972  3.07972  0.00000 -0.15943
      12     H     0.41176  0.41176  0.00000  0.17649
      13     H     0.42907  0.42907  0.00000  0.14187
      14     H     0.42835  0.42835  0.00000  0.14330

   Total alpha = 21.00000, Total beta = 21.00000, Total charge =  0.00000
