  ==> Input File <==

--------------------------------------------------------------------------
set {
	reference rhf
	basis 6-31G*
}

set_num_threads( 4 )
memory 2 gb

molecule MOL {
0 1

H	 -0.821032	 -1.655889	 0.000000
O	 -1.037828	 -0.728600	 0.000000
C	 0.100509	 -0.036935	 0.000000
C	 0.330689	 0.660831	 1.309978
O	 0.821731	 0.000023	 -0.942176
H	 -0.492024	 1.336766	 1.512392
H	 1.260050	 1.208389	 1.269754
H	 0.361935	 -0.068672	 2.110955

	symmetry c1
}
set optking {
	frozen_dihedral = ("
		4 3 2 1
	")
}

ee = optimize('scf')
oeprop('DIPOLE', 'QUADRUPOLE', 'MULLIKEN_CHARGES')
f=open( 'psi4out.xyz', 'w' )
f.write( "8  " )
f.write( str(ee) + "\n" )
f.write( MOL.save_string_xyz() )
f.close()
--------------------------------------------------------------------------

    Molecular point group: c1
  Charge       = 0
  Multiplicity = 1
  Basis Set: 6-31G*
  Basis Set:
  @DF-RHF Final Energy:  -227.79042987838372
    Total Energy =                       -227.7904298783836907
    Molecular point group: c1
  Basis Set: 6-31G*
  Basis Set:
  Basis Set: 6-31G*
  Basis Set:
  @DF-RHF Final Energy:  -227.79050008868907
    Total Energy =                       -227.7905000886890434
  Basis Set: 6-31G*
  Basis Set:
  Basis Set: 6-31G*
  Basis Set:
  @DF-RHF Final Energy:  -227.79097951514251
    Total Energy =                       -227.7909795151423680
  Basis Set: 6-31G*
  Basis Set:
  Basis Set: 6-31G*
  Basis Set:
  @DF-RHF Final Energy:  -227.79171878318141
    Total Energy =                       -227.7917187831813521
  Basis Set: 6-31G*
  Basis Set:
  Basis Set: 6-31G*
  Basis Set:
  @DF-RHF Final Energy:  -227.79174409295405
    Total Energy =                       -227.7917440929541613
  Basis Set: 6-31G*
  Basis Set:
  Basis Set: 6-31G*
  Basis Set:
  @DF-RHF Final Energy:  -227.79175418121432
    Total Energy =                       -227.7917541812143440
  Basis Set: 6-31G*
  Basis Set:
  Basis Set: 6-31G*
  Basis Set:
  @DF-RHF Final Energy:  -227.79175536481833
    Total Energy =                       -227.7917553648183002
  Basis Set: 6-31G*
  Basis Set:
  Charge       = 0
  Multiplicity = 1
  Basis Set: 6-31G*
  Basis Set:

    Orbital Energies (a.u.)
    -----------------------

    Doubly Occupied:

       1A    -20.598039     2A    -20.562982     3A    -11.386594
       4A    -11.241601     5A     -1.464189     6A     -1.369078
       7A     -1.023510     8A     -0.826176     9A     -0.706388
      10A     -0.673381    11A     -0.658860    12A     -0.586561
      13A     -0.578398    14A     -0.520253    15A     -0.493419
      16A     -0.450144

  @DF-RHF Final Energy:  -227.79175587567531

   => Energetics <=

    Nuclear Repulsion Energy =            121.8024038077168996
    One-Electron Energy =                -552.9091695513338891
    Two-Electron Energy =                 203.3150098679417397
    DFT Exchange-Correlation Energy =       0.0000000000000000
    Empirical Dispersion Energy =           0.0000000000000000
    PCM Polarization Energy =               0.0000000000000000
    EFP Energy =                            0.0000000000000000
    Total Energy =                       -227.7917558756752214
    Molecular point group: c1
  Basis Set: 6-31G*
  Basis Set:

  -Total Gradient:
     Atom            X                  Y                   Z
    ------   -----------------  -----------------  -----------------
       1       -0.000242586467     0.000084695511     0.009061463299
       2        0.001444684755    -0.001768017931    -0.010514109437
       3       -0.003391752066     0.005991177036    -0.000390666845
       4        0.002451176952    -0.004535085111     0.002031467675
       5       -0.000275767521     0.000239096002    -0.000164754110
       6        0.000002264123    -0.000007651224    -0.000014852151
       7        0.000004930129    -0.000013066238    -0.000017289120
       8        0.000007050095     0.000008851956     0.000008740689

  **** Optimization is complete! (in 8 steps) ****
    Final optimized geometry and variables:
    Molecular point group: c1

    Geometry (in Angstrom), charge = 0, multiplicity = 1:

    H           -0.949254316444    -1.592135283336    -0.115481007434
    O           -1.104889455925    -0.655294075563    -0.127416434783
    C            0.068523429335     0.028763742801    -0.094544158777
    C            0.289148573382     0.740323410205     1.211046009827
    O            0.833075138966     0.008734800173    -0.993627302858
    H           -0.571007364926     1.350969436734     1.458957409740
    H            1.180327592612     1.348046678844     1.159585712570
    H            0.395085288384    -0.002904908963     1.994719257408

  Mulliken Charges: (a.u.)
   Center  Symbol    Alpha    Beta     Spin     Total
       1     H     0.26468  0.26468  0.00000  0.47063
       2     O     4.36296  4.36296  0.00000 -0.72593
       3     C     2.64410  2.64410  0.00000  0.71181
       4     C     3.28300  3.28300  0.00000 -0.56599
       5     O     4.24712  4.24712  0.00000 -0.49425
       6     H     0.39748  0.39748  0.00000  0.20503
       7     H     0.39636  0.39636  0.00000  0.20728
       8     H     0.40429  0.40429  0.00000  0.19142

   Total alpha = 16.00000, Total beta = 16.00000, Total charge =  0.00000
