  ==> Input File <==

--------------------------------------------------------------------------
set {
	reference rhf
	basis 6-31G*
}

set_num_threads( 4 )
memory 2 gb

molecule MOL {
0 1

O	 3.225979	 0.970355	 -0.599647
C	 2.701189	 0.057885	 -0.047330
C	 1.245376	 -0.013843	 0.345420
O	 3.347903	 -1.046386	 0.304773
C	 0.455112	 1.231400	 -0.050772
H	 0.838542	 -0.913825	 -0.103701
H	 1.208210	 -0.175333	 1.419774
C	 -0.998893	 1.219485	 0.433193
H	 0.482531	 1.345121	 -1.130325
H	 0.957290	 2.103070	 0.354729
C	 -1.883438	 0.145884	 -0.207175
H	 -1.431207	 2.195402	 0.224832
H	 -1.019646	 1.105716	 1.516076
C	 -1.641530	 -0.005455	 -1.710364
H	 -1.700196	 -0.808424	 0.284289
H	 -2.933160	 0.377891	 -0.042162
C	 -2.523718	 -1.071928	 -2.361910
H	 -0.595130	 -0.251086	 -1.883412
H	 -1.814195	 0.951191	 -2.200992
C	 -2.273240	 -1.219445	 -3.862310
H	 -2.353171	 -2.028328	 -1.872161
H	 -3.570108	 -0.825818	 -2.193748
H	 -2.913044	 -1.982236	 -4.295215
H	 -1.242843	 -1.499783	 -4.062031
H	 -2.468588	 -0.287802	 -4.385907
C	 4.728119	 -1.109107	 -0.004993
H	 4.882018	 -1.033965	 -1.071845
H	 5.068212	 -2.067527	 0.355250
H	 5.265056	 -0.311663	 0.488280

	symmetry c1
}
set optking {
	frozen_dihedral = ("
		15 11 8 5
	")
}

ee = optimize('scf')
oeprop('DIPOLE', 'QUADRUPOLE', 'MULLIKEN_CHARGES')
f=open( 'psi4out.xyz', 'w' )
f.write( "29  " )
f.write( str(ee) + "\n" )
f.write( MOL.save_string_xyz() )
f.close()
--------------------------------------------------------------------------

    Molecular point group: c1
  Charge       = 0
  Multiplicity = 1
  Basis Set: 6-31G*
  Basis Set:
  @DF-RHF Final Energy:  -501.03912783973260
    Total Energy =                       -501.0391278397326005
    Molecular point group: c1
  Basis Set: 6-31G*
  Basis Set:
  Basis Set: 6-31G*
  Basis Set:
  @DF-RHF Final Energy:  -501.04057041056819
    Total Energy =                       -501.0405704105677387
  Basis Set: 6-31G*
  Basis Set:
  Basis Set: 6-31G*
  Basis Set:
  @DF-RHF Final Energy:  -501.04118596131741
    Total Energy =                       -501.0411859613170691
  Basis Set: 6-31G*
  Basis Set:
  Basis Set: 6-31G*
  Basis Set:
  @DF-RHF Final Energy:  -501.04121315913869
    Total Energy =                       -501.0412131591390335
  Basis Set: 6-31G*
  Basis Set:
  Basis Set: 6-31G*
  Basis Set:
  @DF-RHF Final Energy:  -501.04102128896000
    Total Energy =                       -501.0410212889606782
  Basis Set: 6-31G*
  Basis Set:
  Basis Set: 6-31G*
  Basis Set:
  @DF-RHF Final Energy:  -501.04124235409620
    Total Energy =                       -501.0412423540963118
  Basis Set: 6-31G*
  Basis Set:
  Charge       = 0
  Multiplicity = 1
  Basis Set: 6-31G*
  Basis Set:

    Orbital Energies (a.u.)
    -----------------------

    Doubly Occupied:

       1A    -20.603329     2A    -20.545128     3A    -11.371887
       4A    -11.280649     5A    -11.234527     6A    -11.218340
       7A    -11.217760     8A    -11.216377     9A    -11.216217
      10A    -11.215148    11A    -11.209043    12A     -1.468980
      13A     -1.362417    14A     -1.098369    15A     -1.065014
      16A     -1.018715    17A     -0.975821    18A     -0.929800
      19A     -0.867692    20A     -0.808026    21A     -0.779886
      22A     -0.758119    23A     -0.701444    24A     -0.682625
      25A     -0.671470    26A     -0.646910    27A     -0.634806
      28A     -0.603301    29A     -0.594746    30A     -0.578822
      31A     -0.564297    32A     -0.555742    33A     -0.537583
      34A     -0.527035    35A     -0.522697    36A     -0.508155
      37A     -0.490984    38A     -0.481615    39A     -0.471745
      40A     -0.456573    41A     -0.455937    42A     -0.454624
      43A     -0.442067    44A     -0.436373

  @DF-RHF Final Energy:  -501.04124222601786

   => Energetics <=

    Nuclear Repulsion Energy =            627.5350971379739349
    One-Electron Energy =               -1926.1910872625901447
    Two-Electron Energy =                 797.6147478985978978
    DFT Exchange-Correlation Energy =       0.0000000000000000
    Empirical Dispersion Energy =           0.0000000000000000
    PCM Polarization Energy =               0.0000000000000000
    EFP Energy =                            0.0000000000000000
    Total Energy =                       -501.0412422260183121
    Molecular point group: c1
  Basis Set: 6-31G*
  Basis Set:

  -Total Gradient:
     Atom            X                  Y                   Z
    ------   -----------------  -----------------  -----------------
       1        0.000040053431     0.000072019183     0.000177068267
       2       -0.000107003572    -0.000212325864    -0.000437028087
       3        0.000114780695     0.000079666557     0.000186566318
       4        0.000053873083     0.000054331308     0.000117149745
       5       -0.000829949799     0.002039701226    -0.002646376854
       6        0.000005985344     0.000032508077    -0.000030139576
       7       -0.000017030785    -0.000016239088     0.000028801757
       8        0.000352867788    -0.002934055120     0.004345433450
       9        0.000031135423     0.000072611133    -0.000067731758
      10       -0.000014875824    -0.000077204605     0.000032981922
      11        0.003836335123    -0.000118175911    -0.004597931185
      12       -0.000086950487    -0.000099817658    -0.000030869206
      13       -0.000071820774     0.000026340721     0.000058512901
      14       -0.000082262552     0.000078072433    -0.000103177376
      15       -0.003261029478     0.000912865916     0.003001487623
      16        0.000019799730     0.000024781365    -0.000070591570
      17       -0.000086902052     0.000071566972    -0.000019172198
      18        0.000062411643     0.000006608452     0.000026908181
      19       -0.000016391485     0.000021118191    -0.000018288237
      20        0.000084623385    -0.000048883872     0.000039969280
      21       -0.000021272379     0.000014694233     0.000008641603
      22       -0.000029458613     0.000018363240    -0.000038144947
      23        0.000019456245    -0.000019450668     0.000027969387
      24        0.000020032222     0.000014866583    -0.000022715421
      25       -0.000024896342    -0.000007326198     0.000023974533
      26        0.000001124207    -0.000008995691     0.000000897750
      27       -0.000002961829     0.000000634324     0.000002739480
      28        0.000005381603     0.000001262420     0.000002464292
      29        0.000004946038     0.000000462342     0.000000599925

  **** Optimization is complete! (in 7 steps) ****
    Final optimized geometry and variables:
    Molecular point group: c1

    Geometry (in Angstrom), charge = 0, multiplicity = 1:

    O            2.657372455400     1.099826602632     0.189542123686
    C            2.129831080148     0.175443587364     0.719040500840
    C            0.665421111697     0.083523975168     1.073061892368
    O            2.781477876563    -0.923304937225     1.079351432722
    C           -0.129258220437     1.327052376036     0.679905998270
    H            0.276522682912    -0.812357469147     0.599083584811
    H            0.601815527633    -0.098270085893     2.142811573200
    C           -1.604711369201     1.260390248619     1.091062045395
    H           -0.039487652525     1.492493899495    -0.387304297310
    H            0.324763380260     2.191485578756     1.152609494026
    C           -2.458795005534     0.165656754805     0.429439943297
    H           -2.049168675074     2.224799748549     0.855292746202
    H           -1.676584791237     1.154275731574     2.171377889618
    C           -2.303445211429     0.025240312046    -1.085872967343
    H           -2.289356417427    -0.790704225690     0.921015121556
    H           -3.499968682831     0.399968113082     0.644179420345
    C           -3.301352295183    -0.962569161921    -1.694275086881
    H           -1.295238910082    -0.296822258542    -1.334628860661
    H           -2.434048126089     1.000201856632    -1.553226177626
    C           -3.132246336281    -1.128285627107    -3.204018324496
    H           -3.189275721421    -1.930760113911    -1.210542925051
    H           -4.314473305103    -0.630119094281    -1.478939000822
    H           -3.851478752920    -1.835776780758    -3.604946038102
    H           -2.138505653231    -1.491637933901    -3.450398676949
    H           -3.274723896388    -0.183215778905    -3.720414465854
    C            4.170153632910    -0.965575989752     0.806102961187
    H            4.351467726243    -0.879669576474    -0.255630935532
    H            4.513173348518    -1.922415017335     1.167765034972
    H            4.683186391345    -0.165302988946     1.319811870941

  Mulliken Charges: (a.u.)
   Center  Symbol    Alpha    Beta     Spin     Total
       1     O     4.28590  4.28590  0.00000 -0.57181
       2     C     2.60539  2.60539  0.00000  0.78923
       3     C     3.20915  3.20915  0.00000 -0.41829
       4     O     4.30740  4.30740  0.00000 -0.61481
       5     C     3.15719  3.15719  0.00000 -0.31439
       6     H     0.39930  0.39930  0.00000  0.20139
       7     H     0.40103  0.40103  0.00000  0.19794
       8     C     3.15687  3.15687  0.00000 -0.31373
       9     H     0.40924  0.40924  0.00000  0.18152
      10     H     0.40971  0.40971  0.00000  0.18057
      11     C     3.15732  3.15732  0.00000 -0.31465
      12     H     0.41887  0.41887  0.00000  0.16226
      13     H     0.42171  0.42171  0.00000  0.15659
      14     C     3.15357  3.15357  0.00000 -0.30714
      15     H     0.42358  0.42358  0.00000  0.15284
      16     H     0.42057  0.42057  0.00000  0.15887
      17     C     3.15129  3.15129  0.00000 -0.30258
      18     H     0.42316  0.42316  0.00000  0.15367
      19     H     0.42221  0.42221  0.00000  0.15558
      20     C     3.23933  3.23933  0.00000 -0.47866
      21     H     0.42337  0.42337  0.00000  0.15325
      22     H     0.42253  0.42253  0.00000  0.15495
      23     H     0.41921  0.41921  0.00000  0.16158
      24     H     0.42173  0.42173  0.00000  0.15654
      25     H     0.42121  0.42121  0.00000  0.15758
      26     C     3.09236  3.09236  0.00000 -0.18473
      27     H     0.40917  0.40917  0.00000  0.18166
      28     H     0.40853  0.40853  0.00000  0.18293
      29     H     0.40909  0.40909  0.00000  0.18182

   Total alpha = 44.00000, Total beta = 44.00000, Total charge =  0.00000
