                              Psi4 1.0.54 Driver

  ==> Input File <==

--------------------------------------------------------------------------
set {
	reference rhf
	basis cc-pvtz
}

set_num_threads( 4 )
memory 2 gb

molecule MOL {
0 1

H	 -0.366580	 2.045936	 -0.305741
C	 0.351829	 1.335402	 0.083179
N	 -0.000018	 0.000080	 -0.334836
H	 1.327156	 1.599860	 -0.305475
H	 0.380566	 1.445403	 1.171445
C	 1.044823	 -0.950635	 -0.040167
C	 -1.274208	 -0.415123	 0.200220
H	 0.778080	 -1.925299	 -0.428716
H	 1.968586	 -0.643552	 -0.514032
H	 1.233524	 -1.054462	 1.032531
H	 -2.045879	 0.283295	 -0.097972
H	 -1.538388	 -1.390480	 -0.188386
H	 -1.276408	 -0.474578	 1.292727

	symmetry c1
}
set optking {
	frozen_dihedral = ("
		6 3 2 1
	")
}

ee,wfn = optimize('scf', return_wfn=True)
oeprop( wfn, 'DIPOLE', 'QUADRUPOLE', 'MULLIKEN_CHARGES')
f=open( 'psi4out.xyz', 'w' )
f.write( "13  " )
f.write( str(ee) + "\n" )
f.write( MOL.save_string_xyz() )
f.close()
--------------------------------------------------------------------------

    Molecular point group: c1
  Charge       = 0
  Multiplicity = 1
  Basis Set: CC-PVTZ
  Basis Set:
  @DF-RHF Final Energy:  -173.33385236649656
    Total Energy =                       -173.3338523664965294
    Molecular point group: c1
  Basis Set: CC-PVTZ
  Basis Set:
  Basis Set: CC-PVTZ
  Basis Set:
  @DF-RHF Final Energy:  -173.33388348154367
    Total Energy =                       -173.3338834815436940
  Basis Set: CC-PVTZ
  Basis Set:
  Charge       = 0
  Multiplicity = 1
  Basis Set: CC-PVTZ
  Basis Set:

    Orbital Energies (a.u.)
    -----------------------

    Doubly Occupied:

       1A    -15.538976     2A    -11.234304     3A    -11.234261
       4A    -11.234207     5A     -1.226820     6A     -0.952645
       7A     -0.952465     8A     -0.806448     9A     -0.643240
      10A     -0.631649    11A     -0.631198    12A     -0.544875
      13A     -0.543570    14A     -0.516815    15A     -0.502712
      16A     -0.502548    17A     -0.348292

  @DF-RHF Final Energy:  -173.33388625386397

   => Energetics <=

    Nuclear Repulsion Energy =            139.4086759939638682
    One-Electron Energy =                -509.3950756827533723
    Two-Electron Energy =                 196.6525134349253960
    DFT Exchange-Correlation Energy =       0.0000000000000000
    Empirical Dispersion Energy =           0.0000000000000000
    PCM Polarization Energy =               0.0000000000000000
    EFP Energy =                            0.0000000000000000
    Total Energy =                       -173.3338862538641081
    Molecular point group: c1
  Basis Set: CC-PVTZ
  Basis Set:

  -Total Gradient:
     Atom            X                  Y                   Z
    ------   -----------------  -----------------  -----------------
       1        0.000739901659     0.000101768917    -0.001168753463
       2       -0.000673961545    -0.000053603425     0.001143781468
       3       -0.000407511838    -0.000179774242     0.000821320597
       4       -0.000041358035     0.000013475941    -0.000009728032
       5        0.000013524537    -0.000010459172     0.000017225256
       6        0.000549002074     0.000128957059    -0.000801541121
       7       -0.000090561746    -0.000103219902     0.000095991144
       8       -0.000055226259     0.000049345648    -0.000024532895
       9       -0.000033940324     0.000021240522    -0.000019440728
      10       -0.000011143354     0.000000082227    -0.000012423329
      11        0.000028544114     0.000011417799    -0.000021214799
      12       -0.000016435125     0.000010363210    -0.000010612282
      13       -0.000000834157     0.000010405418    -0.000010071814

  **** Optimization is complete! (in 3 steps) ****
    Final optimized geometry and variables:
    Molecular point group: c1

    Geometry (in Angstrom), charge = 0, multiplicity = 1:

    H           -0.403178954758     2.051781761686    -0.308815349329
    C            0.318854081514     1.345230462427     0.081674078841
    N           -0.030170628578     0.006345800296    -0.326676009644
    H            1.287276506500     1.611692918063    -0.322409102179
    H            0.363650911732     1.463109942261     1.168510984960
    C            1.012987717551    -0.945930156316    -0.033889204910
    C           -1.309823728844    -0.404130867571     0.196593867146
    H            0.739569502205    -1.920987343354    -0.417156968430
    H            1.934474996580    -0.644433041237    -0.515395580290
    H            1.209391126624    -1.048685802352     1.037995272784
    H           -2.074682485999     0.301081915505    -0.103909277400
    H           -1.578043480147    -1.375802444509    -0.198721664669
    H           -1.321422231523    -0.468412010364     1.289076782872

  Mulliken Charges: (a.u.)
   Center  Symbol    Alpha    Beta     Spin     Total
       1     H     0.45218  0.45218  0.00000  0.09563
       2     C     3.08890  3.08890  0.00000 -0.17780
       3     N     3.59567  3.59567  0.00000 -0.19134
       4     H     0.45343  0.45343  0.00000  0.09314
       5     H     0.47357  0.47357  0.00000  0.05286
       6     C     3.08863  3.08863  0.00000 -0.17725
       7     C     3.08899  3.08899  0.00000 -0.17798
       8     H     0.45276  0.45276  0.00000  0.09449
       9     H     0.45249  0.45249  0.00000  0.09502
      10     H     0.47420  0.47420  0.00000  0.05160
      11     H     0.45282  0.45282  0.00000  0.09437
      12     H     0.45267  0.45267  0.00000  0.09465
      13     H     0.47370  0.47370  0.00000  0.05260

   Total alpha = 17.00000, Total beta = 17.00000, Total charge = -0.00000

*** Psi4 exiting successfully. Buy a developer a beer!
