  ==> Input File <==

--------------------------------------------------------------------------
set {
	reference rhf
	basis cc-pvtz
}

set_num_threads( 4 )
memory 2 gb

molecule MOL {
0 1

H	 2.231887	 0.051150	 0.651574
O	 1.470224	 -0.507696	 0.683607
C	 0.489979	 0.078084	 0.002623
C	 -0.763662	 -0.754014	 0.000816
O	 0.629431	 1.124380	 -0.530039
C	 -2.038001	 0.074705	 -0.000833
H	 -0.712945	 -1.405886	 -0.864342
H	 -0.715137	 -1.405770	 0.866182
H	 -2.087267	 0.710831	 -0.874232
H	 -2.903419	 -0.576199	 -0.001922
H	 -2.089467	 0.710909	 0.872389

	symmetry c1
}
set optking {
	frozen_dihedral = ("
		2 3 4 7
	")
}

ee = optimize('scf')
oeprop('DIPOLE', 'QUADRUPOLE', 'MULLIKEN_CHARGES')
f=open( 'psi4out.xyz', 'w' )
f.write( "11  " )
f.write( str(ee) + "\n" )
f.write( MOL.save_string_xyz() )
f.close()
--------------------------------------------------------------------------

    Molecular point group: c1
  Charge       = 0
  Multiplicity = 1
  Basis Set: CC-PVTZ
  Basis Set:
  @DF-RHF Final Energy:  -266.95201284741950
    Total Energy =                       -266.9520128474193825
    Molecular point group: c1
  Basis Set: CC-PVTZ
  Basis Set:
  Basis Set: CC-PVTZ
  Basis Set:
  @DF-RHF Final Energy:  -266.95235648546827
    Total Energy =                       -266.9523564854680444
  Basis Set: CC-PVTZ
  Basis Set:
  Basis Set: CC-PVTZ
  Basis Set:
  @DF-RHF Final Energy:  -266.95233557627876
    Total Energy =                       -266.9523355762786423
  Basis Set: CC-PVTZ
  Basis Set:
  Basis Set: CC-PVTZ
  Basis Set:
  @DF-RHF Final Energy:  -266.95237012329426
    Total Energy =                       -266.9523701232941448
  Basis Set: CC-PVTZ
  Basis Set:
  Charge       = 0
  Multiplicity = 1
  Basis Set: CC-PVTZ
  Basis Set:

    Orbital Energies (a.u.)
    -----------------------

    Doubly Occupied:

       1A    -20.606464     2A    -20.540249     3A    -11.374599
       4A    -11.242549     5A    -11.220776     6A     -1.479158
       7A     -1.369972     8A     -1.066318     9A     -0.917826
      10A     -0.806990    11A     -0.706679    12A     -0.693002
      13A     -0.660146    14A     -0.603609    15A     -0.596646
      16A     -0.534623    17A     -0.526730    18A     -0.508416
      19A     -0.482643    20A     -0.447815

  @DF-RHF Final Energy:  -266.95237684072185

   => Energetics <=

    Nuclear Repulsion Energy =            180.1019067433079783
    One-Electron Energy =                -721.3381461301985382
    Two-Electron Energy =                 274.2838625461686206
    DFT Exchange-Correlation Energy =       0.0000000000000000
    Empirical Dispersion Energy =           0.0000000000000000
    PCM Polarization Energy =               0.0000000000000000
    EFP Energy =                            0.0000000000000000
    Total Energy =                       -266.9523768407219677
    Molecular point group: c1
  Basis Set: CC-PVTZ
  Basis Set:

  -Total Gradient:
     Atom            X                  Y                   Z
    ------   -----------------  -----------------  -----------------
       1        0.000024347568    -0.000000119034     0.000004815868
       2       -0.000255731362     0.000497769052     0.000955625967
       3        0.000209991801    -0.000380380833    -0.001442783593
       4        0.000606718945    -0.000902460614     0.001119149388
       5        0.000044553403    -0.000098507836     0.000056634638
       6        0.000001694419    -0.000024629147     0.000023892020
       7       -0.000614268695     0.000877199223    -0.000703753269
       8        0.000006289554     0.000026890207    -0.000022837431
       9        0.000004008607    -0.000007342547     0.000003769257
      10       -0.000014999448     0.000003245079     0.000003352007
      11       -0.000012604790     0.000008336452     0.000002135148

  **** Optimization is complete! (in 5 steps) ****
    Final optimized geometry and variables:
    Molecular point group: c1

    Geometry (in Angstrom), charge = 0, multiplicity = 1:

    H            2.262041666702     0.043126088697     0.544963395496
    O            1.500269251881    -0.512375543794     0.618937229316
    C            0.494884033981     0.066142374975    -0.029066971802
    C           -0.756753825772    -0.772257049065    -0.016186377553
    O            0.609710889322     1.116489459426    -0.560332882173
    C           -2.028250509494     0.065904796899    -0.057406516582
    H           -0.702174136206    -1.403556093625    -0.898328163426
    H           -0.732785371538    -1.426379781555     0.843859315848
    H           -2.036580310607     0.710318851627    -0.924742203563
    H           -2.896949575524    -0.579239205422    -0.096730178452
    H           -2.112398196112     0.690873233846     0.823237753202

  Mulliken Charges: (a.u.)
   Center  Symbol    Alpha    Beta     Spin     Total
       1     H     0.38068  0.38068  0.00000  0.23864
       2     O     4.15926  4.15926  0.00000 -0.31853
       3     C     2.80482  2.80482  0.00000  0.39037
       4     C     3.09544  3.09544  0.00000 -0.19089
       5     O     4.19405  4.19405  0.00000 -0.38811
       6     C     3.14135  3.14135  0.00000 -0.28270
       7     H     0.44394  0.44394  0.00000  0.11212
       8     H     0.43683  0.43683  0.00000  0.12635
       9     H     0.44237  0.44237  0.00000  0.11526
      10     H     0.44929  0.44929  0.00000  0.10141
      11     H     0.45196  0.45196  0.00000  0.09608

   Total alpha = 20.00000, Total beta = 20.00000, Total charge = -0.00000
