  ==> Input File <==

--------------------------------------------------------------------------
set {
	reference rhf
	basis cc-pvtz
}

set_num_threads( 4 )
memory 2 gb

molecule MOL {
0 1

H	 2.856977	 0.089498	 2.121207
O	 1.940880	 -0.091408	 2.228285
C	 1.247976	 0.212216	 1.113312
C	 1.858374	 0.724406	 -0.021481
C	 -0.114997	 -0.002683	 1.125309
H	 2.920238	 0.891191	 -0.029095
C	 1.105767	 1.020117	 -1.140004
H	 -0.589372	 -0.398146	 2.000192
C	 -0.861704	 0.296439	 0.000000
H	 1.588875	 1.415944	 -2.012215
C	 -0.258212	 0.808065	 -1.136160
C	 -2.330689	 0.069587	 0.000000
H	 -0.846049	 1.037058	 -2.004432
O	 -2.848621	 -0.993976	 0.000000
H	 -2.934306	 0.982410	 0.000000

	symmetry c1
}
set optking {
	frozen_dihedral = ("
		11 9 12 14
	")
}

ee = optimize('scf')
oeprop('DIPOLE', 'QUADRUPOLE', 'MULLIKEN_CHARGES')
f=open( 'psi4out.xyz', 'w' )
f.write( "15  " )
f.write( str(ee) + "\n" )
f.write( MOL.save_string_xyz() )
f.close()
--------------------------------------------------------------------------

    Molecular point group: c1
  Charge       = 0
  Multiplicity = 1
  Basis Set: CC-PVTZ
  Basis Set:
  @DF-RHF Final Energy:  -418.42836569448411
    Total Energy =                       -418.4283656944840004
    Molecular point group: c1
  Basis Set: CC-PVTZ
  Basis Set:
  Basis Set: CC-PVTZ
  Basis Set:
  @DF-RHF Final Energy:  -418.42720352250808
    Total Energy =                       -418.4272035225079662
  Basis Set: CC-PVTZ
  Basis Set:
  Basis Set: CC-PVTZ
  Basis Set:
  @DF-RHF Final Energy:  -418.42871330272084
    Total Energy =                       -418.4287133027199843
  Basis Set: CC-PVTZ
  Basis Set:
  Basis Set: CC-PVTZ
  Basis Set:
  @DF-RHF Final Energy:  -418.42879408261365
    Total Energy =                       -418.4287940826136492
  Basis Set: CC-PVTZ
  Basis Set:
  Basis Set: CC-PVTZ
  Basis Set:
  @DF-RHF Final Energy:  -418.42879596791647
    Total Energy =                       -418.4287959679160167
  Basis Set: CC-PVTZ
  Basis Set:
  Charge       = 0
  Multiplicity = 1
  Basis Set: CC-PVTZ
  Basis Set:

    Orbital Energies (a.u.)
    -----------------------

    Doubly Occupied:

       1A    -20.596022     2A    -20.562934     3A    -11.332495
       4A    -11.311752     5A    -11.255459     6A    -11.249716
       7A    -11.239625     8A    -11.237452     9A    -11.236962
      10A     -1.427933    11A     -1.417551    12A     -1.172191
      13A     -1.050618    14A     -1.027697    15A     -0.901543
      16A     -0.846324    17A     -0.820423    18A     -0.742227
      19A     -0.703879    20A     -0.684058    21A     -0.661389
      22A     -0.644257    23A     -0.616230    24A     -0.607174
      25A     -0.585867    26A     -0.547437    27A     -0.536010
      28A     -0.516046    29A     -0.497168    30A     -0.426994
      31A     -0.357366    32A     -0.328527

  @DF-RHF Final Energy:  -418.42879683137414

   => Energetics <=

    Nuclear Repulsion Energy =            403.3071513309861302
    One-Electron Energy =               -1369.1892464959069002
    Two-Electron Energy =                 547.4532983335465133
    DFT Exchange-Correlation Energy =       0.0000000000000000
    Empirical Dispersion Energy =           0.0000000000000000
    PCM Polarization Energy =               0.0000000000000000
    EFP Energy =                            0.0000000000000000
    Total Energy =                       -418.4287968313742567
    Molecular point group: c1
  Basis Set: CC-PVTZ
  Basis Set:

  -Total Gradient:
     Atom            X                  Y                   Z
    ------   -----------------  -----------------  -----------------
       1       -0.000015239847     0.000013765500    -0.000003497494
       2        0.000022004621    -0.000003120052    -0.000021915101
       3       -0.000093135908    -0.000061852886     0.000049224298
       4       -0.000027055187     0.000095091010    -0.000054316761
       5        0.000112672999    -0.000017742396     0.000058452189
       6        0.000005772105    -0.000015917154     0.000002321472
       7        0.000138004502    -0.000039697163     0.000012867810
       8       -0.000009270542     0.000029050676    -0.000018635119
       9       -0.000996986743     0.005183430072    -0.000432541320
      10       -0.000003845855     0.000005314444     0.000006143583
      11        0.000523695186    -0.003633411126    -0.001147215828
      12        0.000271488707    -0.001434163778     0.006311539338
      13        0.000000507160     0.000007323264     0.000003788006
      14        0.000041092889    -0.000098294581    -0.004765994711
      15        0.000030295903    -0.000029775831    -0.000000220362

  **** Optimization is complete! (in 6 steps) ****
    Final optimized geometry and variables:
    Molecular point group: c1

    Geometry (in Angstrom), charge = 0, multiplicity = 1:

    H            2.885963383801    -0.136665559421     1.823635757101
    O            1.965768905562    -0.293332506826     1.935933708972
    C            1.280236039472     0.016735713014     0.819687102903
    C            1.892960323364     0.518392207068    -0.313681311159
    C           -0.088504901228    -0.192452601259     0.833832426744
    H            2.956337709641     0.673237394987    -0.327348933075
    C            1.132986560740     0.814951141259    -1.429421686942
    H           -0.546266411887    -0.605738507708     1.710681062145
    C           -0.837250035439     0.125625424170    -0.279562856446
    H            1.615912687635     1.193945742924    -2.309533878850
    C           -0.233077316032     0.628659025389    -1.421051046482
    C           -2.312900324149    -0.133704195883    -0.285504887157
    H           -0.818116271386     0.864741418256    -2.289276181091
    O           -2.789885985891    -1.213607344983    -0.268600315876
    H           -2.950152309488     0.753905813550    -0.354917537894

  Mulliken Charges: (a.u.)
   Center  Symbol    Alpha    Beta     Spin     Total
       1     H     0.38649  0.38649  0.00000  0.22702
       2     O     4.17115  4.17115  0.00000 -0.34231
       3     C     2.83606  2.83606  0.00000  0.32787
       4     C     3.13919  3.13919  0.00000 -0.27837
       5     C     3.13156  3.13156  0.00000 -0.26311
       6     H     0.43257  0.43257  0.00000  0.13486
       7     C     3.05512  3.05512  0.00000 -0.11024
       8     H     0.41503  0.41503  0.00000  0.16994
       9     C     2.92840  2.92840  0.00000  0.14320
      10     H     0.41970  0.41970  0.00000  0.16059
      11     C     3.11680  3.11680  0.00000 -0.23359
      12     C     2.93075  2.93075  0.00000  0.13849
      13     H     0.42499  0.42499  0.00000  0.15002
      14     O     4.15595  4.15595  0.00000 -0.31191
      15     H     0.45623  0.45623  0.00000  0.08754

   Total alpha = 32.00000, Total beta = 32.00000, Total charge =  0.00000
