  ==> Input File <==

--------------------------------------------------------------------------
set {
	reference rhf
	basis cc-pvtz
}

set_num_threads( 4 )
memory 2 gb

molecule MOL {
0 1

H	 3.083659	 -1.378387	 0.000000
O	 2.179005	 -1.633391	 0.000000
C	 1.366950	 -0.558201	 0.000000
C	 0.319323	 -0.421389	 0.898021
C	 1.606036	 0.427611	 -0.935432
H	 0.134499	 -1.190302	 1.626061
C	 -0.485653	 0.699070	 0.858774
H	 2.414352	 0.324886	 -1.630353
C	 0.794416	 1.547251	 -0.967773
H	 -1.293212	 0.794071	 1.558522
C	 -0.253187	 1.689788	 -0.073886
C	 1.041330	 2.616360	 -1.970478
H	 -0.877457	 2.562194	 -0.106818
O	 1.905481	 2.596638	 -2.778113
H	 0.347952	 3.461390	 -1.918025

	symmetry c1
}
set optking {
	frozen_dihedral = ("
		4 3 2 1
	")
}

ee = optimize('scf')
oeprop('DIPOLE', 'QUADRUPOLE', 'MULLIKEN_CHARGES')
f=open( 'psi4out.xyz', 'w' )
f.write( "15  " )
f.write( str(ee) + "\n" )
f.write( MOL.save_string_xyz() )
f.close()
--------------------------------------------------------------------------

    Molecular point group: c1
  Charge       = 0
  Multiplicity = 1
  Basis Set: CC-PVTZ
  Basis Set:
  @DF-RHF Final Energy:  -418.43580056000656
    Total Energy =                       -418.4358005600064416
    Molecular point group: c1
  Basis Set: CC-PVTZ
  Basis Set:
  Basis Set: CC-PVTZ
  Basis Set:
  @DF-RHF Final Energy:  -418.43719111152990
    Total Energy =                       -418.4371911115298417
  Basis Set: CC-PVTZ
  Basis Set:
  Basis Set: CC-PVTZ
  Basis Set:
  @DF-RHF Final Energy:  -418.43660582305608
    Total Energy =                       -418.4366058230563112
  Basis Set: CC-PVTZ
  Basis Set:
  Basis Set: CC-PVTZ
  Basis Set:
  @DF-RHF Final Energy:  -418.43729772534431
    Total Energy =                       -418.4372977253440240
  Basis Set: CC-PVTZ
  Basis Set:
  Basis Set: CC-PVTZ
  Basis Set:
  @DF-RHF Final Energy:  -418.43731293348696
    Total Energy =                       -418.4373129334871919
  Basis Set: CC-PVTZ
  Basis Set:
  Charge       = 0
  Multiplicity = 1
  Basis Set: CC-PVTZ
  Basis Set:

    Orbital Energies (a.u.)
    -----------------------

    Doubly Occupied:

       1A    -20.586974     2A    -20.556230     3A    -11.329862
       4A    -11.306590     5A    -11.251609     6A    -11.249213
       7A    -11.247620     8A    -11.244863     9A    -11.242751
      10A     -1.416527    11A     -1.411973    12A     -1.175049
      13A     -1.053034    14A     -1.029913    15A     -0.902052
      16A     -0.854224    17A     -0.800672    18A     -0.754530
      19A     -0.703220    20A     -0.676675    21A     -0.663477
      22A     -0.635679    23A     -0.622338    24A     -0.611988
      25A     -0.564621    26A     -0.553058    27A     -0.536318
      28A     -0.514076    29A     -0.492502    30A     -0.428625
      31A     -0.357533    32A     -0.340402

  @DF-RHF Final Energy:  -418.43731521898371

   => Energetics <=

    Nuclear Repulsion Energy =            403.8342254152964870
    One-Electron Energy =               -1370.3146834777144250
    Two-Electron Energy =                 548.0431428434333156
    DFT Exchange-Correlation Energy =       0.0000000000000000
    Empirical Dispersion Energy =           0.0000000000000000
    PCM Polarization Energy =               0.0000000000000000
    EFP Energy =                            0.0000000000000000
    Total Energy =                       -418.4373152189846223
    Molecular point group: c1
  Basis Set: CC-PVTZ
  Basis Set:

  -Total Gradient:
     Atom            X                  Y                   Z
    ------   -----------------  -----------------  -----------------
       1       -0.000114064044     0.000113201036     0.002839037288
       2        0.000772698795     0.000297301236    -0.002922619163
       3       -0.002163310633    -0.001451307370    -0.000961754295
       4        0.001462778312     0.000789869562     0.001238977208
       5        0.000020711497     0.000120149009    -0.000133316821
       6        0.000011275707    -0.000037439816     0.000004825957
       7        0.000006008124     0.000196849640    -0.000080734308
       8       -0.000046687174     0.000018816955     0.000033663162
       9        0.000147273231    -0.000011672374    -0.000018989432
      10        0.000028583855    -0.000028512104    -0.000009155931
      11       -0.000098143332    -0.000087989601     0.000072174075
      12       -0.000085902480     0.000038987856     0.000009363398
      13        0.000031064085     0.000024847310    -0.000057917719
      14        0.000022994039    -0.000006736049    -0.000003548641
      15        0.000004720016     0.000023634707    -0.000010004782

  **** Optimization is complete! (in 6 steps) ****
    Final optimized geometry and variables:
    Molecular point group: c1

    Geometry (in Angstrom), charge = 0, multiplicity = 1:

    H            2.061893831903    -2.207674095233     0.640485830267
    O            1.146806920921    -2.425159042040     0.625021968128
    C            0.383175306371    -1.303218067202     0.568571589909
    C           -0.657974961670    -1.173691270523     1.476147362714
    C            0.611587716290    -0.318687309836    -0.365388915155
    H           -0.813477332051    -1.951499143768     2.197777983853
    C           -1.475739288176    -0.065622897375     1.435363793999
    H            1.408781444428    -0.410410863957    -1.076766422499
    C           -0.205164054528     0.803166457494    -0.392820430422
    H           -2.282167373359     0.025948139095     2.136713857967
    C           -1.250274932128     0.930316583108     0.500923795530
    C            0.035742395301     1.874708666391    -1.391506106231
    H           -1.882319933440     1.797653534762     0.470453857338
    O            0.909971332263     1.867015492832    -2.189350189653
    H           -0.669892845455     2.710056024719    -1.346510309013

  Mulliken Charges: (a.u.)
   Center  Symbol    Alpha    Beta     Spin     Total
       1     H     0.38337  0.38337  0.00000  0.23327
       2     O     4.18378  4.18378  0.00000 -0.36755
       3     C     2.85670  2.85670  0.00000  0.28660
       4     C     3.10092  3.10092  0.00000 -0.20184
       5     C     3.13157  3.13157  0.00000 -0.26313
       6     H     0.41299  0.41299  0.00000  0.17401
       7     C     3.06193  3.06193  0.00000 -0.12386
       8     H     0.40820  0.40820  0.00000  0.18360
       9     C     2.98075  2.98075  0.00000  0.03850
      10     H     0.41892  0.41892  0.00000  0.16216
      11     C     3.10188  3.10188  0.00000 -0.20377
      12     C     2.90894  2.90894  0.00000  0.18213
      13     H     0.42266  0.42266  0.00000  0.15469
      14     O     4.17168  4.17168  0.00000 -0.34337
      15     H     0.45571  0.45571  0.00000  0.08857

   Total alpha = 32.00000, Total beta = 32.00000, Total charge =  0.00000
