  ==> Input File <==

--------------------------------------------------------------------------
set {
	reference rhf
	basis 6-31G*
}

set_num_threads( 4 )
memory 2 gb

molecule MOL {
0 1

O	 1.677622	 0.046968	 -0.651692
C	 2.701189	 0.057885	 -0.047330
C	 3.435189	 1.291954	 0.418614
O	 3.347903	 -1.046386	 0.304773
C	 2.722019	 2.590209	 0.047076
H	 3.571803	 1.195259	 1.490611
H	 4.432636	 1.256476	 -0.012126
C	 3.505474	 3.853322	 0.420221
H	 1.744684	 2.610470	 0.519862
H	 2.537372	 2.589553	 -1.021721
C	 3.680125	 4.083728	 1.924056
H	 2.986255	 4.709404	 -0.004347
H	 4.483982	 3.827282	 -0.057120
C	 4.370906	 5.410341	 2.246423
H	 2.703518	 4.060733	 2.405230
H	 4.256142	 3.272259	 2.363026
C	 4.555488	 5.648857	 3.746147
H	 3.793038	 6.229386	 1.821608
H	 5.343078	 5.438428	 1.756738
C	 5.242587	 6.977501	 4.059674
H	 3.585072	 5.620111	 4.237174
H	 5.136592	 4.833415	 4.171768
H	 5.359116	 7.117634	 5.129903
H	 4.667577	 7.816062	 3.677085
H	 6.230776	 7.023449	 3.610623
C	 4.728119	 -1.109107	 -0.004993
H	 4.882018	 -1.033965	 -1.071845
H	 5.068212	 -2.067527	 0.355250
H	 5.265056	 -0.311663	 0.488280

	symmetry c1
}
set optking {
	frozen_dihedral = ("
		1 2 4 26
	")
}

ee = optimize('scf')
oeprop('DIPOLE', 'QUADRUPOLE', 'MULLIKEN_CHARGES')
f=open( 'psi4out.xyz', 'w' )
f.write( "29  " )
f.write( str(ee) + "\n" )
f.write( MOL.save_string_xyz() )
f.close()
--------------------------------------------------------------------------

    Molecular point group: c1
  Charge       = 0
  Multiplicity = 1
  Basis Set: 6-31G*
  Basis Set:
  @DF-RHF Final Energy:  -501.01815959613850
    Total Energy =                       -501.0181595961383891
    Molecular point group: c1
  Basis Set: 6-31G*
  Basis Set:
  Basis Set: 6-31G*
  Basis Set:
  @DF-RHF Final Energy:  -501.01855963740911
    Total Energy =                       -501.0185596374095667
  Basis Set: 6-31G*
  Basis Set:
  Basis Set: 6-31G*
  Basis Set:
  @DF-RHF Final Energy:  -501.02309995445853
    Total Energy =                       -501.0230999544586439
  Basis Set: 6-31G*
  Basis Set:
  Basis Set: 6-31G*
  Basis Set:
  @DF-RHF Final Energy:  -501.02359465196423
    Total Energy =                       -501.0235946519644585
  Basis Set: 6-31G*
  Basis Set:
  @DF-RHF Final Energy:  -501.02450016408886
    Total Energy =                       -501.0245001640887494
  @DF-RHF Final Energy:  -501.02473163301852
    Total Energy =                       -501.0247316330182912
  @DF-RHF Final Energy:  -501.02475198319007
    Total Energy =                       -501.0247519831912086
  Basis Set: 6-31G*
  Basis Set:
  @DF-RHF Final Energy:  -501.02475850353164
    Total Energy =                       -501.0247585035307338
  Basis Set: 6-31G*
  Basis Set:
  Basis Set: 6-31G*
  Basis Set:
  @DF-RHF Final Energy:  -501.02474528555103
    Total Energy =                       -501.0247452855508072
  Basis Set: 6-31G*
  Basis Set:
  Basis Set: 6-31G*
  Basis Set:
  @DF-RHF Final Energy:  -501.02476037766621
    Total Energy =                       -501.0247603776660981
  Basis Set: 6-31G*
  Basis Set:
  Charge       = 0
  Multiplicity = 1
  Basis Set: 6-31G*
  Basis Set:

    Orbital Energies (a.u.)
    -----------------------

    Doubly Occupied:

       1A    -20.591834     2A    -20.549692     3A    -11.374149
       4A    -11.294991     5A    -11.242259     6A    -11.223245
       7A    -11.221250     8A    -11.219407     9A    -11.218396
      10A    -11.217315    11A    -11.211173    12A     -1.459593
      13A     -1.367000    14A     -1.101053    15A     -1.067976
      16A     -1.014465    17A     -0.980207    18A     -0.943425
      19A     -0.869061    20A     -0.804730    21A     -0.794221
      22A     -0.762416    23A     -0.701575    24A     -0.682024
      25A     -0.672630    26A     -0.654103    27A     -0.631696
      28A     -0.613595    29A     -0.601985    30A     -0.588477
      31A     -0.566206    32A     -0.559698    33A     -0.542571
      34A     -0.533545    35A     -0.520003    36A     -0.502358
      37A     -0.498745    38A     -0.481190    39A     -0.473411
      40A     -0.465827    41A     -0.464076    42A     -0.452049
      43A     -0.441978    44A     -0.432508

  @DF-RHF Final Energy:  -501.02476040297267

   => Energetics <=

    Nuclear Repulsion Energy =            613.6375237363296264
    One-Electron Energy =               -1898.1083449231582563
    Two-Electron Energy =                 783.4460607838559554
    DFT Exchange-Correlation Energy =       0.0000000000000000
    Empirical Dispersion Energy =           0.0000000000000000
    PCM Polarization Energy =               0.0000000000000000
    EFP Energy =                            0.0000000000000000
    Total Energy =                       -501.0247604029727881
    Molecular point group: c1
  Basis Set: 6-31G*
  Basis Set:

  -Total Gradient:
     Atom            X                  Y                   Z
    ------   -----------------  -----------------  -----------------
       1        0.002190383503    -0.000144977606    -0.003130381961
       2       -0.003479956515    -0.000417049340     0.002994632991
       3        0.000003070281     0.000001283469     0.000002405273
       4        0.001891165441     0.001865012906     0.003003032760
       5       -0.000001541571    -0.000003710601     0.000004461942
       6       -0.000002646592     0.000001643547    -0.000000240023
       7       -0.000000249016     0.000000272641    -0.000000036825
       8       -0.000004410906     0.000004495172    -0.000002636866
       9       -0.000000965601     0.000001100883    -0.000000656465
      10        0.000001085717    -0.000001239929    -0.000002092930
      11       -0.000004589253    -0.000002610601     0.000002539237
      12       -0.000003303698    -0.000002124707    -0.000002723407
      13        0.000000270369     0.000003560003     0.000002262292
      14        0.000009879298    -0.000004165167    -0.000001910867
      15        0.000000849849    -0.000000402187     0.000004057005
      16        0.000001235361    -0.000003274058    -0.000004267047
      17       -0.000002330666     0.000000854898     0.000000192337
      18        0.000003817268    -0.000001071048    -0.000003351364
      19        0.000003806493    -0.000002808586     0.000001760734
      20       -0.000006010348     0.000002588088     0.000000304814
      21       -0.000000162057    -0.000003551325     0.000002288109
      22        0.000002112985     0.000002533389    -0.000002517956
      23       -0.000001398976     0.000000422013     0.000000090383
      24        0.000000751880     0.000001704769    -0.000000239811
      25       -0.000000700162    -0.000001650638     0.000000260228
      26       -0.000601109083    -0.001293350898    -0.002869677503
      27       -0.000001758307    -0.000002283228     0.000002426601
      28       -0.000001725612    -0.000000563969    -0.000001383703
      29        0.000004429923    -0.000000637884     0.000001402021

  **** Optimization is complete! (in 11 steps) ****
    Final optimized geometry and variables:
    Molecular point group: c1

    Geometry (in Angstrom), charge = 0, multiplicity = 1:

    O           -1.839156291482    -2.396162679166    -1.924863088535
    C           -0.866290360837    -2.399066275891    -1.253700629290
    C           -0.157697261243    -1.145554223294    -0.781472427783
    O           -0.338911637509    -3.565359345809    -0.836966225103
    C           -0.957456538532     0.127516649357    -1.055850347273
    H            0.056332818779    -1.269106478251     0.275241828505
    H            0.807607781750    -1.090754359762    -1.280910980622
    C           -0.217594778764     1.415080894097    -0.677867141242
    H           -1.902818474332     0.076704557775    -0.524014499207
    H           -1.207396742763     0.155325666612    -2.110070317837
    C            0.036761180953     1.598848825739     0.821049539608
    H           -0.805160992247     2.257118736628    -1.035970336334
    H            0.729756160203     1.460169918209    -1.213512841354
    C            0.675804841084     2.948320093358     1.155070367790
    H           -0.905845246407     1.504605844354     1.357854094744
    H            0.680161945910     0.804316253999     1.192691803126
    C            0.938087159806     3.141394376633     2.649744670753
    H            0.031182073698     3.749482001890     0.797788000594
    H            1.613683320842     3.047525587904     0.610697768069
    C            1.571449155070     4.493633131296     2.975261829858
    H            0.002168254807     3.040927877259     3.195155862440
    H            1.586403237128     2.344282309707     3.007800885406
    H            1.745083819304     4.600472523883     4.041540110001
    H            0.930495253622     5.312470222323     2.660972743352
    H            2.526705754221     4.610823735237     2.471237221312
    C            1.036058382091    -3.819505842964    -1.014084756592
    H            1.330760802647    -3.659134332496    -2.044735079263
    H            1.182903262930    -4.858426534335    -0.763624072229
    H            1.647885319078    -3.208502589108    -0.361149194994

  Mulliken Charges: (a.u.)
   Center  Symbol    Alpha    Beta     Spin     Total
       1     O     4.25560  4.25560  0.00000 -0.51120
       2     C     2.60645  2.60645  0.00000  0.78710
       3     C     3.22799  3.22799  0.00000 -0.45599
       4     O     4.30943  4.30943  0.00000 -0.61886
       5     C     3.15227  3.15227  0.00000 -0.30455
       6     H     0.39986  0.39986  0.00000  0.20028
       7     H     0.40601  0.40601  0.00000  0.18799
       8     C     3.15711  3.15711  0.00000 -0.31423
       9     H     0.41218  0.41218  0.00000  0.17564
      10     H     0.40530  0.40530  0.00000  0.18941
      11     C     3.15471  3.15471  0.00000 -0.30942
      12     H     0.41711  0.41711  0.00000  0.16578
      13     H     0.42478  0.42478  0.00000  0.15043
      14     C     3.15036  3.15036  0.00000 -0.30073
      15     H     0.42162  0.42162  0.00000  0.15677
      16     H     0.42529  0.42529  0.00000  0.14942
      17     C     3.15149  3.15149  0.00000 -0.30299
      18     H     0.42270  0.42270  0.00000  0.15460
      19     H     0.42429  0.42429  0.00000  0.15141
      20     C     3.23942  3.23942  0.00000 -0.47884
      21     H     0.42227  0.42227  0.00000  0.15546
      22     H     0.42391  0.42391  0.00000  0.15219
      23     H     0.41889  0.41889  0.00000  0.16222
      24     H     0.42118  0.42118  0.00000  0.15764
      25     H     0.42193  0.42193  0.00000  0.15614
      26     C     3.09380  3.09380  0.00000 -0.18761
      27     H     0.41540  0.41540  0.00000  0.16919
      28     H     0.39968  0.39968  0.00000  0.20064
      29     H     0.41895  0.41895  0.00000  0.16209

   Total alpha = 44.00000, Total beta = 44.00000, Total charge = -0.00000
