  ==> Input File <==

--------------------------------------------------------------------------
set {
	reference rhf
	basis 6-31G*
}

set_num_threads( 1 )
memory 2 gb

molecule MOL {
0 1

H	 -0.000158	 1.970498	 0.756846
O	 -0.000074	 1.880206	 -0.189275
C	 -0.000015	 0.544847	 -0.545111
C	 -1.278788	 -0.123820	 -0.051541
C	 1.278802	 -0.123718	 -0.051505
H	 -0.000001	 0.490777	 -1.623619
F	 -1.070089	 -0.656854	 1.133307
F	 -2.277600	 0.726755	 0.054559
F	 -1.648702	 -1.094540	 -0.871579
F	 2.323327	 0.466644	 -0.591854
F	 1.326242	 -1.401483	 -0.363667
F	 1.388946	 -0.015632	 1.262939

	symmetry c1
}
set optking {
	frozen_dihedral = ("
		6 3 2 1
	")
}

ee = energy('scf')
oeprop('DIPOLE', 'QUADRUPOLE', 'MULLIKEN_CHARGES')
f=open( 'psi4out.xyz', 'w' )
f.write( "12  " )
f.write( str(ee) + "\n" )
f.write( MOL.save_string_xyz() )
f.close()
--------------------------------------------------------------------------

    Molecular point group: c1

    Geometry (in Angstrom), charge = 0, multiplicity = 1:

       Center              X                  Y                   Z               Mass
    ------------   -----------------  -----------------  -----------------  -----------------
           H         -0.004913524940     1.978842946352     0.755830993495     1.007825032070
           O         -0.004829524940     1.888550946352    -0.190290006505    15.994914619560
           C         -0.004770524940     0.553191946352    -0.546126006505    12.000000000000
           C         -1.283543524940    -0.115475053648    -0.052556006505    12.000000000000
           C          1.274046475060    -0.115373053648    -0.052520006505    12.000000000000
           H         -0.004756524940     0.499121946352    -1.624634006505     1.007825032070
           F         -1.074844524940    -0.648509053648     1.132291993495    18.998403224000
           F         -2.282355524940     0.735099946352     0.053543993495    18.998403224000
           F         -1.653457524940    -1.086195053648    -0.872594006505    18.998403224000
           F          2.318571475060     0.474988946352    -0.592869006505    18.998403224000
           F          1.321486475060    -1.393138053648    -0.364682006505    18.998403224000
           F          1.384190475060    -0.007287053648     1.261923993495    18.998403224000

  Charge       = 0
  Multiplicity = 1
  Basis Set: 6-31G*
  Basis Set:

    Orbital Energies (a.u.)
    -----------------------

    Doubly Occupied:

       1A    -26.363119     2A    -26.361102     3A    -26.360822
       4A    -26.360608     5A    -26.358349     6A    -26.357860
       7A    -20.615766     8A    -11.526371     9A    -11.525139
      10A    -11.347963    11A     -1.764868    12A     -1.758094
      13A     -1.661164    14A     -1.659359    15A     -1.655604
      16A     -1.654243    17A     -1.434911    18A     -1.101418
      19A     -0.996881    20A     -0.937693    21A     -0.864643
      22A     -0.861752    23A     -0.850998    24A     -0.844716
      25A     -0.833672    26A     -0.812838    27A     -0.739845
      28A     -0.728599    29A     -0.725745    30A     -0.719671
      31A     -0.688122    32A     -0.685033    33A     -0.683907
      34A     -0.675646    35A     -0.667894    36A     -0.659485
      37A     -0.658231    38A     -0.651992    39A     -0.618622
      40A     -0.547983    41A     -0.506905

  @DF-RHF Final Energy:  -786.27278523711425

   => Energetics <=

    Nuclear Repulsion Energy =            671.4886687873110986
    One-Electron Energy =               -2429.8673928936468656
    Two-Electron Energy =                 972.1059388692223138
    DFT Exchange-Correlation Energy =       0.0000000000000000
    Empirical Dispersion Energy =           0.0000000000000000
    PCM Polarization Energy =               0.0000000000000000
    EFP Energy =                            0.0000000000000000
    Total Energy =                       -786.2727852371134531

  Mulliken Charges: (a.u.)
   Center  Symbol    Alpha    Beta     Spin     Total
       1     H     0.26780  0.26780  0.00000  0.46440
       2     O     4.36026  4.36026  0.00000 -0.72051
       3     C     3.05695  3.05695  0.00000 -0.11391
       4     C     2.44264  2.44264  0.00000  1.11472
       5     C     2.44086  2.44086  0.00000  1.11828
       6     H     0.37438  0.37438  0.00000  0.25124
       7     F     4.67634  4.67634  0.00000 -0.35267
       8     F     4.67240  4.67240  0.00000 -0.34480
       9     F     4.67844  4.67844  0.00000 -0.35687
      10     F     4.67472  4.67472  0.00000 -0.34943
      11     F     4.67405  4.67405  0.00000 -0.34811
      12     F     4.68117  4.68117  0.00000 -0.36234

   Total alpha = 41.00000, Total beta = 41.00000, Total charge = -0.00000
