  ==> Input File <==

--------------------------------------------------------------------------
set {
	reference rhf
	basis cc-pvtz
}

set_num_threads( 4 )
memory 2 gb

molecule MOL {
0 1

O	 -0.294688	 1.318815	 -0.000872
C	 -0.448732	 0.145721	 -0.000187
C	 -1.780748	 -0.548101	 0.000195
O	 0.550743	 -0.719877	 0.000412
H	 -1.859389	 -1.183260	 -0.872613
H	 -2.570236	 0.185547	 -0.001342
H	 -1.860233	 -1.180337	 0.875064
C	 1.863204	 -0.194033	 0.000210
H	 2.031410	 0.409071	 -0.879564
H	 2.524488	 -1.045142	 0.000626
H	 2.031383	 0.409929	 0.879395

	symmetry c1
}
set optking {
	frozen_dihedral = ("
		8 4 2 1
	")
}

ee = optimize('scf')
oeprop('DIPOLE', 'QUADRUPOLE', 'MULLIKEN_CHARGES')
f=open( 'psi4out.xyz', 'w' )
f.write( "11  " )
f.write( str(ee) + "\n" )
f.write( MOL.save_string_xyz() )
f.close()
--------------------------------------------------------------------------

    Molecular point group: c1
  Charge       = 0
  Multiplicity = 1
  Basis Set: CC-PVTZ
  Basis Set:

    Orbital Energies (a.u.)
    -----------------------

    Doubly Occupied:

       1A    -20.598815     2A    -20.535310     3A    -11.368833
       4A    -11.279986     5A    -11.233264     6A     -1.474366
       7A     -1.367671     8A     -1.037011     9A     -0.953709
      10A     -0.780217    11A     -0.698197    12A     -0.684657
      13A     -0.681202    14A     -0.595627    15A     -0.593709
      16A     -0.561868    17A     -0.526568    18A     -0.525788
      19A     -0.462412    20A     -0.446002

  @DF-RHF Final Energy:  -266.93923960758138

   => Energetics <=

    Nuclear Repulsion Energy =            183.7166223738528572
    One-Electron Energy =                -728.5013010731061058
    Two-Electron Energy =                 277.8454390916721195
    DFT Exchange-Correlation Energy =       0.0000000000000000
    Empirical Dispersion Energy =           0.0000000000000000
    PCM Polarization Energy =               0.0000000000000000
    EFP Energy =                            0.0000000000000000
    Total Energy =                       -266.9392396075811575
    Molecular point group: c1
  Basis Set: CC-PVTZ
  Basis Set:

  -Total Gradient:
     Atom            X                  Y                   Z
    ------   -----------------  -----------------  -----------------
       1        0.000006261778    -0.000029909919     0.000000006932
       2        0.000037254981     0.000034998330     0.000002820605
       3       -0.000015053947    -0.000001842153    -0.000003735860
       4       -0.000050028900     0.000009970140    -0.000003061564
       5       -0.000010275021    -0.000007592992     0.000005364732
       6        0.000001033635    -0.000008571795     0.000000022239
       7       -0.000009912721    -0.000006113235    -0.000003725433
       8        0.000060245942     0.000013961258     0.000008395308
       9       -0.000009637742    -0.000004158712     0.000000377699
      10       -0.000003412972     0.000003732795    -0.000001676426
      11       -0.000006475035    -0.000004473716    -0.000004788233

  **** Optimization is complete! (in 1 steps) ****
    Final optimized geometry and variables:
    Molecular point group: c1

    Geometry (in Angstrom), charge = 0, multiplicity = 1:

    O           -0.294688218910     1.318814982537    -0.000829272497
    C           -0.448732218910     0.145720982537    -0.000144272497
    C           -1.780748218910    -0.548101017463     0.000237727503
    O            0.550742781090    -0.719877017463     0.000454727503
    H           -1.859389218910    -1.183260017463    -0.872570272497
    H           -2.570236218910     0.185546982537    -0.001299272497
    H           -1.860233218910    -1.180337017463     0.875106727503
    C            1.863203781090    -0.194033017463     0.000252727503
    H            2.031409781090     0.409070982537    -0.879521272497
    H            2.524487781090    -1.045142017463     0.000668727503
    H            2.031382781090     0.409928982537     0.879437727503

  Mulliken Charges: (a.u.)
   Center  Symbol    Alpha    Beta     Spin     Total
       1     O     4.19663  4.19663  0.00000 -0.39327
       2     C     2.80187  2.80187  0.00000  0.39626
       3     C     3.13788  3.13788  0.00000 -0.27576
       4     O     4.14772  4.14772  0.00000 -0.29544
       5     H     0.44543  0.44543  0.00000  0.10914
       6     H     0.43787  0.43787  0.00000  0.12427
       7     H     0.44544  0.44544  0.00000  0.10913
       8     C     3.03351  3.03351  0.00000 -0.06702
       9     H     0.45408  0.45408  0.00000  0.09185
      10     H     0.44550  0.44550  0.00000  0.10901
      11     H     0.45408  0.45408  0.00000  0.09184

   Total alpha = 20.00000, Total beta = 20.00000, Total charge = -0.00000
