  ==> Input File <==

--------------------------------------------------------------------------
set {
	reference rhf
	basis cc-pvtz
}

set_num_threads( 4 )
memory 2 gb

molecule MOL {
0 1

H	 -0.000342	 -0.223902	 -3.352295
C	 -0.027146	 0.371068	 -2.446756
C	 0.024493	 -0.518541	 -1.216015
H	 -0.932586	 0.964979	 -2.449855
H	 0.819708	 1.049865	 -2.473332
N	 -0.042516	 0.263377	 -0.000000
H	 -0.822211	 -1.197105	 -1.225584
H	 0.921114	 -1.142847	 -1.255206
C	 0.024493	 -0.518541	 1.216015
H	 0.682568	 0.950412	 -0.000000
C	 -0.741195	 0.151192	 2.344720
H	 -0.409952	 -1.491985	 1.013253
H	 1.055068	 -0.700099	 1.532519
H	 -1.777620	 0.297907	 2.067482
H	 -0.705604	 -0.452383	 3.244242
H	 -0.316548	 1.121725	 2.582153

	symmetry c1
}
set optking {
	frozen_dihedral = ("
		12 9 6 3
	")
}

ee = optimize('scf')
oeprop('DIPOLE', 'QUADRUPOLE', 'MULLIKEN_CHARGES')
f=open( 'psi4out.xyz', 'w' )
f.write( "16  " )
f.write( str(ee) + "\n" )
f.write( MOL.save_string_xyz() )
f.close()
--------------------------------------------------------------------------

    Molecular point group: c1
  Charge       = 0
  Multiplicity = 1
  Basis Set: CC-PVTZ
  Basis Set:
  @DF-RHF Final Energy:  -212.39205671053710
    Total Energy =                       -212.3920567105370196
    Molecular point group: c1
  Basis Set: CC-PVTZ
  Basis Set:
  Basis Set: CC-PVTZ
  Basis Set:
  @DF-RHF Final Energy:  -212.39230551078168
    Total Energy =                       -212.3923055107817959
  Basis Set: CC-PVTZ
  Basis Set:
  Basis Set: CC-PVTZ
  Basis Set:
  @DF-RHF Final Energy:  -212.39235384329987
    Total Energy =                       -212.3923538432998726
  Basis Set: CC-PVTZ
  Basis Set:
  Basis Set: CC-PVTZ
  Basis Set:
  @DF-RHF Final Energy:  -212.39235648755729
    Total Energy =                       -212.3923564875573220
  Basis Set: CC-PVTZ
  Basis Set:
  Charge       = 0
  Multiplicity = 1
  Basis Set: CC-PVTZ
  Basis Set:

    Orbital Energies (a.u.)
    -----------------------

    Doubly Occupied:

       1A    -15.526932     2A    -11.239681     3A    -11.239072
       4A    -11.206608     5A    -11.202416     6A     -1.204641
       7A     -1.027864     8A     -0.963815     9A     -0.833856
      10A     -0.819708    11A     -0.664125    12A     -0.628074
      13A     -0.604286    14A     -0.575622    15A     -0.557912
      16A     -0.523285    17A     -0.507257    18A     -0.489410
      19A     -0.482643    20A     -0.475123    21A     -0.357101

  @DF-RHF Final Energy:  -212.39235672997785

   => Energetics <=

    Nuclear Repulsion Energy =            189.2674676011109227
    One-Electron Energy =                -661.0607865793640485
    Two-Electron Energy =                 259.4009622482752775
    DFT Exchange-Correlation Energy =       0.0000000000000000
    Empirical Dispersion Energy =           0.0000000000000000
    PCM Polarization Energy =               0.0000000000000000
    EFP Energy =                            0.0000000000000000
    Total Energy =                       -212.3923567299778483
    Molecular point group: c1
  Basis Set: CC-PVTZ
  Basis Set:

  -Total Gradient:
     Atom            X                  Y                   Z
    ------   -----------------  -----------------  -----------------
       1        0.000000094629     0.000006283195    -0.000004682520
       2        0.000007318854    -0.000009397872    -0.000005297611
       3       -0.002756423106    -0.000259553039    -0.000014262156
       4       -0.000000658256    -0.000008919627     0.000005174325
       5        0.000004544398    -0.000001518825     0.000001680608
       6        0.004653143938     0.000095277475    -0.000191243708
       7       -0.000000325824    -0.000006508043    -0.000009686728
       8       -0.000006306245     0.000013941124    -0.000002037961
       9       -0.005074525522     0.001386681337     0.001123301465
      10        0.000005638415     0.000003608934     0.000010247006
      11        0.000006005758    -0.000024985301    -0.000007996686
      12        0.003143154356    -0.001201408187    -0.000911729817
      13        0.000018246955     0.000000420414     0.000000479886
      14        0.000007737836    -0.000000760155     0.000004503199
      15       -0.000011211578     0.000012719918     0.000008134819
      16        0.000003565393    -0.000005881349    -0.000006584121

  **** Optimization is complete! (in 5 steps) ****
    Final optimized geometry and variables:
    Molecular point group: c1

    Geometry (in Angstrom), charge = 0, multiplicity = 1:

    H            0.161772991049    -0.156787976787    -3.339488221578
    C            0.131546889576     0.426952947608    -2.426811566680
    C            0.177250836273    -0.478153294073    -1.207199848909
    H           -0.773676762586     1.021393556309    -2.425852456711
    H            0.979115797267     1.105222679299    -2.441589370514
    N            0.095152615689     0.291185151297     0.015129822966
    H           -0.667279656823    -1.158157037670    -1.232184212828
    H            1.076864922529    -1.098297554521    -1.252715681527
    C            0.154854420862    -0.477516369892     1.244049997403
    H            0.778012878279     1.017785765115     0.020167784408
    C           -0.587315442236     0.208760447504     2.378718583685
    H           -0.270343158499    -1.455952197473     1.051736114592
    H            1.185372784121    -0.669416024364     1.550205645792
    H           -1.630548127709     0.345084608621     2.122808405324
    H           -0.524986265029    -0.374398344541     3.291395226141
    H           -0.163951499662     1.187358520467     2.579164211432

  Mulliken Charges: (a.u.)
   Center  Symbol    Alpha    Beta     Spin     Total
       1     H     0.45400  0.45400  0.00000  0.09201
       2     C     3.14346  3.14346  0.00000 -0.28691
       3     C     3.02007  3.02007  0.00000 -0.04013
       4     H     0.44967  0.44967  0.00000  0.10065
       5     H     0.45935  0.45935  0.00000  0.08130
       6     N     3.64226  3.64226  0.00000 -0.28451
       7     H     0.45911  0.45911  0.00000  0.08179
       8     H     0.47484  0.47484  0.00000  0.05031
       9     C     3.03107  3.03107  0.00000 -0.06214
      10     H     0.44166  0.44166  0.00000  0.11667
      11     C     3.13280  3.13280  0.00000 -0.26561
      12     H     0.45713  0.45713  0.00000  0.08574
      13     H     0.46545  0.46545  0.00000  0.06911
      14     H     0.45275  0.45275  0.00000  0.09451
      15     H     0.45813  0.45813  0.00000  0.08373
      16     H     0.45826  0.45826  0.00000  0.08349

   Total alpha = 21.00000, Total beta = 21.00000, Total charge = -0.00000
