                              Psi4 1.0.54 Driver

  ==> Input File <==

--------------------------------------------------------------------------
set {
	reference rhf
	basis cc-pvtz
}

set_num_threads( 4 )
memory 2 gb

molecule MOL {
0 1

H	 2.253592	 -3.139569	 1.876871
C	 2.370463	 -2.343016	 1.151645
C	 1.096027	 -1.513927	 1.037300
H	 3.208845	 -1.730832	 1.466898
H	 2.632701	 -2.797478	 0.202060
C	 1.215950	 -0.382441	 0.027187
H	 0.837952	 -1.091811	 2.002173
H	 0.270033	 -2.161247	 0.752190
N	 0.000002	 0.398953	 -0.040851
H	 2.024560	 0.278737	 0.324110
H	 1.496788	 -0.794459	 -0.946699
C	 -1.215959	 -0.382435	 0.027143
H	 -0.000012	 1.086078	 0.683841
C	 -2.451944	 0.502410	 -0.038737
H	 -1.221867	 -1.069392	 -0.813828
H	 -1.259993	 -0.999709	 0.929424
C	 -3.752217	 -0.292550	 0.005776
H	 -2.407325	 1.093801	 -0.946480
H	 -2.431979	 1.206234	 0.790023
H	 -3.817783	 -0.982946	 -0.828547
H	 -4.612613	 0.364348	 -0.042306
H	 -3.830160	 -0.871666	 0.919868

	symmetry c1
}
set optking {
	frozen_dihedral = ("
		10 6 9 12
	")
}

ee,wfn = optimize('scf', return_wfn=True)
oeprop( wfn, 'DIPOLE', 'QUADRUPOLE', 'MULLIKEN_CHARGES')
f=open( 'psi4out.xyz', 'w' )
f.write( "22  " )
f.write( str(ee) + "\n" )
f.write( MOL.save_string_xyz() )
f.close()
--------------------------------------------------------------------------

    Molecular point group: c1
  Charge       = 0
  Multiplicity = 1
  Basis Set: CC-PVTZ
  Basis Set:
  @DF-RHF Final Energy:  -290.47950065987044
    Total Energy =                       -290.4795006598702685
    Molecular point group: c1
  Basis Set: CC-PVTZ
  Basis Set:
  Basis Set: CC-PVTZ
  Basis Set:
  @DF-RHF Final Energy:  -290.18590524263152
    Total Energy =                       -290.1859052426319181
  Basis Set: CC-PVTZ
  Basis Set:
  Basis Set: CC-PVTZ
  Basis Set:
  @DF-RHF Final Energy:  -290.33756829804793
    Total Energy =                       -290.3375682980474721
  Basis Set: CC-PVTZ
  Basis Set:
  Basis Set: CC-PVTZ
  Basis Set:
  @DF-RHF Final Energy:  -290.45809097329908
    Total Energy =                       -290.4580909732990222
  Basis Set: CC-PVTZ
  Basis Set:
  @DF-RHF Final Energy:  -290.48153493009596
    Total Energy =                       -290.4815349300960179
  @DF-RHF Final Energy:  -290.48442470178236
    Total Energy =                       -290.4844247017825865
  Basis Set: CC-PVTZ
  Basis Set:
  @DF-RHF Final Energy:  -290.48489644765573
    Total Energy =                       -290.4848964476558422
  Basis Set: CC-PVTZ
  Basis Set:
  Basis Set: CC-PVTZ
  Basis Set:
  @DF-RHF Final Energy:  -290.48493562634434
    Total Energy =                       -290.4849356263441109
  Basis Set: CC-PVTZ
  Basis Set:
  Basis Set: CC-PVTZ
  Basis Set:
  @DF-RHF Final Energy:  -290.48493912392780
    Total Energy =                       -290.4849391239279726
  Basis Set: CC-PVTZ
  Basis Set:
  Charge       = 0
  Multiplicity = 1
  Basis Set: CC-PVTZ
  Basis Set:

    Orbital Energies (a.u.)
    -----------------------

    Doubly Occupied:

       1A    -15.526950     2A    -11.237152     3A    -11.235412
       4A    -11.211430     5A    -11.210144     6A    -11.208501
       7A    -11.206674     8A     -1.202979     9A     -1.057566
      10A     -1.028089    11A     -0.929990    12A     -0.873735
      13A     -0.812234    14A     -0.788192    15A     -0.670332
      16A     -0.630039    17A     -0.617868    18A     -0.604759
      19A     -0.578054    20A     -0.557115    21A     -0.540932
      22A     -0.525800    23A     -0.502106    24A     -0.495483
      25A     -0.483808    26A     -0.470448    27A     -0.463712
      28A     -0.462827    29A     -0.354826

  @DF-RHF Final Energy:  -290.48493960737363

   => Energetics <=

    Nuclear Repulsion Energy =            318.1395192407416630
    One-Electron Energy =               -1022.2745984768187100
    Two-Electron Energy =                 413.6501396287031298
    DFT Exchange-Correlation Energy =       0.0000000000000000
    Empirical Dispersion Energy =           0.0000000000000000
    PCM Polarization Energy =               0.0000000000000000
    EFP Energy =                            0.0000000000000000
    Total Energy =                       -290.4849396073738603
    Molecular point group: c1
  Basis Set: CC-PVTZ
  Basis Set:

  -Total Gradient:
     Atom            X                  Y                   Z
    ------   -----------------  -----------------  -----------------
       1        0.000008459517     0.000001414941     0.000010296041
       2       -0.000001393820     0.000015504205     0.000020722915
       3        0.000000149378    -0.000034724045    -0.000063620950
       4        0.000023206125     0.000019275005     0.000002001429
       5        0.000002558917    -0.000006783906     0.000000305985
       6        0.001478156001     0.001275327480    -0.004048531913
       7       -0.000009853368    -0.000002393374     0.000006914156
       8       -0.000017341850    -0.000029401125     0.000000911490
       9        0.001385132260    -0.001375438389    -0.004645020584
      10       -0.001647194261    -0.000696048468     0.004804107094
      11        0.000007960168    -0.000011719614     0.000011097154
      12       -0.001181248683     0.000808431768     0.003880879830
      13       -0.000029167531     0.000032076450     0.000015615911
      14       -0.000021770490     0.000029675805    -0.000004181061
      15        0.000007191237    -0.000027833551    -0.000003395154
      16       -0.000004192128     0.000007743951     0.000004966209
      17        0.000009741361    -0.000014274654     0.000011444447
      18        0.000003924457    -0.000000616129     0.000004499345
      19       -0.000008571615     0.000019243399     0.000004984249
      20        0.000005813886    -0.000018609908    -0.000008104884
      21       -0.000010192349     0.000008984383    -0.000008106617
      22       -0.000001367209     0.000000165773     0.000002214910

  **** Optimization is complete! (in 10 steps) ****
    Final optimized geometry and variables:
    Molecular point group: c1

    Geometry (in Angstrom), charge = 0, multiplicity = 1:

    H            3.263019984442    -0.727805646854     2.523905428523
    C            3.091447225079    -0.082442818130     1.670466565895
    C            1.628514811804    -0.114221472495     1.238982521974
    H            3.398918168799     0.920520142993     1.947839908113
    H            3.742886750056    -0.415879784387     0.869328602316
    C            1.375125697487     0.784968379135     0.025661281358
    H            0.998801912861     0.208494820586     2.064354747171
    H            1.346555693440    -1.137383139325     1.016543791036
    N            0.000055368341     0.921197940131    -0.428019668260
    H            1.716901967511     1.778691709435     0.294294036710
    H            1.988743785440     0.440948936971    -0.802144918202
    C           -0.828011988969    -0.267430041981    -0.424625594952
    H           -0.453935194382     1.636865732069     0.097813829036
    C           -2.180925056757     0.014405436311    -1.062956180775
    H           -0.319235336579    -1.038560456270    -0.996788169250
    H           -0.984652491602    -0.676006452800     0.574042934177
    C           -3.089259776074    -1.209892506611    -1.091343484658
    H           -2.020023852425     0.384533206168    -2.069084823331
    H           -2.672581821443     0.815027744385    -0.515131073587
    H           -2.639017281410    -2.018805462896    -1.657280808086
    H           -4.042551689103    -0.977635424452    -1.551312916533
    H           -3.287580531320    -1.578585333713    -0.090360446220

  Mulliken Charges: (a.u.)
   Center  Symbol    Alpha    Beta     Spin     Total
       1     H     0.44731  0.44731  0.00000  0.10539
       2     C     3.15240  3.15240  0.00000 -0.30480
       3     C     3.09062  3.09062  0.00000 -0.18125
       4     H     0.45507  0.45507  0.00000  0.08985
       5     H     0.45485  0.45485  0.00000  0.09029
       6     C     3.04126  3.04126  0.00000 -0.08252
       7     H     0.45645  0.45645  0.00000  0.08709
       8     H     0.45148  0.45148  0.00000  0.09703
       9     N     3.64197  3.64197  0.00000 -0.28395
      10     H     0.45487  0.45487  0.00000  0.09026
      11     H     0.45304  0.45304  0.00000  0.09393
      12     C     3.02637  3.02637  0.00000 -0.05274
      13     H     0.44488  0.44488  0.00000  0.11023
      14     C     3.08052  3.08052  0.00000 -0.16104
      15     H     0.45896  0.45896  0.00000  0.08208
      16     H     0.46841  0.46841  0.00000  0.06318
      17     C     3.15381  3.15381  0.00000 -0.30762
      18     H     0.44880  0.44880  0.00000  0.10241
      19     H     0.45959  0.45959  0.00000  0.08081
      20     H     0.45505  0.45505  0.00000  0.08990
      21     H     0.44764  0.44764  0.00000  0.10471
      22     H     0.45663  0.45663  0.00000  0.08674

   Total alpha = 29.00000, Total beta = 29.00000, Total charge = -0.00000

*** Psi4 exiting successfully. Buy a developer a beer!
