  ==> Input File <==

--------------------------------------------------------------------------
set {
	reference rhf
	basis 6-31G*
}

set_num_threads( 4 )
memory 2 gb

molecule MOL {
0 1

H	 1.455465	 1.048416	 0.683164
C	 0.850167	 0.441173	 0.000644
C	 -0.623425	 0.760064	 0.000248
O	 1.363474	 -0.393156	 -0.671781
C	 -1.518387	 -0.473136	 -0.000101
H	 -0.818289	 1.390622	 -0.866171
H	 -0.818694	 1.390413	 0.866696
H	 -1.333417	 -1.085530	 -0.874338
H	 -2.563510	 -0.183466	 -0.000351
H	 -1.333864	 -1.085676	 0.874123

	symmetry c1
}
set optking {
	frozen_dihedral = ("
		4 2 3 6
	")
}

ee = optimize('scf')
oeprop('DIPOLE', 'QUADRUPOLE', 'MULLIKEN_CHARGES')
f=open( 'psi4out.xyz', 'w' )
f.write( "10  " )
f.write( str(ee) + "\n" )
f.write( MOL.save_string_xyz() )
f.close()
--------------------------------------------------------------------------

    Molecular point group: c1
  Charge       = 0
  Multiplicity = 1
  Basis Set: 6-31G*
  Basis Set:
  @DF-RHF Final Energy:  -191.94912016016494
    Total Energy =                       -191.9491201601649664
    Molecular point group: c1
  Basis Set: 6-31G*
  Basis Set:
  Basis Set: 6-31G*
  Basis Set:
  @DF-RHF Final Energy:  -191.94903399501737
    Total Energy =                       -191.9490339950174018
  Basis Set: 6-31G*
  Basis Set:
  Basis Set: 6-31G*
  Basis Set:
  @DF-RHF Final Energy:  -191.94881252533133
    Total Energy =                       -191.9488125253312774
  Basis Set: 6-31G*
  Basis Set:
  Basis Set: 6-31G*
  Basis Set:
  @DF-RHF Final Energy:  -191.94971169155059
    Total Energy =                       -191.9497116915505330
  Basis Set: 6-31G*
  Basis Set:
  Basis Set: 6-31G*
  Basis Set:
  @DF-RHF Final Energy:  -191.94971530718126
    Total Energy =                       -191.9497153071812079
  Basis Set: 6-31G*
  Basis Set:
  Charge       = 0
  Multiplicity = 1
  Basis Set: 6-31G*
  Basis Set:

    Orbital Energies (a.u.)
    -----------------------

    Doubly Occupied:

       1A    -20.564254     2A    -11.329154     3A    -11.239511
       4A    -11.222613     5A     -1.404773     6A     -1.059226
       7A     -0.907159     8A     -0.778532     9A     -0.683353
      10A     -0.637940    11A     -0.618802    12A     -0.554742
      13A     -0.534158    14A     -0.513835    15A     -0.491204
      16A     -0.413029

  @DF-RHF Final Energy:  -191.94971553069649

   => Energetics <=

    Nuclear Repulsion Energy =            118.8764204928714179
    One-Electron Energy =                -495.7477018431814599
    Two-Electron Energy =                 184.9215658196136474
    DFT Exchange-Correlation Energy =       0.0000000000000000
    Empirical Dispersion Energy =           0.0000000000000000
    PCM Polarization Energy =               0.0000000000000000
    EFP Energy =                            0.0000000000000000
    Total Energy =                       -191.9497155306963805
    Molecular point group: c1
  Basis Set: 6-31G*
  Basis Set:

  -Total Gradient:
     Atom            X                  Y                   Z
    ------   -----------------  -----------------  -----------------
       1       -0.000004341532    -0.000004698419     0.000000887834
       2       -0.000475790726    -0.002328197952     0.002031874482
       3        0.000581775461     0.002586483550     0.000602442946
       4        0.000286318454     0.001389921274    -0.001572650429
       5        0.000013821136     0.000014698766     0.000001239499
       6       -0.000389401542    -0.001658420846    -0.001061934940
       7       -0.000004604035     0.000001930154    -0.000002151610
       8       -0.000001537984    -0.000000359360     0.000003537362
       9       -0.000004604305     0.000000384352    -0.000000100616
      10       -0.000001634931    -0.000001741517    -0.000003144526

  **** Optimization is complete! (in 6 steps) ****
    Final optimized geometry and variables:
    Molecular point group: c1

    Geometry (in Angstrom), charge = 0, multiplicity = 1:

    H            1.497425509631     1.009147838919     0.784735461627
    C            0.846437393940     0.377852278408     0.170588173822
    C           -0.629599911496     0.709139540827     0.199893899616
    O            1.315267045425    -0.483103607421    -0.501401181096
    C           -1.516915862700    -0.536071610695     0.161287350090
    H           -0.825237965333     1.317247601328    -0.681786901024
    H           -0.847153502115     1.324669090364     1.066787010092
    H           -1.286293282255    -1.139842178128    -0.706624685793
    H           -2.563371185194    -0.254945779649     0.118281256700
    H           -1.369801502318    -1.148784284894     1.044521035088

  Mulliken Charges: (a.u.)
   Center  Symbol    Alpha    Beta     Spin     Total
       1     H     0.42599  0.42599  0.00000  0.14801
       2     C     2.84287  2.84287  0.00000  0.31426
       3     C     3.20473  3.20473  0.00000 -0.40946
       4     O     4.23621  4.23621  0.00000 -0.47242
       5     C     3.24144  3.24144  0.00000 -0.48288
       6     H     0.40098  0.40098  0.00000  0.19803
       7     H     0.41378  0.41378  0.00000  0.17244
       8     H     0.40215  0.40215  0.00000  0.19569
       9     H     0.41593  0.41593  0.00000  0.16815
      10     H     0.41592  0.41592  0.00000  0.16816

   Total alpha = 16.00000, Total beta = 16.00000, Total charge =  0.00000
