                              Psi4 1.0.54 Driver

  ==> Input File <==

--------------------------------------------------------------------------
set {
	reference rhf
	basis cc-pvtz
}

set_num_threads( 4 )
memory 2 gb

molecule MOL {
0 1

H	 -1.784518	 -2.689874	 -1.732533
C	 -2.430208	 -1.842523	 -1.464268
C	 -2.345952	 -1.412551	 -0.024853
O	 -3.127721	 -1.348712	 -2.280928
C	 -0.906675	 -1.165234	 0.436655
H	 -2.964434	 -0.534561	 0.109119
H	 -2.776945	 -2.218295	 0.565339
C	 -0.247837	 0.040196	 -0.230469
H	 -0.910892	 -1.024348	 1.512049
H	 -0.311317	 -2.055991	 0.251466
C	 1.181757	 0.280428	 0.247371
H	 -0.847788	 0.925217	 -0.035781
H	 -0.247735	 -0.090689	 -1.309494
C	 2.151032	 -0.811012	 -0.202643
H	 1.515939	 1.247397	 -0.115449
H	 1.191514	 0.341223	 1.333422
C	 3.580021	 -0.656538	 0.320835
H	 2.170545	 -0.847575	 -1.289412
H	 1.766632	 -1.772905	 0.124928
C	 4.327657	 0.562694	 -0.213579
H	 4.138806	 -1.549270	 0.057813
H	 3.561991	 -0.620783	 1.406976
H	 4.355973	 0.557257	 -1.298551
H	 3.867136	 1.491650	 0.100501
H	 5.351524	 0.571613	 0.142204

	symmetry c1
}
set optking {
	frozen_dihedral = ("
		12 8 11 14
	")
}

ee,wfn = optimize('scf', return_wfn=True)
oeprop( wfn, 'DIPOLE', 'QUADRUPOLE', 'MULLIKEN_CHARGES')
f=open( 'psi4out.xyz', 'w' )
f.write( "25  " )
f.write( str(ee) + "\n" )
f.write( MOL.save_string_xyz() )
f.close()
--------------------------------------------------------------------------

    Molecular point group: c1
  Charge       = 0
  Multiplicity = 1
  Basis Set: CC-PVTZ
  Basis Set:
  @DF-RHF Final Energy:  -387.25783251727552
    Total Energy =                       -387.2578325172756877
    Molecular point group: c1
  Basis Set: CC-PVTZ
  Basis Set:
  Basis Set: CC-PVTZ
  Basis Set:
  @DF-RHF Final Energy:  -387.25737620692126
    Total Energy =                       -387.2573762069212080
  Basis Set: CC-PVTZ
  Basis Set:
  Basis Set: CC-PVTZ
  Basis Set:
  @DF-RHF Final Energy:  -387.25841786217353
    Total Energy =                       -387.2584178621737010
  Basis Set: CC-PVTZ
  Basis Set:
  Basis Set: CC-PVTZ
  Basis Set:
  @DF-RHF Final Energy:  -387.25841861666430
    Total Energy =                       -387.2584186166640166
  Basis Set: CC-PVTZ
  Basis Set:
  Basis Set: CC-PVTZ
  Basis Set:
  @DF-RHF Final Energy:  -387.25822919842966
    Total Energy =                       -387.2582291984292624
  Basis Set: CC-PVTZ
  Basis Set:
  Basis Set: CC-PVTZ
  Basis Set:
  @DF-RHF Final Energy:  -387.25845758922219
    Total Energy =                       -387.2584575892223029
  Basis Set: CC-PVTZ
  Basis Set:
  Basis Set: CC-PVTZ
  Basis Set:
  @DF-RHF Final Energy:  -387.25846067887983
    Total Energy =                       -387.2584606788796009
  Basis Set: CC-PVTZ
  Basis Set:
  Charge       = 0
  Multiplicity = 1
  Basis Set: CC-PVTZ
  Basis Set:

    Orbital Energies (a.u.)
    -----------------------

    Doubly Occupied:

       1A    -20.551189     2A    -11.320845     3A    -11.233617
       4A    -11.232274     5A    -11.222204     6A    -11.218047
       7A    -11.217464     8A    -11.216428     9A    -11.209020
      10A     -1.406186    11A     -1.105465    12A     -1.070350
      13A     -1.014032    14A     -0.941865    15A     -0.882774
      16A     -0.821893    17A     -0.792456    18A     -0.775220
      19A     -0.669029    20A     -0.652438    21A     -0.636494
      22A     -0.628191    23A     -0.613290    24A     -0.592618
      25A     -0.569128    26A     -0.567014    27A     -0.532852
      28A     -0.523155    29A     -0.519496    30A     -0.498177
      31A     -0.488503    32A     -0.480060    33A     -0.465068
      34A     -0.451369    35A     -0.447544    36A     -0.411608

  @DF-RHF Final Energy:  -387.25846308666422

   => Energetics <=

    Nuclear Repulsion Energy =            444.0250662908163690
    One-Electron Energy =               -1404.6123257438086966
    Two-Electron Energy =                 573.3287963663281062
    DFT Exchange-Correlation Energy =       0.0000000000000000
    Empirical Dispersion Energy =           0.0000000000000000
    PCM Polarization Energy =               0.0000000000000000
    EFP Energy =                            0.0000000000000000
    Total Energy =                       -387.2584630866642783
    Molecular point group: c1
  Basis Set: CC-PVTZ
  Basis Set:

  -Total Gradient:
     Atom            X                  Y                   Z
    ------   -----------------  -----------------  -----------------
       1        0.000022524785    -0.000023015898     0.000017731694
       2        0.000052712838    -0.000050689129     0.000022138329
       3       -0.000034602526    -0.000029088798    -0.000018093456
       4       -0.000057449974     0.000064931870    -0.000020236539
       5        0.000024056449    -0.000007700350    -0.000017105886
       6       -0.000001674182     0.000017628227     0.000007164300
       7        0.000005147492     0.000002064751    -0.000003079303
       8       -0.000034592787    -0.000002021013     0.000125297813
       9        0.000000003234     0.000001253419     0.000008211198
      10       -0.000012298393    -0.000015463991    -0.000002026838
      11       -0.000014663105    -0.000050662393     0.000055496806
      12        0.000008131153     0.000064765412    -0.000110320993
      13        0.000014380841     0.000000326542     0.000010952172
      14        0.000021541034     0.000052643698    -0.000078312963
      15        0.000004866796    -0.000003321437     0.000003838416
      16       -0.000018630455    -0.000000882787    -0.000001767877
      17        0.000007512338    -0.000014683657     0.000000081820
      18       -0.000002668611    -0.000012625580    -0.000004997098
      19       -0.000000398405     0.000001005715     0.000002750133
      20       -0.000002298493     0.000009831570    -0.000001070316
      21        0.000011582492    -0.000003205815     0.000000056314
      22        0.000002184782    -0.000006536027     0.000008179015
      23        0.000001753394     0.000000357213    -0.000004164408
      24        0.000002540775     0.000001305549    -0.000000514086
      25        0.000000338525     0.000003782908    -0.000000208248

  **** Optimization is complete! (in 8 steps) ****
    Final optimized geometry and variables:
    Molecular point group: c1

    Geometry (in Angstrom), charge = 0, multiplicity = 1:

    H           -2.181694025323    -1.940716323147    -1.356694660505
    C           -2.786955099186    -1.113090818038    -0.962163431860
    C           -2.573115775995    -0.810667394788     0.496220300896
    O           -3.542723604500    -0.542878530612    -1.670029445366
    C           -1.094719268429    -0.626553652745     0.852781712371
    H           -3.158953888350     0.061279179780     0.756657040153
    H           -2.970942929633    -1.658357169674     1.049851972786
    C           -0.477080326577     0.627075589700     0.232857762170
    H           -1.007069361213    -0.572159039917     1.932819833599
    H           -0.545516901527    -1.511597643961     0.548136177984
    C            0.971782139156     0.897237920035     0.645124293046
    H           -1.083100021693     1.482424546601     0.516485168841
    H           -0.534000390977     0.568757002938    -0.851348078695
    C            1.987522517205    -0.107568416773     0.100783034776
    H            1.234292349340     1.892354585544     0.304612359488
    H            1.036616218790     0.921005404243     1.730844975796
    C            3.436404044754     0.171108255596     0.507970166425
    H            1.920241198638    -0.130181050452    -0.984855338071
    H            1.729123968024    -1.104479527159     0.442009408029
    C            4.034628991988     1.445934094974    -0.082101518570
    H            4.045995842177    -0.672369516806     0.198938474852
    H            3.502425172763     0.209750863292     1.592180280152
    H            3.975094252758     1.438295985206    -1.165737148466
    H            3.527548934593     2.335660881307     0.270640098371
    H            5.079884197455     1.539547180735     0.189284647195

  Mulliken Charges: (a.u.)
   Center  Symbol    Alpha    Beta     Spin     Total
       1     H     0.46401  0.46401  0.00000  0.07199
       2     C     2.90510  2.90510  0.00000  0.18980
       3     C     3.08792  3.08792  0.00000 -0.17585
       4     O     4.16634  4.16634  0.00000 -0.33268
       5     C     3.11587  3.11587  0.00000 -0.23174
       6     H     0.44295  0.44295  0.00000  0.11410
       7     H     0.44037  0.44037  0.00000  0.11926
       8     C     3.09946  3.09946  0.00000 -0.19892
       9     H     0.44308  0.44308  0.00000  0.11385
      10     H     0.44906  0.44906  0.00000  0.10187
      11     C     3.10132  3.10132  0.00000 -0.20264
      12     H     0.44330  0.44330  0.00000  0.11340
      13     H     0.44687  0.44687  0.00000  0.10626
      14     C     3.09872  3.09872  0.00000 -0.19744
      15     H     0.44306  0.44306  0.00000  0.11388
      16     H     0.45334  0.45334  0.00000  0.09333
      17     C     3.08937  3.08937  0.00000 -0.17873
      18     H     0.45295  0.45295  0.00000  0.09411
      19     H     0.44814  0.44814  0.00000  0.10372
      20     C     3.15207  3.15207  0.00000 -0.30414
      21     H     0.44808  0.44808  0.00000  0.10383
      22     H     0.45441  0.45441  0.00000  0.09119
      23     H     0.45422  0.45422  0.00000  0.09156
      24     H     0.45384  0.45384  0.00000  0.09232
      25     H     0.44616  0.44616  0.00000  0.10768

   Total alpha = 36.00000, Total beta = 36.00000, Total charge =  0.00000

*** Psi4 exiting successfully. Buy a developer a beer!
