                              Psi4 1.0.54 Driver

  ==> Input File <==

--------------------------------------------------------------------------
set {
	reference rhf
	basis cc-pvtz
}

set_num_threads( 4 )
memory 2 gb

molecule MOL {
0 1

O	 -0.987960	 1.395427	 2.493358
C	 -0.577743	 1.761122	 1.440068
C	 0.682494	 1.166980	 0.842700
C	 -1.295283	 2.817875	 0.634352
C	 0.376695	 -0.140025	 0.100361
H	 1.369577	 0.970592	 1.656001
H	 1.148254	 1.875346	 0.165832
C	 1.630207	 -0.772146	 -0.501001
H	 -0.096366	 -0.822470	 0.795136
H	 -0.343013	 0.048574	 -0.692577
C	 2.907848	 -0.545876	 0.309149
H	 1.772784	 -0.391628	 -1.509394
H	 1.468529	 -1.842059	 -0.599744
C	 3.373802	 0.906639	 0.372125
H	 3.699140	 -1.146831	 -0.127906
H	 2.764321	 -0.923458	 1.318191
H	 3.519798	 1.311927	 -0.623875
H	 4.316899	 0.983758	 0.900700
H	 2.661122	 1.540651	 0.885346
H	 -0.683681	 3.713679	 0.595934
H	 -2.246197	 3.050216	 1.088608
H	 -1.442034	 2.486379	 -0.387492

	symmetry c1
}
set optking {
	frozen_dihedral = ("
		3 5 8 12
	")
}

ee,wfn = optimize('scf', return_wfn=True)
oeprop( wfn, 'DIPOLE', 'QUADRUPOLE', 'MULLIKEN_CHARGES')
f=open( 'psi4out.xyz', 'w' )
f.write( "22  " )
f.write( str(ee) + "\n" )
f.write( MOL.save_string_xyz() )
f.close()
--------------------------------------------------------------------------

    Molecular point group: c1
  Charge       = 0
  Multiplicity = 1
  Basis Set: CC-PVTZ
  Basis Set:
  @DF-RHF Final Energy:  -348.19207304898555
    Total Energy =                       -348.1920730489849802
    Molecular point group: c1
  Basis Set: CC-PVTZ
  Basis Set:
  Basis Set: CC-PVTZ
  Basis Set:
  @DF-RHF Final Energy:  -348.20915311789241
    Total Energy =                       -348.2091531178920150
  Basis Set: CC-PVTZ
  Basis Set:
  Basis Set: CC-PVTZ
  Basis Set:
  @DF-RHF Final Energy:  -348.21337585533252
    Total Energy =                       -348.2133758553326857
  Basis Set: CC-PVTZ
  Basis Set:
  Basis Set: CC-PVTZ
  Basis Set:
  @DF-RHF Final Energy:  -348.21490060782565
    Total Energy =                       -348.2149006078257685
  Basis Set: CC-PVTZ
  Basis Set:
  @DF-RHF Final Energy:  -348.21500947273074
    Total Energy =                       -348.2150094727305145
  @DF-RHF Final Energy:  -348.21499311793815
    Total Energy =                       -348.2149931179379792
  @DF-RHF Final Energy:  -348.21518710331281
    Total Energy =                       -348.2151871033123598
  @DF-RHF Final Energy:  -348.21564968792688
    Total Energy =                       -348.2156496879270549
  Basis Set: CC-PVTZ
  Basis Set:
  @DF-RHF Final Energy:  -348.21566178527019
    Total Energy =                       -348.2156617852699014
  Basis Set: CC-PVTZ
  Basis Set:
  Basis Set: CC-PVTZ
  Basis Set:
  @DF-RHF Final Energy:  -348.21567122585901
    Total Energy =                       -348.2156712258588982
  Basis Set: CC-PVTZ
  Basis Set:
  Basis Set: CC-PVTZ
  Basis Set:
  @DF-RHF Final Energy:  -348.21567238665227
    Total Energy =                       -348.2156723866522157
  Basis Set: CC-PVTZ
  Basis Set:
  Charge       = 0
  Multiplicity = 1
  Basis Set: CC-PVTZ
  Basis Set:

    Orbital Energies (a.u.)
    -----------------------

    Doubly Occupied:

       1A    -20.536786     2A    -11.319123     3A    -11.229262
       4A    -11.227132     5A    -11.226810     6A    -11.221187
       7A    -11.219999     8A    -11.211167     9A     -1.396913
      10A     -1.094853    11A     -1.043261    12A     -0.999596
      13A     -0.946861    14A     -0.858707    15A     -0.783450
      16A     -0.736009    17A     -0.658287    18A     -0.657383
      19A     -0.621880    20A     -0.608713    21A     -0.603562
      22A     -0.592145    23A     -0.559275    24A     -0.549916
      25A     -0.537426    26A     -0.523551    27A     -0.502771
      28A     -0.491437    29A     -0.467375    30A     -0.461258
      31A     -0.457239    32A     -0.398583

  @DF-RHF Final Energy:  -348.21567235189508

   => Energetics <=

    Nuclear Repulsion Energy =            379.7529918308015908
    One-Electron Energy =               -1224.4534943642242979
    Two-Electron Energy =                 496.4848301815280820
    DFT Exchange-Correlation Energy =       0.0000000000000000
    Empirical Dispersion Energy =           0.0000000000000000
    PCM Polarization Energy =               0.0000000000000000
    EFP Energy =                            0.0000000000000000
    Total Energy =                       -348.2156723518945682
    Molecular point group: c1
  Basis Set: CC-PVTZ
  Basis Set:

  -Total Gradient:
     Atom            X                  Y                   Z
    ------   -----------------  -----------------  -----------------
       1        0.000018948946    -0.000013437240    -0.000000334392
       2       -0.000012762793     0.000004115652    -0.000020667977
       3        0.000575051988    -0.002419274875     0.003665757832
       4       -0.000006316185     0.000000175459    -0.000000805624
       5       -0.001534639584     0.002449912994    -0.005860760187
       6       -0.000009346697     0.000009840951    -0.000015528035
       7       -0.000013954104    -0.000004959819     0.000009325589
       8        0.004253389664     0.004398207337     0.004704470293
       9       -0.000036337038    -0.000002049911    -0.000033878736
      10       -0.000006038345    -0.000012635270     0.000010077428
      11       -0.000012717813    -0.000023460612    -0.000033603873
      12       -0.003215620486    -0.004409333070    -0.002426220288
      13       -0.000004456635     0.000021775052    -0.000026793437
      14       -0.000025675186     0.000060733029    -0.000048705486
      15       -0.000007299167    -0.000003470527     0.000020730992
      16        0.000005448974    -0.000019874756     0.000011970953
      17       -0.000017601444    -0.000008473950     0.000056046391
      18        0.000010883011    -0.000003275836     0.000008033451
      19        0.000015522543    -0.000025463605    -0.000016644748
      20        0.000000177167     0.000005290421    -0.000007135171
      21        0.000024013581    -0.000008386874    -0.000005452174
      22       -0.000000670396     0.000004045450     0.000010117199

  **** Optimization is complete! (in 12 steps) ****
    Final optimized geometry and variables:
    Molecular point group: c1

    Geometry (in Angstrom), charge = 0, multiplicity = 1:

    O           -1.943857879853     0.447712714681     1.771586389111
    C           -1.523938936042     0.895319244060     0.754407174631
    C           -0.177755077186     0.463214078353     0.206839553754
    C           -2.309306814362     1.903486767360    -0.050483063364
    C           -0.331725440307    -0.821314477661    -0.619895457676
    H            0.471747722734     0.287432820956     1.051869878786
    H            0.246187175552     1.257780596802    -0.397316106260
    C            0.952040759702    -1.431653238711    -1.212627421450
    H           -0.788749456140    -1.556763190998     0.033289582452
    H           -1.036117149429    -0.655551247975    -1.428670901709
    C            2.230405292917    -1.395987386773    -0.366890883503
    H            1.136040003278    -1.019017028336    -2.201018399758
    H            0.715067980589    -2.473735788449    -1.405214926092
    C            3.077711528125    -0.132441390468    -0.508024068481
    H            2.845544592612    -2.239768660703    -0.661260005430
    H            1.983876941348    -1.562415166512     0.677618387874
    H            3.367735073453     0.019462863846    -1.542313040928
    H            3.985672891923    -0.215519914165     0.078596835132
    H            2.558346517315     0.757391236217    -0.178743080187
    H           -1.803125390691     2.862716730875    -0.009100682677
    H           -3.305398389217     2.005411147398     0.351869958430
    H           -2.356919491977     1.611175784832    -1.093277607330

  Mulliken Charges: (a.u.)
   Center  Symbol    Alpha    Beta     Spin     Total
       1     O     4.17720  4.17720  0.00000 -0.35440
       2     C     2.85820  2.85820  0.00000  0.28361
       3     C     3.10767  3.10767  0.00000 -0.21533
       4     C     3.15627  3.15627  0.00000 -0.31254
       5     C     3.10513  3.10513  0.00000 -0.21026
       6     H     0.43522  0.43522  0.00000  0.12955
       7     H     0.44807  0.44807  0.00000  0.10387
       8     C     3.09775  3.09775  0.00000 -0.19550
       9     H     0.44056  0.44056  0.00000  0.11888
      10     H     0.44591  0.44591  0.00000  0.10817
      11     C     3.10288  3.10288  0.00000 -0.20577
      12     H     0.45244  0.45244  0.00000  0.09512
      13     H     0.44484  0.44484  0.00000  0.11032
      14     C     3.14903  3.14903  0.00000 -0.29806
      15     H     0.44312  0.44312  0.00000  0.11375
      16     H     0.44789  0.44789  0.00000  0.10421
      17     H     0.45418  0.45418  0.00000  0.09164
      18     H     0.44616  0.44616  0.00000  0.10767
      19     H     0.45290  0.45290  0.00000  0.09419
      20     H     0.44825  0.44825  0.00000  0.10349
      21     H     0.43571  0.43571  0.00000  0.12858
      22     H     0.45060  0.45060  0.00000  0.09881

   Total alpha = 32.00000, Total beta = 32.00000, Total charge = -0.00000

*** Psi4 exiting successfully. Buy a developer a beer!
