  ==> Input File <==

--------------------------------------------------------------------------
set {
	reference rhf
	basis 6-31G*
}

set_num_threads( 1 )
memory 2 gb

molecule MOL {
0 1

H	 -2.499100	 -0.730091	 -0.745082
O	 -2.347518	 -0.290803	 0.079804
C	 -1.184022	 0.487508	 -0.006784
C	 0.062599	 -0.378592	 0.031606
H	 -1.176523	 1.099369	 -0.904519
H	 -1.187323	 1.153111	 0.844927
O	 1.171513	 0.459272	 -0.058250
H	 0.050699	 -1.089204	 -0.797170
H	 0.078739	 -0.954914	 0.954740
C	 0.918687	 1.788760	 0.269903
H	 0.570753	 1.885918	 1.296612
H	 1.845862	 2.334123	 0.161141
H	 0.172366	 2.225765	 -0.390266

	symmetry c1
}
set optking {
	frozen_dihedral = ("
		8 4 3 5,
		1 2 3 5,
		4 7 10 13
	")
}

ee = energy('scf')
oeprop('DIPOLE', 'QUADRUPOLE', 'MULLIKEN_CHARGES')
f=open( 'psi4out.xyz', 'w' )
f.write( "13  " )
f.write( str(ee) + "\n" )
f.write( MOL.save_string_xyz() )
f.close()
--------------------------------------------------------------------------

    Molecular point group: c1

    Geometry (in Angstrom), charge = 0, multiplicity = 1:

       Center              X                  Y                   Z               Mass
    ------------   -----------------  -----------------  -----------------  -----------------
           H         -2.191361776318    -1.143453105222    -0.801689355330     1.007825032070
           O         -2.039779776318    -0.704165105222     0.023196644670    15.994914619560
           C         -0.876283776318     0.074145894778    -0.063391355330    12.000000000000
           C          0.370337223682    -0.791954105222    -0.025001355330    12.000000000000
           H         -0.868784776318     0.686006894778    -0.961126355330     1.007825032070
           H         -0.879584776318     0.739748894778     0.788319644670     1.007825032070
           O          1.479251223682     0.045909894778    -0.114857355330    15.994914619560
           H          0.358437223682    -1.502566105222    -0.853777355330     1.007825032070
           H          0.386477223682    -1.368276105222     0.898132644670     1.007825032070
           C          1.226425223682     1.375397894778     0.213295644670    12.000000000000
           H          0.878491223682     1.472555894778     1.240004644670     1.007825032070
           H          2.153600223682     1.920760894778     0.104533644670     1.007825032070
           H          0.480104223682     1.812402894778    -0.446873355330     1.007825032070

  Charge       = 0
  Multiplicity = 1
  Basis Set: 6-31G*
  Basis Set:

    Orbital Energies (a.u.)
    -----------------------

    Doubly Occupied:

       1A    -20.562963     2A    -20.559087     3A    -11.273896
       4A    -11.271682     5A    -11.269344     6A     -1.391517
       7A     -1.367770     8A     -1.009402     9A     -0.954220
      10A     -0.821411    11A     -0.722786    12A     -0.688150
      13A     -0.659119    14A     -0.633948    15A     -0.589451
      16A     -0.558548    17A     -0.554392    18A     -0.524963
      19A     -0.491211    20A     -0.430563    21A     -0.406817

  @DF-RHF Final Energy:  -267.92491268527783

   => Energetics <=

    Nuclear Repulsion Energy =            197.0376813697332352
    One-Electron Energy =                -756.4426038061602640
    Two-Electron Energy =                 291.4800097511490549
    DFT Exchange-Correlation Energy =       0.0000000000000000
    Empirical Dispersion Energy =           0.0000000000000000
    PCM Polarization Energy =               0.0000000000000000
    EFP Energy =                            0.0000000000000000
    Total Energy =                       -267.9249126852779455

  Mulliken Charges: (a.u.)
   Center  Symbol    Alpha    Beta     Spin     Total
       1     H     0.28112  0.28112  0.00000  0.43777
       2     O     4.37513  4.37513  0.00000 -0.75027
       3     C     3.02330  3.02330  0.00000 -0.04661
       4     C     2.98625  2.98625  0.00000  0.02751
       5     H     0.42089  0.42089  0.00000  0.15822
       6     H     0.40865  0.40865  0.00000  0.18270
       7     O     4.30898  4.30898  0.00000 -0.61796
       8     H     0.42524  0.42524  0.00000  0.14953
       9     H     0.41971  0.41971  0.00000  0.16058
      10     C     3.09413  3.09413  0.00000 -0.18825
      11     H     0.42466  0.42466  0.00000  0.15069
      12     H     0.40637  0.40637  0.00000  0.18727
      13     H     0.42558  0.42558  0.00000  0.14884

   Total alpha = 21.00000, Total beta = 21.00000, Total charge = -0.00000
