                              Psi4 1.0.54 Driver

  ==> Input File <==

--------------------------------------------------------------------------
set {
	reference rhf
	basis cc-pvtz
}

set_num_threads( 4 )
memory 2 gb

molecule MOL {
0 1

H	 2.708001	 -0.788647	 -0.565490
N	 2.326826	 -0.066186	 0.000000
C	 0.934676	 -0.005420	 0.000000
H	 2.739795	 -0.060246	 0.903573
C	 0.226436	 -0.001077	 -1.195129
C	 0.226436	 -0.001077	 1.195129
H	 0.759091	 -0.011439	 -2.128123
C	 -1.153391	 0.009141	 -1.189028
H	 0.759091	 -0.011439	 2.128123
C	 -1.153391	 0.009141	 1.189028
H	 -1.680905	 0.012964	 -2.124348
C	 -1.857876	 0.014675	 0.000000
H	 -1.680905	 0.012964	 2.124348
H	 -2.930222	 0.022904	 0.000000

	symmetry c1
}
set optking {
	frozen_dihedral = ("
		1 2 3 5
	")
}

ee,wfn = optimize('scf', return_wfn=True)
oeprop( wfn, 'DIPOLE', 'QUADRUPOLE', 'MULLIKEN_CHARGES')
f=open( 'psi4out.xyz', 'w' )
f.write( "14  " )
f.write( str(ee) + "\n" )
f.write( MOL.save_string_xyz() )
f.close()
--------------------------------------------------------------------------

    Molecular point group: c1
  Charge       = 0
  Multiplicity = 1
  Basis Set: CC-PVTZ
  Basis Set:
  @DF-RHF Final Energy:  -285.83165667276342
    Total Energy =                       -285.8316566727634154
    Molecular point group: c1
  Basis Set: CC-PVTZ
  Basis Set:
  Basis Set: CC-PVTZ
  Basis Set:
  @DF-RHF Final Energy:  -285.83250109892663
    Total Energy =                       -285.8325010989264570
  Basis Set: CC-PVTZ
  Basis Set:
  Basis Set: CC-PVTZ
  Basis Set:
  @DF-RHF Final Energy:  -285.83270719706218
    Total Energy =                       -285.8327071970620636
  Basis Set: CC-PVTZ
  Basis Set:
  Basis Set: CC-PVTZ
  Basis Set:
  @DF-RHF Final Energy:  -285.83271724580635
    Total Energy =                       -285.8327172458061796
  Basis Set: CC-PVTZ
  Basis Set:
  Charge       = 0
  Multiplicity = 1
  Basis Set: CC-PVTZ
  Basis Set:

    Orbital Energies (a.u.)
    -----------------------

    Doubly Occupied:

       1A    -15.554762     2A    -11.269097     3A    -11.227763
       4A    -11.227411     5A    -11.217832     6A    -11.216368
       7A    -11.213736     8A     -1.224610     9A     -1.131419
      10A     -1.014297    11A     -0.988769    12A     -0.832852
      13A     -0.813051    14A     -0.707503    15A     -0.683184
      16A     -0.653561    17A     -0.603403    18A     -0.594818
      19A     -0.582997    20A     -0.529195    21A     -0.506312
      22A     -0.488871    23A     -0.447050    24A     -0.336609
      25A     -0.299978

  @DF-RHF Final Energy:  -285.83271786629916

   => Energetics <=

    Nuclear Repulsion Energy =            273.5959033333622301
    One-Electron Energy =                -928.1263450960632326
    Two-Electron Energy =                 368.6977238964018397
    DFT Exchange-Correlation Energy =       0.0000000000000000
    Empirical Dispersion Energy =           0.0000000000000000
    PCM Polarization Energy =               0.0000000000000000
    EFP Energy =                            0.0000000000000000
    Total Energy =                       -285.8327178662991628
    Molecular point group: c1
  Basis Set: CC-PVTZ
  Basis Set:

  -Total Gradient:
     Atom            X                  Y                   Z
    ------   -----------------  -----------------  -----------------
       1        0.000106232650    -0.001791344593     0.001945303295
       2       -0.000154440314     0.003283273129    -0.002477336492
       3        0.000102457398    -0.003466848521     0.000344553996
       4        0.000031684289    -0.000025478308     0.000021726630
       5        0.000019168047     0.001993319227     0.000109891357
       6       -0.000136753293     0.000024358846     0.000052939565
       7       -0.000000493770     0.000010349016    -0.000011433345
       8       -0.000089990484    -0.000056075864     0.000059154691
       9        0.000008404060     0.000017290572     0.000001483184
      10        0.000115162117    -0.000086419920     0.000069283476
      11        0.000011369059     0.000010276311    -0.000003395149
      12       -0.000004600330     0.000067999714    -0.000122668963
      13       -0.000008748763     0.000010838414    -0.000002313414
      14        0.000000549332     0.000008461977     0.000012811169

  **** Optimization is complete! (in 5 steps) ****
    Final optimized geometry and variables:
    Molecular point group: c1

    Geometry (in Angstrom), charge = 0, multiplicity = 1:

    H            2.734689844149    -0.679071389944    -0.621611606390
    N            2.334329819172    -0.002192009478    -0.010561364668
    C            0.932382979453    -0.029755892944     0.004252137500
    H            2.732644760480    -0.104066878400     0.895657678196
    C            0.229178540733    -0.010785915902    -1.194196032739
    C            0.222070763959     0.001203457853     1.194764540561
    H            0.769622006021    -0.006778416113    -2.122195366788
    C           -1.149223007360     0.012598698881    -1.194109796462
    H            0.750376380813    -0.005377970973     2.130443596694
    C           -1.159458055362     0.041238404986     1.185311577101
    H           -1.674374093045     0.020864200125    -2.130641267638
    C           -1.857174856443     0.041840654418    -0.005550041643
    H           -1.690147810176     0.066078848612     2.118422451695
    H           -2.929347055738     0.067984483400    -0.009888498074

  Mulliken Charges: (a.u.)
   Center  Symbol    Alpha    Beta     Spin     Total
       1     H     0.42038  0.42038  0.00000  0.15923
       2     N     3.67256  3.67256  0.00000 -0.34512
       3     C     2.88927  2.88927  0.00000  0.22146
       4     H     0.42694  0.42694  0.00000  0.14612
       5     C     3.11462  3.11462  0.00000 -0.22924
       6     C     3.11757  3.11757  0.00000 -0.23515
       7     H     0.42896  0.42896  0.00000  0.14207
       8     C     3.05963  3.05963  0.00000 -0.11927
       9     H     0.43457  0.43457  0.00000  0.13087
      10     C     3.06072  3.06072  0.00000 -0.12145
      11     H     0.42442  0.42442  0.00000  0.15117
      12     C     3.10081  3.10081  0.00000 -0.20163
      13     H     0.42455  0.42455  0.00000  0.15090
      14     H     0.42499  0.42499  0.00000  0.15002

   Total alpha = 25.00000, Total beta = 25.00000, Total charge = -0.00000

*** Psi4 exiting successfully. Buy a developer a beer!
