  ==> Input File <==

--------------------------------------------------------------------------
set {
	reference rhf
	basis 6-31G*
}

set_num_threads( 4 )
memory 2 gb

molecule MOL {
0 1

O	 0.333859	 1.025570	 0.811420
C	 0.486307	 0.169203	 0.000779
C	 1.608116	 -0.841643	 0.000302
O	 -0.325487	 -0.011948	 -1.031587
C	 2.990107	 -0.200498	 -0.000684
H	 1.468623	 -1.481519	 -0.865924
H	 1.469683	 -1.481289	 0.866878
H	 3.129736	 0.423364	 -0.875135
H	 3.757882	 -0.966877	 -0.001197
H	 3.130964	 0.423383	 0.873533
C	 -1.433207	 0.873317	 -1.160674
C	 -2.197076	 0.466280	 -2.402905
H	 -1.066860	 1.888390	 -1.231375
H	 -2.046663	 0.802320	 -0.272855
H	 -1.567374	 0.537620	 -3.282418
H	 -3.053727	 1.118203	 -2.540002
H	 -2.552644	 -0.554378	 -2.318730

	symmetry c1
}
set optking {
	frozen_dihedral = ("
		4 2 3 6
	")
}

ee = optimize('scf')
oeprop('DIPOLE', 'QUADRUPOLE', 'MULLIKEN_CHARGES')
f=open( 'psi4out.xyz', 'w' )
f.write( "17  " )
f.write( str(ee) + "\n" )
f.write( MOL.save_string_xyz() )
f.close()
--------------------------------------------------------------------------

    Molecular point group: c1
  Charge       = 0
  Multiplicity = 1
  Basis Set: 6-31G*
  Basis Set:
  @DF-RHF Final Energy:  -344.90968580556222
    Total Energy =                       -344.9096858055620487
    Molecular point group: c1
  Basis Set: 6-31G*
  Basis Set:
  Basis Set: 6-31G*
  Basis Set:
  @DF-RHF Final Energy:  -344.91018797911897
    Total Energy =                       -344.9101879791187457
  Basis Set: 6-31G*
  Basis Set:
  Basis Set: 6-31G*
  Basis Set:
  @DF-RHF Final Energy:  -344.90920232536081
    Total Energy =                       -344.9092023253609796
  Basis Set: 6-31G*
  Basis Set:
  Basis Set: 6-31G*
  Basis Set:
  @DF-RHF Final Energy:  -344.91027419111379
    Total Energy =                       -344.9102741911137855
  Basis Set: 6-31G*
  Basis Set:
  Basis Set: 6-31G*
  Basis Set:
  @DF-RHF Final Energy:  -344.91027861904428
    Total Energy =                       -344.9102786190444476
  Basis Set: 6-31G*
  Basis Set:
  Charge       = 0
  Multiplicity = 1
  Basis Set: 6-31G*
  Basis Set:

    Orbital Energies (a.u.)
    -----------------------

    Doubly Occupied:

       1A    -20.603324     2A    -20.541094     3A    -11.370832
       4A    -11.284804     5A    -11.236148     6A    -11.222512
       7A    -11.222183     8A     -1.467987     9A     -1.360572
      10A     -1.070092    11A     -1.032403    12A     -0.909518
      13A     -0.850916    14A     -0.775915    15A     -0.694271
      16A     -0.686179    17A     -0.666012    18A     -0.620389
      19A     -0.593515    20A     -0.574451    21A     -0.555742
      22A     -0.531523    23A     -0.525183    24A     -0.510265
      25A     -0.501841    26A     -0.492950    27A     -0.451421
      28A     -0.433135

  @DF-RHF Final Energy:  -344.91027899053046

   => Energetics <=

    Nuclear Repulsion Energy =            315.1398667251025358
    One-Electron Energy =               -1094.5299414778210121
    Two-Electron Energy =                 434.4797957621884734
    DFT Exchange-Correlation Energy =       0.0000000000000000
    Empirical Dispersion Energy =           0.0000000000000000
    PCM Polarization Energy =               0.0000000000000000
    EFP Energy =                            0.0000000000000000
    Total Energy =                       -344.9102789905299460
    Molecular point group: c1
  Basis Set: 6-31G*
  Basis Set:

  -Total Gradient:
     Atom            X                  Y                   Z
    ------   -----------------  -----------------  -----------------
       1       -0.000050089707    -0.000044037836    -0.000069328157
       2       -0.000588119336    -0.000639032875     0.000678137751
       3        0.000699070937     0.000757573433    -0.000747117225
       4        0.000338405524     0.000391326738    -0.000287427466
       5       -0.000000946825     0.000041999619     0.000050197131
       6       -0.000463127433    -0.000545531884     0.000445178814
       7        0.000015975703     0.000017932821    -0.000035547059
       8       -0.000033725458    -0.000018116933     0.000009643887
       9       -0.000009489215    -0.000016022653    -0.000008215035
      10        0.000017679922     0.000009383939     0.000010549181
      11        0.000185538075     0.000130775665    -0.000133666569
      12       -0.000054590592    -0.000033944349     0.000031858407
      13       -0.000045080398    -0.000013998011     0.000008734278
      14       -0.000009176331    -0.000032294517     0.000044074739
      15        0.000011969383     0.000007852174     0.000021566960
      16       -0.000004052673    -0.000004911099     0.000000656416
      17       -0.000010241572    -0.000008954233    -0.000019296060

  **** Optimization is complete! (in 6 steps) ****
    Final optimized geometry and variables:
    Molecular point group: c1

    Geometry (in Angstrom), charge = 0, multiplicity = 1:

    O            0.155781368210     0.779953238248     1.348158946322
    C            0.290752186547    -0.073056033181     0.529171547547
    C            1.414388453972    -1.083603167597     0.541658586643
    O           -0.529067291942    -0.233115460733    -0.497548158054
    C            2.783087128439    -0.399352033941     0.570526550265
    H            1.318420988319    -1.745906330972    -0.308306088219
    H            1.287889500663    -1.679644712636     1.440305293209
    H            2.947608481530     0.185655962403    -0.328588192758
    H            3.571747034776    -1.140732383994     0.635379728306
    H            2.860338313957     0.261666151307     1.424334893348
    C           -1.629442459566     0.664775102470    -0.604993612032
    C           -2.416259656456     0.272827453953    -1.837724417245
    H           -1.252817741538     1.676005213568    -0.674733692585
    H           -2.229423835527     0.594666376445     0.291966186098
    H           -1.799328813050     0.343015026856    -2.726372295702
    H           -3.268011383248     0.934407826230    -1.957933117087
    H           -2.781181186993    -0.744559299776    -1.754190950938

  Mulliken Charges: (a.u.)
   Center  Symbol    Alpha    Beta     Spin     Total
       1     O     4.28761  4.28761  0.00000 -0.57522
       2     C     2.60736  2.60736  0.00000  0.78527
       3     C     3.20282  3.20282  0.00000 -0.40564
       4     O     4.31011  4.31011  0.00000 -0.62021
       5     C     3.24739  3.24739  0.00000 -0.49479
       6     H     0.40087  0.40087  0.00000  0.19826
       7     H     0.40074  0.40074  0.00000  0.19851
       8     H     0.41525  0.41525  0.00000  0.16950
       9     H     0.41435  0.41435  0.00000  0.17130
      10     H     0.40210  0.40210  0.00000  0.19579
      11     C     3.00358  3.00358  0.00000 -0.00717
      12     C     3.24860  3.24860  0.00000 -0.49719
      13     H     0.40979  0.40979  0.00000  0.18043
      14     H     0.40967  0.40967  0.00000  0.18067
      15     H     0.41184  0.41184  0.00000  0.17631
      16     H     0.41617  0.41617  0.00000  0.16765
      17     H     0.41174  0.41174  0.00000  0.17652

   Total alpha = 28.00000, Total beta = 28.00000, Total charge =  0.00000
