  ==> Input File <==

--------------------------------------------------------------------------
set {
	reference rhf
	basis cc-pvtz
}

set_num_threads( 4 )
memory 2 gb

molecule MOL {
0 1

H	 -2.816458	 -0.841657	 -0.064679
N	 -1.878861	 -0.711874	 0.250184
C	 -1.341419	 0.551458	 -0.220231
H	 -1.333674	 -1.468530	 -0.105118
C	 -0.343238	 1.104688	 0.770839
H	 -0.856496	 0.480717	 -1.193056
H	 -2.155502	 1.261816	 -0.313576
O	 0.752398	 0.242619	 0.835074
H	 -0.020971	 2.096353	 0.456327
H	 -0.809911	 1.192267	 1.749345
C	 1.716669	 0.604907	 1.766819
H	 2.510549	 -0.126815	 1.725309
H	 2.133750	 1.585378	 1.546781
H	 1.308967	 0.623040	 2.774793

	symmetry c1
}
set optking {
	frozen_dihedral = ("
		6 3 2 4
	")
}

ee = optimize('scf')
oeprop('DIPOLE', 'QUADRUPOLE', 'MULLIKEN_CHARGES')
f=open( 'psi4out.xyz', 'w' )
f.write( "14  " )
f.write( str(ee) + "\n" )
f.write( MOL.save_string_xyz() )
f.close()
--------------------------------------------------------------------------

    Molecular point group: c1
  Charge       = 0
  Multiplicity = 1
  Basis Set: CC-PVTZ
  Basis Set:
  @DF-RHF Final Energy:  -248.22359238137363
    Total Energy =                       -248.2235923813736918
    Molecular point group: c1
  Basis Set: CC-PVTZ
  Basis Set:
  Basis Set: CC-PVTZ
  Basis Set:
  @DF-RHF Final Energy:  -248.22385063480314
    Total Energy =                       -248.2238506348032843
  Basis Set: CC-PVTZ
  Basis Set:
  Basis Set: CC-PVTZ
  Basis Set:
  @DF-RHF Final Energy:  -248.22388379374141
    Total Energy =                       -248.2238837937413791
  Basis Set: CC-PVTZ
  Basis Set:
  Basis Set: CC-PVTZ
  Basis Set:
  @DF-RHF Final Energy:  -248.22388613063967
    Total Energy =                       -248.2238861306397553
  Basis Set: CC-PVTZ
  Basis Set:
  Charge       = 0
  Multiplicity = 1
  Basis Set: CC-PVTZ
  Basis Set:

    Orbital Energies (a.u.)
    -----------------------

    Doubly Occupied:

       1A    -20.545719     2A    -15.526072     3A    -11.259833
       4A    -11.259155     5A    -11.240931     6A     -1.380136
       7A     -1.176281     8A     -0.999440     9A     -0.904217
      10A     -0.813775    11A     -0.682209    12A     -0.675536
      13A     -0.640396    14A     -0.620318    15A     -0.604845
      16A     -0.533235    17A     -0.524350    18A     -0.501826
      19A     -0.472720    20A     -0.415537    21A     -0.385603

  @DF-RHF Final Energy:  -248.22388631561665

   => Energetics <=

    Nuclear Repulsion Energy =            194.0893620171254383
    One-Electron Energy =                -722.3022284884233386
    Two-Electron Energy =                 279.9889801556813609
    DFT Exchange-Correlation Energy =       0.0000000000000000
    Empirical Dispersion Energy =           0.0000000000000000
    PCM Polarization Energy =               0.0000000000000000
    EFP Energy =                            0.0000000000000000
    Total Energy =                       -248.2238863156165962
    Molecular point group: c1
  Basis Set: CC-PVTZ
  Basis Set:

  -Total Gradient:
     Atom            X                  Y                   Z
    ------   -----------------  -----------------  -----------------
       1       -0.000009921698     0.000009849002     0.000001184965
       2        0.003687494082     0.000142140268     0.004588292100
       3       -0.004600719164     0.000845423862    -0.003125900077
       4       -0.002204087561    -0.000270508671    -0.003267927093
       5       -0.000028740521    -0.000032702832     0.000055755544
       6        0.003144387049    -0.000717181521     0.001767280297
       7        0.000013913733     0.000003339332     0.000006966499
       8       -0.000010157373     0.000018068867    -0.000021385068
       9        0.000007049878    -0.000028751025    -0.000010850286
      10       -0.000001755632     0.000022907326     0.000013045900
      11        0.000003412476     0.000010132967    -0.000004546955
      12       -0.000002161821    -0.000000283922    -0.000003689873
      13        0.000006194238    -0.000000560902     0.000005475391
      14       -0.000004907683    -0.000001872748    -0.000003701341

  **** Optimization is complete! (in 5 steps) ****
    Final optimized geometry and variables:
    Molecular point group: c1

    Geometry (in Angstrom), charge = 0, multiplicity = 1:

    H           -2.608905683524    -1.189971641944    -0.785180780956
    N           -1.692147998505    -1.054788141825    -0.415889959129
    C           -1.128553007288     0.198554721862    -0.897041587239
    H           -1.146971149929    -1.830351994469    -0.725324624585
    C           -0.128508789257     0.757998637018     0.091935910481
    H           -0.610901509336     0.090731283651    -1.847392217557
    H           -1.925524054625     0.921034018754    -1.025519517568
    O            0.980576133859    -0.086028699284     0.128816407988
    H            0.175903015646     1.759638592577    -0.213173269890
    H           -0.586617918849     0.824838404107     1.075800555685
    C            1.933553004351     0.255247029727     1.078646438156
    H            2.742440964949    -0.457881911831     1.009449963148
    H            2.332243889109     1.252721615687     0.903645274120
    H            1.522309695359     0.221475795996     2.084802524323

  Mulliken Charges: (a.u.)
   Center  Symbol    Alpha    Beta     Spin     Total
       1     H     0.42928  0.42928  0.00000  0.14144
       2     N     3.68890  3.68890  0.00000 -0.37779
       3     C     3.03538  3.03538  0.00000 -0.07076
       4     H     0.42558  0.42558  0.00000  0.14884
       5     C     2.95776  2.95776  0.00000  0.08448
       6     H     0.46038  0.46038  0.00000  0.07925
       7     H     0.45598  0.45598  0.00000  0.08805
       8     O     4.17813  4.17813  0.00000 -0.35626
       9     H     0.47380  0.47380  0.00000  0.05239
      10     H     0.47253  0.47253  0.00000  0.05494
      11     C     3.03058  3.03058  0.00000 -0.06116
      12     H     0.44832  0.44832  0.00000  0.10336
      13     H     0.47327  0.47327  0.00000  0.05346
      14     H     0.47011  0.47011  0.00000  0.05977

   Total alpha = 21.00000, Total beta = 21.00000, Total charge = -0.00000
