  ==> Input File <==

--------------------------------------------------------------------------
set {
	reference rhf
	basis 6-31G*
}

set_num_threads( 1 )
memory 2 gb

molecule MOL {
0 1

H	 -4.236494	 0.538104	 0.039757
O	 -3.517110	 -0.026191	 -0.205115
C	 -2.306886	 0.532354	 0.237577
C	 -1.177863	 -0.397191	 -0.171080
H	 -2.156308	 1.517575	 -0.201710
H	 -2.315015	 0.655684	 1.319734
C	 0.198102	 0.111031	 0.262842
H	 -1.208843	 -0.518759	 -1.250427
H	 -1.368741	 -1.376554	 0.258909
C	 1.331804	 -0.827780	 -0.158768
H	 0.361943	 1.100838	 -0.156218
H	 0.217265	 0.229072	 1.345532
C	 2.723619	 -0.410569	 0.329459
H	 1.342964	 -0.912588	 -1.244120
H	 1.116806	 -1.824343	 0.220779
C	 3.214524	 0.930548	 -0.218949
H	 3.433303	 -1.183687	 0.045336
H	 2.728898	 -0.379955	 1.417209
H	 3.207976	 0.933548	 -1.305682
H	 2.598491	 1.757745	 0.117839
H	 4.231413	 1.130158	 0.104850

	symmetry c1
}
set optking {
	frozen_dihedral = ("
		2 3 4 8,
		8 4 7 10,
		4 7 10 14,
		1 2 3 5
	")
}

ee = energy('scf')
oeprop('DIPOLE', 'QUADRUPOLE', 'MULLIKEN_CHARGES')
f=open( 'psi4out.xyz', 'w' )
f.write( "21  " )
f.write( str(ee) + "\n" )
f.write( MOL.save_string_xyz() )
f.close()
--------------------------------------------------------------------------

    Molecular point group: c1

    Geometry (in Angstrom), charge = 0, multiplicity = 1:

       Center              X                  Y                   Z               Mass
    ------------   -----------------  -----------------  -----------------  -----------------
           H         -4.232180980698     0.532994779246     0.031828523501     1.007825032070
           O         -3.512796980698    -0.031300220754    -0.213043476499    15.994914619560
           C         -2.302572980698     0.527244779246     0.229648523501    12.000000000000
           C         -1.173549980698    -0.402300220754    -0.179008476499    12.000000000000
           H         -2.151994980698     1.512465779246    -0.209638476499     1.007825032070
           H         -2.310701980698     0.650574779246     1.311805523501     1.007825032070
           C          0.202415019302     0.105921779246     0.254913523501    12.000000000000
           H         -1.204529980698    -0.523868220754    -1.258355476499     1.007825032070
           H         -1.364427980698    -1.381663220754     0.250980523501     1.007825032070
           C          1.336117019302    -0.832889220754    -0.166696476499    12.000000000000
           H          0.366256019302     1.095728779246    -0.164146476499     1.007825032070
           H          0.221578019302     0.223962779246     1.337603523501     1.007825032070
           C          2.727932019302    -0.415678220754     0.321530523501    12.000000000000
           H          1.347277019302    -0.917697220754    -1.252048476499     1.007825032070
           H          1.121119019302    -1.829452220754     0.212850523501     1.007825032070
           C          3.218837019302     0.925438779246    -0.226877476499    12.000000000000
           H          3.437616019302    -1.188796220754     0.037407523501     1.007825032070
           H          2.733211019302    -0.385064220754     1.409280523501     1.007825032070
           H          3.212289019302     0.928438779246    -1.313610476499     1.007825032070
           H          2.602804019302     1.752635779246     0.109910523501     1.007825032070
           H          4.235726019302     1.125048779246     0.096921523501     1.007825032070

  Charge       = 0
  Multiplicity = 1
  Basis Set: 6-31G*
  Basis Set:

    Orbital Energies (a.u.)
    -----------------------

    Doubly Occupied:

       1A    -20.551837     2A    -11.267051     3A    -11.215654
       4A    -11.215191     5A    -11.213624     6A    -11.210661
       7A    -11.208201     8A     -1.358662     9A     -1.086328
      10A     -1.033149    11A     -0.954267    12A     -0.876062
      13A     -0.807425    14A     -0.778424    15A     -0.692429
      16A     -0.661544    17A     -0.622810    18A     -0.606652
      19A     -0.586454    20A     -0.569870    21A     -0.536289
      22A     -0.519974    23A     -0.510687    24A     -0.486737
      25A     -0.479716    26A     -0.460160    27A     -0.456102
      28A     -0.443215    29A     -0.433985

  @DF-RHF Final Energy:  -310.21280274605573

   => Energetics <=

    Nuclear Repulsion Energy =            312.6256121246925090
    One-Electron Energy =               -1039.9908895568410117
    Two-Electron Energy =                 417.1524746860931145
    DFT Exchange-Correlation Energy =       0.0000000000000000
    Empirical Dispersion Energy =           0.0000000000000000
    PCM Polarization Energy =               0.0000000000000000
    EFP Energy =                            0.0000000000000000
    Total Energy =                       -310.2128027460554449

  Mulliken Charges: (a.u.)
   Center  Symbol    Alpha    Beta     Spin     Total
       1     H     0.28118  0.28118  0.00000  0.43765
       2     O     4.37179  4.37179  0.00000 -0.74358
       3     C     2.98972  2.98972  0.00000  0.02056
       4     C     3.15892  3.15892  0.00000 -0.31783
       5     H     0.43294  0.43294  0.00000  0.13412
       6     H     0.43288  0.43288  0.00000  0.13425
       7     C     3.16215  3.16215  0.00000 -0.32430
       8     H     0.41478  0.41478  0.00000  0.17044
       9     H     0.41484  0.41484  0.00000  0.17033
      10     C     3.15167  3.15167  0.00000 -0.30334
      11     H     0.42134  0.42134  0.00000  0.15732
      12     H     0.42415  0.42415  0.00000  0.15171
      13     C     3.15232  3.15232  0.00000 -0.30464
      14     H     0.42302  0.42302  0.00000  0.15395
      15     H     0.42097  0.42097  0.00000  0.15807
      16     C     3.24147  3.24147  0.00000 -0.48293
      17     H     0.42063  0.42063  0.00000  0.15875
      18     H     0.42354  0.42354  0.00000  0.15292
      19     H     0.42203  0.42203  0.00000  0.15593
      20     H     0.42048  0.42048  0.00000  0.15904
      21     H     0.41920  0.41920  0.00000  0.16159

   Total alpha = 29.00000, Total beta = 29.00000, Total charge =  0.00000
