  ==> Input File <==

--------------------------------------------------------------------------
set {
	reference rhf
	basis 6-31G*
}

set_num_threads( 1 )
memory 2 gb

molecule MOL {
0 1

H	 2.005973	 -0.591839	 0.850222
O	 1.586534	 -0.678666	 -0.000226
C	 0.489431	 0.077273	 0.000046
C	 -0.764129	 -0.759190	 0.000191
O	 0.537743	 1.263962	 0.000257
C	 -2.038368	 0.075731	 -0.000248
H	 -0.717284	 -1.412404	 -0.866059
H	 -0.717458	 -1.411724	 0.866967
H	 -2.086483	 0.712501	 -0.875098
H	 -2.908485	 -0.571682	 -0.000042
H	 -2.086576	 0.713280	 0.874068

	symmetry c1
}
set optking {
	frozen_dihedral = ("
		2 3 4 7
	")
}

ee = energy('scf')
oeprop('DIPOLE', 'QUADRUPOLE', 'MULLIKEN_CHARGES')
f=open( 'psi4out.xyz', 'w' )
f.write( "11  " )
f.write( str(ee) + "\n" )
f.write( MOL.save_string_xyz() )
f.close()
--------------------------------------------------------------------------

    Molecular point group: c1

    Geometry (in Angstrom), charge = 0, multiplicity = 1:

       Center              X                  Y                   Z               Mass
    ------------   -----------------  -----------------  -----------------  -----------------
           H          2.010570973701    -0.585161411430     0.838645678339     1.007825032070
           O          1.591131973701    -0.671988411430    -0.011802321661    15.994914619560
           C          0.494028973701     0.083950588570    -0.011530321661    12.000000000000
           C         -0.759531026299    -0.752512411430    -0.011385321661    12.000000000000
           O          0.542340973701     1.270639588570    -0.011319321661    15.994914619560
           C         -2.033770026299     0.082408588570    -0.011824321661    12.000000000000
           H         -0.712686026299    -1.405726411430    -0.877635321661     1.007825032070
           H         -0.712860026299    -1.405046411430     0.855390678339     1.007825032070
           H         -2.081885026299     0.719178588570    -0.886674321661     1.007825032070
           H         -2.903887026299    -0.565004411430    -0.011618321661     1.007825032070
           H         -2.081978026299     0.719957588570     0.862491678339     1.007825032070

  Charge       = 0
  Multiplicity = 1
  Basis Set: 6-31G*
  Basis Set:

    Orbital Energies (a.u.)
    -----------------------

    Doubly Occupied:

       1A    -20.600537     2A    -20.559757     3A    -11.380898
       4A    -11.244032     5A    -11.220048     6A     -1.470962
       7A     -1.368895     8A     -1.063988     9A     -0.911459
      10A     -0.806899    11A     -0.710497    12A     -0.682586
      13A     -0.661595    14A     -0.615231    15A     -0.568843
      16A     -0.527258    17A     -0.521230    18A     -0.500092
      19A     -0.487376    20A     -0.446181

  @DF-RHF Final Energy:  -266.82658743473428

   => Energetics <=

    Nuclear Repulsion Energy =            179.7784072311494867
    One-Electron Energy =                -720.5132756159023302
    Two-Electron Energy =                 273.9082809500185931
    DFT Exchange-Correlation Energy =       0.0000000000000000
    Empirical Dispersion Energy =           0.0000000000000000
    PCM Polarization Energy =               0.0000000000000000
    EFP Energy =                            0.0000000000000000
    Total Energy =                       -266.8265874347342788

  Mulliken Charges: (a.u.)
   Center  Symbol    Alpha    Beta     Spin     Total
       1     H     0.26457  0.26457  0.00000  0.47087
       2     O     4.35615  4.35615  0.00000 -0.71231
       3     C     2.63757  2.63757  0.00000  0.72485
       4     C     3.20619  3.20619  0.00000 -0.41238
       5     O     4.25574  4.25574  0.00000 -0.51148
       6     C     3.24019  3.24019  0.00000 -0.48038
       7     H     0.39713  0.39713  0.00000  0.20574
       8     H     0.40606  0.40606  0.00000  0.18788
       9     H     0.40814  0.40814  0.00000  0.18371
      10     H     0.41738  0.41738  0.00000  0.16523
      11     H     0.41087  0.41087  0.00000  0.17826

   Total alpha = 20.00000, Total beta = 20.00000, Total charge = -0.00000
