  ==> Input File <==

--------------------------------------------------------------------------
set {
	reference rhf
	basis cc-pvtz
}

set_num_threads( 4 )
memory 2 gb

molecule MOL {
0 1

H	 2.497047	 0.346550	 1.131719
O	 1.645088	 -0.059846	 1.184101
C	 1.050374	 0.054877	 0.000135
C	 -0.318151	 -0.570512	 0.000144
O	 1.570516	 0.591537	 -0.916061
C	 -1.454884	 0.441630	 -0.000560
H	 -0.371613	 -1.223646	 -0.864985
H	 -0.371920	 -1.222758	 0.865929
C	 -2.822577	 -0.232186	 0.000063
H	 -1.359760	 1.084704	 -0.867077
H	 -1.359641	 1.085996	 0.864983
H	 -2.954352	 -0.858985	 -0.875745
H	 -3.615886	 0.505352	 0.000019
H	 -2.953878	 -0.858359	 0.876394

	symmetry c1
}
set optking {
	frozen_dihedral = ("
		2 3 4 7
	")
}

ee = optimize('scf')
oeprop('DIPOLE', 'QUADRUPOLE', 'MULLIKEN_CHARGES')
f=open( 'psi4out.xyz', 'w' )
f.write( "14  " )
f.write( str(ee) + "\n" )
f.write( MOL.save_string_xyz() )
f.close()
--------------------------------------------------------------------------

    Molecular point group: c1
  Charge       = 0
  Multiplicity = 1
  Basis Set: CC-PVTZ
  Basis Set:
  @DF-RHF Final Energy:  -305.99860323385451
    Total Energy =                       -305.9986032338541690
    Molecular point group: c1
  Basis Set: CC-PVTZ
  Basis Set:
  Basis Set: CC-PVTZ
  Basis Set:
  @DF-RHF Final Energy:  -305.99931714282638
    Total Energy =                       -305.9993171428264986
  Basis Set: CC-PVTZ
  Basis Set:
  Basis Set: CC-PVTZ
  Basis Set:
  @DF-RHF Final Energy:  -305.99879820980999
    Total Energy =                       -305.9987982098098200
  Basis Set: CC-PVTZ
  Basis Set:
  Basis Set: CC-PVTZ
  Basis Set:
  @DF-RHF Final Energy:  -305.99937790138739
    Total Energy =                       -305.9993779013875610
  Basis Set: CC-PVTZ
  Basis Set:
  Basis Set: CC-PVTZ
  Basis Set:
  @DF-RHF Final Energy:  -305.99938844763494
    Total Energy =                       -305.9993884476351695
  Basis Set: CC-PVTZ
  Basis Set:
  Charge       = 0
  Multiplicity = 1
  Basis Set: CC-PVTZ
  Basis Set:

    Orbital Energies (a.u.)
    -----------------------

    Doubly Occupied:

       1A    -20.606449     2A    -20.538039     3A    -11.373253
       4A    -11.238123     5A    -11.232300     6A    -11.218396
       7A     -1.478151     8A     -1.368331     9A     -1.086525
      10A     -0.980495    11A     -0.856025    12A     -0.805808
      13A     -0.706339    14A     -0.689929    15A     -0.650050
      16A     -0.633471    17A     -0.596662    18A     -0.571607
      19A     -0.552482    20A     -0.515757    21A     -0.498093
      22A     -0.488926    23A     -0.474497    24A     -0.443321

  @DF-RHF Final Energy:  -305.99938876954599

   => Energetics <=

    Nuclear Repulsion Energy =            240.6316987477367206
    One-Electron Energy =                -894.0561131088522870
    Two-Electron Energy =                 347.4250255915696357
    DFT Exchange-Correlation Energy =       0.0000000000000000
    Empirical Dispersion Energy =           0.0000000000000000
    PCM Polarization Energy =               0.0000000000000000
    EFP Energy =                            0.0000000000000000
    Total Energy =                       -305.9993887695459875
    Molecular point group: c1
  Basis Set: CC-PVTZ
  Basis Set:

  -Total Gradient:
     Atom            X                  Y                   Z
    ------   -----------------  -----------------  -----------------
       1       -0.000021045040    -0.000003454433    -0.000016185434
       2        0.000043596283    -0.000137625099     0.000016069940
       3       -0.000040323949     0.000156284235    -0.000002652848
       4       -0.000068089365     0.000125696700    -0.000083605033
       5        0.000001608815     0.000008286897    -0.000013449613
       6       -0.000001758963    -0.000011799752     0.000008025980
       7        0.000065570790    -0.000117656218     0.000090026587
       8       -0.000011671245    -0.000022981190     0.000010742183
       9        0.000019145854    -0.000003567383    -0.000002628585
      10       -0.000006341694     0.000002412198    -0.000008037947
      11       -0.000005091845    -0.000009227093     0.000001956880
      12        0.000007580467     0.000001410177     0.000001405865
      13        0.000008146150     0.000009224703    -0.000002320175
      14        0.000008673740     0.000002996259     0.000000652203

  **** Optimization is complete! (in 6 steps) ****
    Final optimized geometry and variables:
    Molecular point group: c1

    Geometry (in Angstrom), charge = 0, multiplicity = 1:

    H            2.544587642555     0.340166992039     1.018253105166
    O            1.717932105597    -0.112302828321     1.098785971039
    C            1.061058575684     0.009462974834    -0.049411582308
    C           -0.290526129706    -0.653913137479    -0.031495791557
    O            1.509806852470     0.598790249004    -0.972161099970
    C           -1.416958364195     0.384422655486    -0.054218896696
    H           -0.349840967413    -1.276294857361    -0.915899051446
    H           -0.373607545116    -1.287854631037     0.840188079872
    C           -2.795308848266    -0.264927131132    -0.081737166561
    H           -1.288805114975     1.020481833194    -0.921228378754
    H           -1.333214047308     1.022708075932     0.819781252751
    H           -2.916610647225    -0.886421333165    -0.962287315914
    H           -3.575179297623     0.486804579652    -0.096693622188
    H           -2.953743360633    -0.889954115883     0.790413130800

  Mulliken Charges: (a.u.)
   Center  Symbol    Alpha    Beta     Spin     Total
       1     H     0.38024  0.38024  0.00000  0.23953
       2     O     4.15983  4.15983  0.00000 -0.31965
       3     C     2.80636  2.80636  0.00000  0.38729
       4     C     3.08830  3.08830  0.00000 -0.17661
       5     O     4.19961  4.19961  0.00000 -0.39922
       6     C     3.09137  3.09137  0.00000 -0.18274
       7     H     0.44140  0.44140  0.00000  0.11719
       8     H     0.44018  0.44018  0.00000  0.11965
       9     C     3.14997  3.14997  0.00000 -0.29994
      10     H     0.44029  0.44029  0.00000  0.11943
      11     H     0.44953  0.44953  0.00000  0.10093
      12     H     0.45308  0.45308  0.00000  0.09384
      13     H     0.44560  0.44560  0.00000  0.10881
      14     H     0.45425  0.45425  0.00000  0.09150

   Total alpha = 24.00000, Total beta = 24.00000, Total charge =  0.00000
