  ==> Input File <==

--------------------------------------------------------------------------
set {
	reference rhf
	basis cc-pvtz
}

set_num_threads( 4 )
memory 2 gb

molecule MOL {
0 1

H	 -1.713577	 2.347071	 -0.730434
C	 -0.694511	 1.984070	 -0.756985
C	 -0.600949	 0.658697	 -0.000002
H	 -0.052611	 2.730839	 -0.309341
H	 -0.401380	 1.860084	 -1.790807
C	 0.763408	 0.112229	 -0.000006
H	 -0.905746	 0.782405	 1.030885
H	 -1.252552	 -0.083446	 -0.442236
N	 1.806008	 -0.317179	 0.000007

	symmetry c1
}
set optking {
	frozen_dihedral = ("
		7 3 6 9
	")
}

ee = optimize('scf')
oeprop('DIPOLE', 'QUADRUPOLE', 'MULLIKEN_CHARGES')
f=open( 'psi4out.xyz', 'w' )
f.write( "9  " )
f.write( str(ee) + "\n" )
f.write( MOL.save_string_xyz() )
f.close()
--------------------------------------------------------------------------

    Molecular point group: c1
  Charge       = 0
  Multiplicity = 1
  Basis Set: CC-PVTZ
  Basis Set:
  @DF-RHF Final Energy:  -171.02344380770640
    Total Energy =                       -171.0234438077063999
    Molecular point group: c1
  Basis Set: CC-PVTZ
  Basis Set:
  Basis Set: CC-PVTZ
  Basis Set:
  @DF-RHF Final Energy:  -170.75118422365469
    Total Energy =                       -170.7511842236546613
  Basis Set: CC-PVTZ
  Basis Set:
  Basis Set: CC-PVTZ
  Basis Set:
  @DF-RHF Final Energy:  -170.83918071604199
    Total Energy =                       -170.8391807160419944
  Basis Set: CC-PVTZ
  Basis Set:
  Basis Set: CC-PVTZ
  Basis Set:
  @DF-RHF Final Energy:  -170.99414154708165
    Total Energy =                       -170.9941415470815969
  Basis Set: CC-PVTZ
  Basis Set:
  @DF-RHF Final Energy:  -170.82070472247946
    Total Energy =                       -170.8207047224796042
  @DF-RHF Final Energy:  -170.78703848699524
    Total Energy =                       -170.7870384869951863
  @DF-RHF Final Energy:  -170.96834916733286
    Total Energy =                       -170.9683491673328035
  @DF-RHF Final Energy:  -170.81720734180567
    Total Energy =                       -170.8172073418056129
  @DF-RHF Final Energy:  -170.99854924171277
    Total Energy =                       -170.9985492417128512
  @DF-RHF Final Energy:  -170.97982527334048
    Total Energy =                       -170.9798252733405093
  @DF-RHF Final Energy:  -170.92218147946903
    Total Energy =                       -170.9221814794690317
  @DF-RHF Final Energy:  -171.02195854004785
    Total Energy =                       -171.0219585400478763
  @DF-RHF Final Energy:  -171.02320305285707
    Total Energy =                       -171.0232030528570988
  @DF-RHF Final Energy:  -171.02313526225947
    Total Energy =                       -171.0231352622595864
  @DF-RHF Final Energy:  -171.02321900175457
    Total Energy =                       -171.0232190017545690
  @DF-RHF Final Energy:  -171.01881760928870
    Total Energy =                       -171.0188176092885328
  @DF-RHF Final Energy:  -171.02081085081116
    Total Energy =                       -171.0208108508111309
  @DF-RHF Final Energy:  -171.02303882062949
    Total Energy =                       -171.0230388206294379
  @DF-RHF Final Energy:  -171.02328660814510
    Total Energy =                       -171.0232866081450709
  @DF-RHF Final Energy:  -171.02335841162397
    Total Energy =                       -171.0233584116240309
  @DF-RHF Final Energy:  -171.02344678999583
    Total Energy =                       -171.0234467899958588
  @DF-RHF Final Energy:  -171.02344196464827
    Total Energy =                       -171.0234419646481854
  @DF-RHF Final Energy:  -171.02344036412552
    Total Energy =                       -171.0234403641255199
  @DF-RHF Final Energy:  -171.02344216651642
    Total Energy =                       -171.0234421665163609
  @DF-RHF Final Energy:  -171.02344235440486
    Total Energy =                       -171.0234423544049491
  @DF-RHF Final Energy:  -171.02344418338168
    Total Energy =                       -171.0234441833817414
  @DF-RHF Final Energy:  -171.02344360374201
    Total Energy =                       -171.0234436037418959
  @DF-RHF Final Energy:  -171.02344359594326
    Total Energy =                       -171.0234435959432631
  @DF-RHF Final Energy:  -171.02344446870524
    Total Energy =                       -171.0234444687052360
  @DF-RHF Final Energy:  -171.02343855170108
    Total Energy =                       -171.0234385517011049
  @DF-RHF Final Energy:  -171.02343177672481
    Total Energy =                       -171.0234317767248342
  @DF-RHF Final Energy:  -171.02343082608371
    Total Energy =                       -171.0234308260835121
  @DF-RHF Final Energy:  -171.02342992098539
    Total Energy =                       -171.0234299209854214
  @DF-RHF Final Energy:  -171.02342847826455
    Total Energy =                       -171.0234284782646910
  @DF-RHF Final Energy:  -171.02342733427366
    Total Energy =                       -171.0234273342736913
  @DF-RHF Final Energy:  -171.02342605748532
    Total Energy =                       -171.0234260574853806
  Basis Set: CC-PVTZ
  Basis Set:
  @DF-RHF Final Energy:  -171.02342459014341
    Total Energy =                       -171.0234245901434065
  Basis Set: CC-PVTZ
  Basis Set:
  Basis Set: CC-PVTZ
  Basis Set:
  @DF-RHF Final Energy:  -171.02342301498174
    Total Energy =                       -171.0234230149817733
  Basis Set: CC-PVTZ
  Basis Set:
  Basis Set: CC-PVTZ
  Basis Set:
  @DF-RHF Final Energy:  -171.02342142559397
    Total Energy =                       -171.0234214255938809
  Basis Set: CC-PVTZ
  Basis Set:
  Charge       = 0
  Multiplicity = 1
  Basis Set: CC-PVTZ
  Basis Set:

    Orbital Energies (a.u.)
    -----------------------

    Doubly Occupied:

       1A    -15.556735     2A    -11.282709     3A    -11.261367
       4A    -11.244350     5A     -1.228711     6A     -1.084547
       7A     -0.913423     8A     -0.700499     9A     -0.661073
      10A     -0.590032    11A     -0.563424    12A     -0.545062
      13A     -0.539909    14A     -0.463880    15A     -0.463608

  @DF-RHF Final Energy:  -171.02341988121458

   => Energetics <=

    Nuclear Repulsion Energy =            103.7437460875478337
    One-Electron Energy =                -435.3356751929033521
    Two-Electron Energy =                 160.5685092241409961
    DFT Exchange-Correlation Energy =       0.0000000000000000
    Empirical Dispersion Energy =           0.0000000000000000
    PCM Polarization Energy =               0.0000000000000000
    EFP Energy =                            0.0000000000000000
    Total Energy =                       -171.0234198812145223
    Molecular point group: c1
  Basis Set: CC-PVTZ
  Basis Set:

  -Total Gradient:
     Atom            X                  Y                   Z
    ------   -----------------  -----------------  -----------------
       1        0.000103903302    -0.000066616405    -0.000183594400
       2        0.000788629680    -0.001169350650     0.000446299054
       3       -0.000893713462     0.000618915586    -0.000786846095
       4       -0.000132274243     0.000124631225    -0.000301343883
       5       -0.000140404968     0.000635797281     0.000125606564
       6       -0.001428287903     0.001209290923     0.001081829003
       7       -0.000573153515     0.000048929543     0.000284713213
       8        0.000489044735    -0.000240028388     0.000365141051
       9        0.001786256371    -0.001161569115    -0.001031804507

    Molecular point group: c1

    Geometry (in Angstrom), charge = 0, multiplicity = 1:

    H           -1.994549388303     1.676201718961    -0.474417498264
    C           -0.975042384116     1.316514273296    -0.520875702980
    C           -0.858481008595     0.001993949160     0.248324007158
    H           -0.326880200677     2.072611490930    -0.098728743841
    H           -0.707716102738     1.187191820110    -1.560735877717
    C            0.504194277418    -0.548310233743     0.200704539419
    H           -1.130395496506     0.138407171739     1.287333774767
    H           -1.522236388149    -0.748126656209    -0.160511915118
    N            1.548102012761    -0.971394904332     0.134049596196

  Mulliken Charges: (a.u.)
   Center  Symbol    Alpha    Beta     Spin     Total
       1     H     0.44623  0.44623  0.00000  0.10755
       2     C     3.13567  3.13567  0.00000 -0.27133
       3     C     3.07923  3.07923  0.00000 -0.15845
       4     H     0.44494  0.44494  0.00000  0.11013
       5     H     0.44461  0.44461  0.00000  0.11078
       6     C     3.04243  3.04243  0.00000 -0.08486
       7     H     0.43220  0.43220  0.00000  0.13560
       8     H     0.43188  0.43188  0.00000  0.13623
       9     N     3.54282  3.54282  0.00000 -0.08564

   Total alpha = 15.00000, Total beta = 15.00000, Total charge = -0.00000
