  ==> Input File <==

--------------------------------------------------------------------------
set {
	reference rhf
	basis cc-pvtz
}

set_num_threads( 4 )
memory 2 gb

molecule MOL {
0 1

H	 -3.034039	 -0.667848	 0.004703
O	 -2.240597	 -1.171748	 0.000934
C	 -1.159675	 -0.364500	 0.000370
C	 -0.116622	 -0.523525	 0.889845
C	 -1.127796	 0.652976	 -0.940789
H	 -0.140191	 -1.310366	 1.621545
C	 0.957633	 0.347326	 0.828037
H	 -1.955608	 0.750656	 -1.616157
C	 -0.054687	 1.519001	 -1.002553
H	 1.769653	 0.228640	 1.520358
C	 0.995433	 1.359855	 -0.103716
C	 -0.008960	 2.610832	 -2.041523
H	 1.834899	 2.028207	 -0.136339
H	 0.339086	 3.541988	 -1.611831
H	 -0.984351	 2.782464	 -2.476150
H	 0.671284	 2.346258	 -2.843964

	symmetry c1
}
set optking {
	frozen_dihedral = ("
		5 3 2 1
	")
}

ee = optimize('scf')
oeprop('DIPOLE', 'QUADRUPOLE', 'MULLIKEN_CHARGES')
f=open( 'psi4out.xyz', 'w' )
f.write( "16  " )
f.write( str(ee) + "\n" )
f.write( MOL.save_string_xyz() )
f.close()
--------------------------------------------------------------------------

    Molecular point group: c1
  Charge       = 0
  Multiplicity = 1
  Basis Set: CC-PVTZ
  Basis Set:
  @DF-RHF Final Energy:  -344.71646738613566
    Total Energy =                       -344.7164673861360598
    Molecular point group: c1
  Basis Set: CC-PVTZ
  Basis Set:
  Basis Set: CC-PVTZ
  Basis Set:
  @DF-RHF Final Energy:  -344.71788956813873
    Total Energy =                       -344.7178895681386166
  Basis Set: CC-PVTZ
  Basis Set:
  Basis Set: CC-PVTZ
  Basis Set:
  @DF-RHF Final Energy:  -344.71798365754739
    Total Energy =                       -344.7179836575477339
  Basis Set: CC-PVTZ
  Basis Set:
  Basis Set: CC-PVTZ
  Basis Set:
  @DF-RHF Final Energy:  -344.71799383154541
    Total Energy =                       -344.7179938315451295
  Basis Set: CC-PVTZ
  Basis Set:
  Basis Set: CC-PVTZ
  Basis Set:
  @DF-RHF Final Energy:  -344.71799633066081
    Total Energy =                       -344.7179963306605828
  Basis Set: CC-PVTZ
  Basis Set:
  Charge       = 0
  Multiplicity = 1
  Basis Set: CC-PVTZ
  Basis Set:

    Orbital Energies (a.u.)
    -----------------------

    Doubly Occupied:

       1A    -20.574903     2A    -11.290099     3A    -11.241615
       4A    -11.230817     5A    -11.221665     6A    -11.219844
       7A    -11.216332     8A    -11.216258     9A     -1.403205
      10A     -1.154836    11A     -1.047370    12A     -1.006956
      13A     -0.940319    14A     -0.838921    15A     -0.804417
      16A     -0.728409    17A     -0.681627    18A     -0.654454
      19A     -0.616728    20A     -0.595461    21A     -0.579308
      22A     -0.570069    23A     -0.557080    24A     -0.526945
      25A     -0.505379    26A     -0.485120    27A     -0.470148
      28A     -0.334179    29A     -0.316633

  @DF-RHF Final Energy:  -344.71799682311314

   => Energetics <=

    Nuclear Repulsion Energy =            346.0761915220296032
    One-Electron Energy =               -1153.5301806109737299
    Two-Electron Energy =                 462.7359922658307596
    DFT Exchange-Correlation Energy =       0.0000000000000000
    Empirical Dispersion Energy =           0.0000000000000000
    PCM Polarization Energy =               0.0000000000000000
    EFP Energy =                            0.0000000000000000
    Total Energy =                       -344.7179968231133671
    Molecular point group: c1
  Basis Set: CC-PVTZ
  Basis Set:

  -Total Gradient:
     Atom            X                  Y                   Z
    ------   -----------------  -----------------  -----------------
       1        0.000034587348     0.000095519441     0.002595882427
       2        0.000386985195    -0.000773977905    -0.003869789241
       3       -0.001338772539     0.001831945102     0.002520119651
       4        0.000020182068     0.000003497639    -0.000005819738
       5        0.000879878766    -0.001153183879    -0.001225075530
       6       -0.000018185776    -0.000007257161    -0.000007330101
       7       -0.000001736470     0.000019001626    -0.000002718268
       8        0.000021180211    -0.000000702478     0.000010234002
       9        0.000008957134    -0.000013620307    -0.000034914809
      10       -0.000002662038     0.000002132878    -0.000001324023
      11        0.000009028348    -0.000021659922     0.000016592040
      12        0.000009896483     0.000002272934     0.000010056691
      13       -0.000005295374     0.000006323039    -0.000013489270
      14       -0.000008373136     0.000008406194     0.000006091587
      15       -0.000002748008    -0.000001030231    -0.000011141667
      16        0.000007077783     0.000002333033     0.000012626249

  **** Optimization is complete! (in 6 steps) ****
    Final optimized geometry and variables:
    Molecular point group: c1

    Geometry (in Angstrom), charge = 0, multiplicity = 1:

    H           -2.635186992943    -1.299308186219     0.347952156997
    O           -1.813182951817    -1.756049324679     0.357903383970
    C           -0.774336698280    -0.878989625109     0.315797143785
    C            0.269754696765    -1.053378042453     1.198984632516
    C           -0.729533980995     0.129381124387    -0.632191174108
    H            0.222986654962    -1.844783448463     1.920475121258
    C            1.353709912698    -0.198263689691     1.131180059318
    H           -1.543571177733     0.229832232652    -1.326543971248
    C            0.349577614805     0.993361243487    -0.694658792006
    H            2.169275552225    -0.325413700112     1.817716093154
    C            1.395618239194     0.819760418032     0.201006172787
    C            0.406330040888     2.081758560953    -1.737191641885
    H            2.242526311679     1.479083467344     0.167362877294
    H            0.764295985764     3.010581987986    -1.310620873898
    H           -0.567692677305     2.263883975350    -2.171346786234
    H            1.082060905826     1.808772911166    -2.540522882896

  Mulliken Charges: (a.u.)
   Center  Symbol    Alpha    Beta     Spin     Total
       1     H     0.38606  0.38606  0.00000  0.22789
       2     O     4.18575  4.18575  0.00000 -0.37151
       3     C     2.85274  2.85274  0.00000  0.29452
       4     C     3.12323  3.12323  0.00000 -0.24646
       5     C     3.15232  3.15232  0.00000 -0.30463
       6     H     0.41735  0.41735  0.00000  0.16530
       7     C     3.05409  3.05409  0.00000 -0.10818
       8     H     0.42727  0.42727  0.00000  0.14546
       9     C     2.94541  2.94541  0.00000  0.10919
      10     H     0.42267  0.42267  0.00000  0.15466
      11     C     3.11311  3.11311  0.00000 -0.22622
      12     C     3.14676  3.14676  0.00000 -0.29353
      13     H     0.42738  0.42738  0.00000  0.14524
      14     H     0.44773  0.44773  0.00000  0.10454
      15     H     0.45193  0.45193  0.00000  0.09614
      16     H     0.44621  0.44621  0.00000  0.10759

   Total alpha = 29.00000, Total beta = 29.00000, Total charge = -0.00000
