                              Psi4 1.0.54 Driver

  ==> Input File <==

--------------------------------------------------------------------------
set {
	reference rhf
	basis cc-pvtz
}

set_num_threads( 4 )
memory 2 gb

molecule MOL {
0 1

H	 4.590386	 0.291417	 -0.481620
C	 3.738092	 -0.337025	 -0.251917
C	 2.440539	 0.462658	 -0.290862
H	 3.721152	 -1.146189	 -0.974415
H	 3.904286	 -0.772976	 0.727544
C	 1.215950	 -0.382441	 0.027187
H	 2.308111	 0.911096	 -1.269193
H	 2.502363	 1.283587	 0.419652
N	 0.000002	 0.398953	 -0.040851
H	 1.138925	 -1.188297	 -0.696576
H	 1.347249	 -0.857301	 1.004097
C	 -1.215959	 -0.382435	 0.027143
H	 -0.000012	 1.086078	 0.683841
C	 -2.451944	 0.502410	 -0.038737
H	 -1.221867	 -1.069392	 -0.813828
H	 -1.259993	 -0.999709	 0.929424
C	 -3.752217	 -0.292550	 0.005776
H	 -2.407325	 1.093801	 -0.946480
H	 -2.431979	 1.206234	 0.790023
H	 -3.817783	 -0.982946	 -0.828547
H	 -4.612613	 0.364348	 -0.042306
H	 -3.830160	 -0.871666	 0.919868

	symmetry c1
}
set optking {
	frozen_dihedral = ("
		10 6 9 12
	")
}

ee,wfn = optimize('scf', return_wfn=True)
oeprop( wfn, 'DIPOLE', 'QUADRUPOLE', 'MULLIKEN_CHARGES')
f=open( 'psi4out.xyz', 'w' )
f.write( "22  " )
f.write( str(ee) + "\n" )
f.write( MOL.save_string_xyz() )
f.close()
--------------------------------------------------------------------------

    Molecular point group: c1
  Charge       = 0
  Multiplicity = 1
  Basis Set: CC-PVTZ
  Basis Set:
  @DF-RHF Final Energy:  -290.48975757137413
    Total Energy =                       -290.4897575713740139
    Molecular point group: c1
  Basis Set: CC-PVTZ
  Basis Set:
  Basis Set: CC-PVTZ
  Basis Set:
  @DF-RHF Final Energy:  -290.48979267478785
    Total Energy =                       -290.4897926747884185
  Basis Set: CC-PVTZ
  Basis Set:
  Basis Set: CC-PVTZ
  Basis Set:
  @DF-RHF Final Energy:  -290.48979815722674
    Total Energy =                       -290.4897981572266872
  Basis Set: CC-PVTZ
  Basis Set:
  Charge       = 0
  Multiplicity = 1
  Basis Set: CC-PVTZ
  Basis Set:

    Orbital Energies (a.u.)
    -----------------------

    Doubly Occupied:

       1A    -15.527674     2A    -11.236395     3A    -11.236232
       4A    -11.211915     5A    -11.210374     6A    -11.207623
       7A    -11.206807     8A     -1.206868     9A     -1.060061
      10A     -1.026854    11A     -0.928664    12A     -0.869244
      13A     -0.811246    14A     -0.793894    15A     -0.670400
      16A     -0.627247    17A     -0.616416    18A     -0.612435
      19A     -0.574919    20A     -0.563011    21A     -0.530833
      22A     -0.526094    23A     -0.516783    24A     -0.485320
      25A     -0.483815    26A     -0.474507    27A     -0.465661
      28A     -0.452524    29A     -0.359740

  @DF-RHF Final Energy:  -290.48979857773628

   => Energetics <=

    Nuclear Repulsion Energy =            313.6014277065822284
    One-Electron Energy =               -1013.1953361296982621
    Two-Electron Energy =                 409.1041098453797531
    DFT Exchange-Correlation Energy =       0.0000000000000000
    Empirical Dispersion Energy =           0.0000000000000000
    PCM Polarization Energy =               0.0000000000000000
    EFP Energy =                            0.0000000000000000
    Total Energy =                       -290.4897985777363374
    Molecular point group: c1
  Basis Set: CC-PVTZ
  Basis Set:

  -Total Gradient:
     Atom            X                  Y                   Z
    ------   -----------------  -----------------  -----------------
       1        0.000003806848     0.000002615743     0.000001523074
       2       -0.000013159767    -0.000003468257     0.000017288431
       3       -0.000028558136    -0.000002180149    -0.000014215221
       4       -0.000006007863     0.000012953230     0.000005542617
       5       -0.000005720991    -0.000000778421    -0.000009078134
       6        0.000925180381     0.001138582125    -0.002004777601
       7       -0.000001864408     0.000000397698     0.000004206064
       8       -0.000006587506    -0.000023152845    -0.000010203069
       9       -0.000171954673    -0.000000957793     0.002137161481
      10       -0.000686340554    -0.000986804324     0.001181959104
      11       -0.000004825313    -0.000006005834     0.000000950559
      12       -0.000028960395    -0.000160716496    -0.001295148033
      13       -0.000006724533    -0.000013379622    -0.000009706760
      14        0.000007511733     0.000010746893    -0.000000163232
      15        0.000019433180     0.000021064127     0.000008055964
      16        0.000012636646     0.000014650231    -0.000007212615
      17       -0.000005502893     0.000003570462    -0.000004958202
      18       -0.000002436396     0.000000572266     0.000004772812
      19        0.000003823351    -0.000005304131    -0.000004769965
      20       -0.000001917142    -0.000001939087     0.000001166463
      21       -0.000003534132    -0.000003689478    -0.000000856765
      22        0.000001702558     0.000003223660    -0.000001536972

  **** Optimization is complete! (in 4 steps) ****
    Final optimized geometry and variables:
    Molecular point group: c1

    Geometry (in Angstrom), charge = 0, multiplicity = 1:

    H            4.598436814964     0.322440078409    -0.378921427420
    C            3.747379848134    -0.309729609771    -0.154761252701
    C            2.444919760933     0.480249720316    -0.218592711569
    H            3.745924816899    -1.125855903972    -0.869764440980
    H            3.903497600394    -0.735546374581     0.830840208814
    C            1.221811482246    -0.370704425049     0.087634598561
    H            2.322603385040     0.921676360363    -1.201221168452
    H            2.488955323226     1.306458139607     0.486788710358
    N            0.001207836949     0.403848746403     0.020882531881
    H            1.146182916212    -1.178180054597    -0.633898350689
    H            1.350634380870    -0.852632211751     1.061631807141
    C           -1.214416826231    -0.376958301845     0.093600181567
    H            0.001833944790     1.104749228183     0.731695753250
    C           -2.449408654865     0.510204423838     0.040208635501
    H           -1.226570056490    -1.058806957662    -0.751094364956
    H           -1.255531653960    -0.998770046820     0.993147688123
    C           -3.750599414130    -0.283377129742     0.080965266288
    H           -2.406635479319     1.110068149302    -0.862101665518
    H           -2.426089260566     1.205853189512     0.875717357222
    H           -3.819217670982    -0.966175143090    -0.759333350189
    H           -4.610223127799     0.375097818775     0.041001691642
    H           -3.826847633478    -0.870447682296     0.990095662099

  Mulliken Charges: (a.u.)
   Center  Symbol    Alpha    Beta     Spin     Total
       1     H     0.44775  0.44775  0.00000  0.10449
       2     C     3.15394  3.15394  0.00000 -0.30788
       3     C     3.07760  3.07760  0.00000 -0.15520
       4     H     0.45515  0.45515  0.00000  0.08970
       5     H     0.45639  0.45639  0.00000  0.08722
       6     C     3.02645  3.02645  0.00000 -0.05289
       7     H     0.45011  0.45011  0.00000  0.09979
       8     H     0.45917  0.45917  0.00000  0.08167
       9     N     3.63987  3.63987  0.00000 -0.27973
      10     H     0.45843  0.45843  0.00000  0.08314
      11     H     0.47220  0.47220  0.00000  0.05560
      12     C     3.02206  3.02206  0.00000 -0.04411
      13     H     0.44428  0.44428  0.00000  0.11145
      14     C     3.08078  3.08078  0.00000 -0.16155
      15     H     0.45922  0.45922  0.00000  0.08157
      16     H     0.47573  0.47573  0.00000  0.04854
      17     C     3.15360  3.15360  0.00000 -0.30719
      18     H     0.44919  0.44919  0.00000  0.10162
      19     H     0.45957  0.45957  0.00000  0.08086
      20     H     0.45478  0.45478  0.00000  0.09045
      21     H     0.44769  0.44769  0.00000  0.10463
      22     H     0.45608  0.45608  0.00000  0.08783

   Total alpha = 29.00000, Total beta = 29.00000, Total charge =  0.00000

*** Psi4 exiting successfully. Buy a developer a beer!
