  ==> Input File <==

--------------------------------------------------------------------------
set {
	reference rhf
	basis cc-pvtz
}

set_num_threads( 4 )
memory 2 gb

molecule MOL {
0 1

H	 -2.123894	 -0.667238	 -0.609809
O	 -2.041679	 -0.058866	 0.103463
C	 -0.959304	 0.780994	 -0.094939
C	 0.354905	 0.037902	 -0.006215
H	 -0.985899	 1.279578	 -1.057596
H	 -0.969809	 1.529522	 0.682889
F	 1.295134	 0.800920	 0.522523
F	 0.228156	 -1.025659	 0.759533
F	 0.786743	 -0.360166	 -1.178832

	symmetry c1
}
set optking {
	frozen_dihedral = ("
		7 4 3 5
	")
}

ee = optimize('scf')
oeprop('DIPOLE', 'QUADRUPOLE', 'MULLIKEN_CHARGES')
f=open( 'psi4out.xyz', 'w' )
f.write( "9  " )
f.write( str(ee) + "\n" )
f.write( MOL.save_string_xyz() )
f.close()
--------------------------------------------------------------------------

    Molecular point group: c1
  Charge       = 0
  Multiplicity = 1
  Basis Set: CC-PVTZ
  Basis Set:
  @DF-RHF Final Energy:  -450.84170660288635
    Total Energy =                       -450.8417066028863474
    Molecular point group: c1
  Basis Set: CC-PVTZ
  Basis Set:
  Basis Set: CC-PVTZ
  Basis Set:
  @DF-RHF Final Energy:  -450.84220407761393
    Total Energy =                       -450.8422040776139852
  Basis Set: CC-PVTZ
  Basis Set:
  Basis Set: CC-PVTZ
  Basis Set:
  @DF-RHF Final Energy:  -450.84243151297272
    Total Energy =                       -450.8424315129727233
  Basis Set: CC-PVTZ
  Basis Set:
  Basis Set: CC-PVTZ
  Basis Set:
  @DF-RHF Final Energy:  -450.84244733236187
    Total Energy =                       -450.8424473323621555
  Basis Set: CC-PVTZ
  Basis Set:
  Basis Set: CC-PVTZ
  Basis Set:
  @DF-RHF Final Energy:  -450.84244960180081
    Total Energy =                       -450.8424496018009791
  Basis Set: CC-PVTZ
  Basis Set:
  Charge       = 0
  Multiplicity = 1
  Basis Set: CC-PVTZ
  Basis Set:

    Orbital Energies (a.u.)
    -----------------------

    Doubly Occupied:

       1A    -26.338231     2A    -26.337066     3A    -26.333737
       4A    -20.582569     5A    -11.493502     6A    -11.310353
       7A     -1.746590     8A     -1.643273     9A     -1.640737
      10A     -1.405402    11A     -1.046577    12A     -0.929107
      13A     -0.836734    14A     -0.833401    15A     -0.809139
      16A     -0.733407    17A     -0.718793    18A     -0.702914
      19A     -0.670198    20A     -0.663904    21A     -0.647113
      22A     -0.631718    23A     -0.613607    24A     -0.532672
      25A     -0.483932

  @DF-RHF Final Energy:  -450.84244983312993

   => Energetics <=

    Nuclear Repulsion Energy =            276.9099202381482314
    One-Electron Energy =               -1176.1353910290622480
    Two-Electron Energy =                 448.3830209577841970
    DFT Exchange-Correlation Energy =       0.0000000000000000
    Empirical Dispersion Energy =           0.0000000000000000
    PCM Polarization Energy =               0.0000000000000000
    EFP Energy =                            0.0000000000000000
    Total Energy =                       -450.8424498331297627
    Molecular point group: c1
  Basis Set: CC-PVTZ
  Basis Set:

  -Total Gradient:
     Atom            X                  Y                   Z
    ------   -----------------  -----------------  -----------------
       1        0.000009527609    -0.000012529033     0.000000137251
       2       -0.000022382512     0.000005301673    -0.000001182815
       3        0.002604117469     0.005047395572     0.003891940121
       4        0.000994995631     0.000972141137    -0.005977221231
       5       -0.002410496420    -0.004543515624    -0.002137369457
       6       -0.000007317999    -0.000003387886     0.000010536914
       7       -0.001144431328    -0.001457367422     0.004307137726
       8       -0.000022233139     0.000033115635    -0.000022358973
       9       -0.000001779315    -0.000041154052    -0.000071619538

  **** Optimization is complete! (in 6 steps) ****
    Final optimized geometry and variables:
    Molecular point group: c1

    Geometry (in Angstrom), charge = 0, multiplicity = 1:

    H           -2.171453362516    -0.629250024471    -0.659417885054
    O           -2.064406380264    -0.051266541628     0.075081431317
    C           -0.969412454263     0.780734462413    -0.102047069701
    C            0.358645370607     0.034193716699    -0.008060802478
    H           -1.000133063356     1.257434067301    -1.074610120455
    H           -0.993903080383     1.525226848332     0.676865958849
    F            1.293063995603     0.813591846403     0.496631306747
    F            0.279388489004    -1.025948253743     0.759641421418
    F            0.772338962667    -0.373450487186    -1.193856548115

  Mulliken Charges: (a.u.)
   Center  Symbol    Alpha    Beta     Spin     Total
       1     H     0.38958  0.38958  0.00000  0.22083
       2     O     4.18696  4.18696  0.00000 -0.37392
       3     C     2.99871  2.99871  0.00000  0.00259
       4     C     2.68502  2.68502  0.00000  0.62996
       5     H     0.46099  0.46099  0.00000  0.07802
       6     H     0.44634  0.44634  0.00000  0.10732
       7     F     4.61190  4.61190  0.00000 -0.22381
       8     F     4.60593  4.60593  0.00000 -0.21186
       9     F     4.61457  4.61457  0.00000 -0.22914

   Total alpha = 25.00000, Total beta = 25.00000, Total charge = -0.00000
