                              Psi4 1.0.54 Driver

  ==> Input File <==

--------------------------------------------------------------------------
set {
	reference rhf
	basis cc-pvtz
}

set_num_threads( 4 )
memory 2 gb

molecule MOL {
0 1

O	 -2.081319	 -0.951530	 -0.502732
N	 -1.613558	 0.006676	 0.014756
C	 -0.329345	 -0.171618	 0.743966
O	 -2.068523	 1.100482	 -0.024385
C	 0.835904	 0.041968	 -0.213982
H	 -0.346048	 -1.174374	 1.137184
H	 -0.333613	 0.555559	 1.538590
C	 2.177039	 -0.130175	 0.494460
H	 0.754456	 -0.665923	 -1.030569
H	 0.765464	 1.037260	 -0.637266
C	 2.806785	 -1.492284	 0.225093
H	 2.039608	 -0.000556	 1.563922
H	 2.857906	 0.652637	 0.173473
H	 2.162697	 -2.294952	 0.566522
H	 2.984961	 -1.637765	 -0.834531
H	 3.756255	 -1.587921	 0.737461

	symmetry c1
}
set optking {
	frozen_dihedral = ("
		11 8 5 9
	")
}

ee,wfn = optimize('scf', return_wfn=True)
oeprop( wfn, 'DIPOLE', 'QUADRUPOLE', 'MULLIKEN_CHARGES')
f=open( 'psi4out.xyz', 'w' )
f.write( "16  " )
f.write( str(ee) + "\n" )
f.write( MOL.save_string_xyz() )
f.close()
--------------------------------------------------------------------------

    Molecular point group: c1
  Charge       = 0
  Multiplicity = 1
  Basis Set: CC-PVTZ
  Basis Set:
  @DF-RHF Final Energy:  -360.90482522652434
    Total Energy =                       -360.9048252265242240
    Molecular point group: c1
  Basis Set: CC-PVTZ
  Basis Set:
  Basis Set: CC-PVTZ
  Basis Set:
  @DF-RHF Final Energy:  -360.90518294998213
    Total Energy =                       -360.9051829499826454
  Basis Set: CC-PVTZ
  Basis Set:
  Basis Set: CC-PVTZ
  Basis Set:
  @DF-RHF Final Energy:  -360.90502345591335
    Total Energy =                       -360.9050234559135220
  Basis Set: CC-PVTZ
  Basis Set:
  Basis Set: CC-PVTZ
  Basis Set:
  @DF-RHF Final Energy:  -360.90524412945700
    Total Energy =                       -360.9052441294571167
  Basis Set: CC-PVTZ
  Basis Set:
  Basis Set: CC-PVTZ
  Basis Set:
  @DF-RHF Final Energy:  -360.90524557454933
    Total Energy =                       -360.9052455745493262
  Basis Set: CC-PVTZ
  Basis Set:
  Basis Set: CC-PVTZ
  Basis Set:
  @DF-RHF Final Energy:  -360.90524890189408
    Total Energy =                       -360.9052489018940264
  Basis Set: CC-PVTZ
  Basis Set:
  Charge       = 0
  Multiplicity = 1
  Basis Set: CC-PVTZ
  Basis Set:

    Orbital Energies (a.u.)
    -----------------------

    Doubly Occupied:

       1A    -20.589646     2A    -20.589437     3A    -15.835845
       4A    -11.296336     5A    -11.250834     6A    -11.241999
       7A    -11.226803     8A     -1.634995     9A     -1.419318
      10A     -1.135887    11A     -1.058005    12A     -0.949231
      13A     -0.847767    14A     -0.826386    15A     -0.760235
      16A     -0.737424    17A     -0.727103    18A     -0.667874
      19A     -0.630181    20A     -0.602539    21A     -0.564430
      22A     -0.551613    23A     -0.513851    24A     -0.503663
      25A     -0.494426    26A     -0.485025    27A     -0.469346
      28A     -0.451901

  @DF-RHF Final Energy:  -360.90524901471042

   => Energetics <=

    Nuclear Repulsion Energy =            314.9399836945002562
    One-Electron Energy =               -1115.5662649657338079
    Two-Electron Energy =                 439.7210322565230172
    DFT Exchange-Correlation Energy =       0.0000000000000000
    Empirical Dispersion Energy =           0.0000000000000000
    PCM Polarization Energy =               0.0000000000000000
    EFP Energy =                            0.0000000000000000
    Total Energy =                       -360.9052490147105345
    Molecular point group: c1
  Basis Set: CC-PVTZ
  Basis Set:

  -Total Gradient:
     Atom            X                  Y                   Z
    ------   -----------------  -----------------  -----------------
       1       -0.000011923207     0.000026433280    -0.000001961386
       2        0.000017606376     0.000014656065     0.000007190628
       3        0.000007699070     0.000011206915    -0.000000264952
       4       -0.000014056431    -0.000037100878    -0.000009979717
       5        0.002078371335     0.003021071767    -0.003139528256
       6        0.000001034508    -0.000002417462     0.000000407998
       7        0.000002287692    -0.000002378393    -0.000004777084
       8       -0.001853512497    -0.001776379947     0.003045209608
       9       -0.001337707330    -0.002164333335     0.001958516850
      10        0.000001725703     0.000006888033    -0.000004068227
      11        0.001097884174     0.000901452722    -0.001847534501
      12       -0.000000890157    -0.000006319123    -0.000001879276
      13        0.000009123826     0.000003365950    -0.000000949103
      14        0.000003533869     0.000008463827    -0.000001121053
      15        0.000000565878     0.000001042971     0.000004339132
      16       -0.000001742807    -0.000005652386    -0.000003600662

  **** Optimization is complete! (in 7 steps) ****
    Final optimized geometry and variables:
    Molecular point group: c1

    Geometry (in Angstrom), charge = 0, multiplicity = 1:

    O           -1.962096060420    -0.782586429839    -0.591521650492
    N           -1.536839592882     0.196463070764    -0.075843973209
    C           -0.245290244545     0.077441454599     0.652727002049
    O           -2.039947399777     1.268898799631    -0.116666647399
    C            0.911519045157     0.344203078801    -0.306193873479
    H           -0.216788301652    -0.924906042561     1.046646327124
    H           -0.281978651169     0.804255029147     1.446607088770
    C            2.267143722868     0.139510833581     0.393083113517
    H            0.814511346708    -0.343047761666    -1.137506884579
    H            0.818354358717     1.351515260751    -0.688520621930
    C            2.898872723138    -1.218607675312     0.101747052426
    H            2.156340164180     0.273530732708     1.464619713218
    H            2.949448167820     0.915576501557     0.067315861425
    H            2.249678792326    -2.034793561123     0.401520206368
    H            3.099015818715    -1.329629092016    -0.957607917677
    H            3.836594846033    -1.332186000574     0.632222555390

  Mulliken Charges: (a.u.)
   Center  Symbol    Alpha    Beta     Spin     Total
       1     O     4.17385  4.17385  0.00000 -0.34770
       2     N     3.27604  3.27604  0.00000  0.44792
       3     C     3.04159  3.04159  0.00000 -0.08319
       4     O     4.17416  4.17416  0.00000 -0.34833
       5     C     3.10861  3.10861  0.00000 -0.21722
       6     H     0.43406  0.43406  0.00000  0.13188
       7     H     0.43368  0.43368  0.00000  0.13264
       8     C     3.09756  3.09756  0.00000 -0.19513
       9     H     0.43851  0.43851  0.00000  0.12298
      10     H     0.43057  0.43057  0.00000  0.13887
      11     C     3.14586  3.14586  0.00000 -0.29172
      12     H     0.45273  0.45273  0.00000  0.09454
      13     H     0.44273  0.44273  0.00000  0.11455
      14     H     0.45349  0.45349  0.00000  0.09301
      15     H     0.45088  0.45088  0.00000  0.09824
      16     H     0.44567  0.44567  0.00000  0.10866

   Total alpha = 28.00000, Total beta = 28.00000, Total charge =  0.00000

*** Psi4 exiting successfully. Buy a developer a beer!
