                              Psi4 1.0.54 Driver

  ==> Input File <==

--------------------------------------------------------------------------
set {
	reference rhf
	basis cc-pvtz
}

set_num_threads( 4 )
memory 2 gb

molecule MOL {
0 1

O	 -1.572931	 1.601020	 -1.664307
C	 -1.770528	 0.774807	 -0.833790
C	 -0.881910	 -0.448129	 -0.720509
C	 -2.899262	 0.906043	 0.160949
C	 0.376695	 -0.140025	 0.100361
H	 -0.598686	 -0.741411	 -1.723445
H	 -1.427034	 -1.268581	 -0.266016
C	 1.630207	 -0.772146	 -0.501001
H	 0.486632	 0.935267	 0.162725
H	 0.248225	 -0.501310	 1.117842
C	 2.907848	 -0.545876	 0.309149
H	 1.772784	 -0.391628	 -1.509394
H	 1.468529	 -1.842059	 -0.599744
C	 3.373802	 0.906639	 0.372125
H	 3.699140	 -1.146831	 -0.127906
H	 2.764321	 -0.923458	 1.318191
H	 3.519798	 1.311927	 -0.623875
H	 4.316899	 0.983758	 0.900700
H	 2.661122	 1.540651	 0.885346
H	 -3.639041	 0.136505	 -0.035357
H	 -3.359530	 1.878346	 0.075222
H	 -2.538504	 0.752858	 1.171878

	symmetry c1
}
set optking {
	frozen_dihedral = ("
		6 3 5 8
	")
}

ee,wfn = optimize('scf', return_wfn=True)
oeprop( wfn, 'DIPOLE', 'QUADRUPOLE', 'MULLIKEN_CHARGES')
f=open( 'psi4out.xyz', 'w' )
f.write( "22  " )
f.write( str(ee) + "\n" )
f.write( MOL.save_string_xyz() )
f.close()
--------------------------------------------------------------------------

    Molecular point group: c1
  Charge       = 0
  Multiplicity = 1
  Basis Set: CC-PVTZ
  Basis Set:
  @DF-RHF Final Energy:  -348.21908448931970
    Total Energy =                       -348.2190844893199255
    Molecular point group: c1
  Basis Set: CC-PVTZ
  Basis Set:
  Basis Set: CC-PVTZ
  Basis Set:
  @DF-RHF Final Energy:  -348.21936748270087
    Total Energy =                       -348.2193674827009886
  Basis Set: CC-PVTZ
  Basis Set:
  Basis Set: CC-PVTZ
  Basis Set:
  @DF-RHF Final Energy:  -348.21951682654617
    Total Energy =                       -348.2195168265463963
  Basis Set: CC-PVTZ
  Basis Set:
  Basis Set: CC-PVTZ
  Basis Set:
  @DF-RHF Final Energy:  -348.21966943849407
    Total Energy =                       -348.2196694384939519
  Basis Set: CC-PVTZ
  Basis Set:
  @DF-RHF Final Energy:  -348.21972852186923
    Total Energy =                       -348.2197285218689444
  @DF-RHF Final Energy:  -348.21974447917438
    Total Energy =                       -348.2197444791744374
  @DF-RHF Final Energy:  -348.21975580263944
    Total Energy =                       -348.2197558026394404
  @DF-RHF Final Energy:  -348.21978456652943
    Total Energy =                       -348.2197845665288014
  @DF-RHF Final Energy:  -348.21980728137527
    Total Energy =                       -348.2198072813753811
  @DF-RHF Final Energy:  -348.21976712989300
    Total Energy =                       -348.2197671298928867
  @DF-RHF Final Energy:  -348.21978135073971
    Total Energy =                       -348.2197813507395381
  Basis Set: CC-PVTZ
  Basis Set:
  @DF-RHF Final Energy:  -348.21983721256140
    Total Energy =                       -348.2198372125614014
  Basis Set: CC-PVTZ
  Basis Set:
  Basis Set: CC-PVTZ
  Basis Set:
  @DF-RHF Final Energy:  -348.21984561664823
    Total Energy =                       -348.2198456166485130
  Basis Set: CC-PVTZ
  Basis Set:
  Basis Set: CC-PVTZ
  Basis Set:
  @DF-RHF Final Energy:  -348.21984764228949
    Total Energy =                       -348.2198476422894942
  Basis Set: CC-PVTZ
  Basis Set:
  Charge       = 0
  Multiplicity = 1
  Basis Set: CC-PVTZ
  Basis Set:

    Orbital Energies (a.u.)
    -----------------------

    Doubly Occupied:

       1A    -20.536832     2A    -11.318950     3A    -11.230391
       4A    -11.227414     5A    -11.226204     6A    -11.221056
       7A    -11.219433     8A    -11.210684     9A     -1.396513
      10A     -1.097603    11A     -1.046201    12A     -0.998170
      13A     -0.939497    14A     -0.861875    15A     -0.788394
      16A     -0.735847    17A     -0.662481    18A     -0.641676
      19A     -0.632974    20A     -0.616793    21A     -0.604624
      22A     -0.589434    23A     -0.555761    24A     -0.540777
      25A     -0.537029    26A     -0.524719    27A     -0.499297
      28A     -0.491278    29A     -0.470469    30A     -0.465980
      31A     -0.462174    32A     -0.398914

  @DF-RHF Final Energy:  -348.21984770832063

   => Energetics <=

    Nuclear Repulsion Energy =            374.6516219309284565
    One-Electron Energy =               -1214.2440483705117913
    Two-Electron Energy =                 491.3725787312627062
    DFT Exchange-Correlation Energy =       0.0000000000000000
    Empirical Dispersion Energy =           0.0000000000000000
    PCM Polarization Energy =               0.0000000000000000
    EFP Energy =                            0.0000000000000000
    Total Energy =                       -348.2198477083205717
    Molecular point group: c1
  Basis Set: CC-PVTZ
  Basis Set:

  -Total Gradient:
     Atom            X                  Y                   Z
    ------   -----------------  -----------------  -----------------
       1       -0.000012521125     0.000026858862     0.000022517975
       2        0.000003213715    -0.000054849209     0.000005463609
       3       -0.000129236877     0.005188359147    -0.001558056798
       4       -0.000008389669     0.000037105065    -0.000027194741
       5       -0.000534006303    -0.003909994774     0.001952268379
       6        0.000257418279    -0.003505792962     0.000877948833
       7        0.000008398601    -0.000020637154     0.000003357298
       8        0.000444774802     0.002219299908    -0.001254078121
       9       -0.000003942702     0.000018466156     0.000002571073
      10       -0.000012424792     0.000013776664    -0.000014325448
      11       -0.000018406220    -0.000003025712     0.000003320981
      12       -0.000007415289     0.000009021655     0.000011110900
      13        0.000033681588    -0.000012418118    -0.000011080890
      14       -0.000002492856     0.000001147913    -0.000016460665
      15       -0.000005778579    -0.000015266458    -0.000003213159
      16       -0.000011823687     0.000002876818     0.000004120998
      17       -0.000003717638     0.000005841111    -0.000001930192
      18        0.000002777973    -0.000009064638    -0.000006478192
      19        0.000000543000     0.000004504387     0.000008198256
      20       -0.000000555306     0.000000967894    -0.000000708599
      21       -0.000014660584     0.000006203777     0.000017341248
      22        0.000014563668    -0.000003380334    -0.000014692744

  **** Optimization is complete! (in 15 steps) ****
    Final optimized geometry and variables:
    Molecular point group: c1

    Geometry (in Angstrom), charge = 0, multiplicity = 1:

    O           -1.963006962771     1.067784931242    -1.655100906743
    C           -1.921160331732     0.378748941048    -0.688285292744
    C           -0.923430095999    -0.751462224334    -0.564257335921
    C           -2.859305230126     0.597400764128     0.476523303428
    C            0.226774986507    -0.423750132124     0.414521842499
    H           -0.532315965598    -0.969556671385    -1.547886394096
    H           -1.441178254834    -1.643921943763    -0.225779828368
    C            1.572858689837    -0.951117515942    -0.080670375898
    H            0.296798477051     0.651437908362     0.538385320900
    H            0.009129427284    -0.831844638050     1.395706887434
    C            2.733514862876    -0.753798730980     0.895128883430
    H            1.809433830527    -0.472040453012    -1.026599654771
    H            1.476475281839    -2.012703509031    -0.292665887375
    C            3.109270805097     0.703242789491     1.154311366071
    H            3.601369246345    -1.271920863965     0.499475711394
    H            2.496296605615    -1.239105887604     1.838300252051
    H            3.338277051479     1.217435084747     0.226630316961
    H            3.984459451838     0.765519974019     1.790572666097
    H            2.312191322045     1.248134151372     1.645794805836
    H           -3.548594259316    -0.238437949847     0.540354164436
    H           -3.416010430613     1.511090709165     0.335844273045
    H           -2.313656199410     0.636351498509     1.412002827524

  Mulliken Charges: (a.u.)
   Center  Symbol    Alpha    Beta     Spin     Total
       1     O     4.17532  4.17532  0.00000 -0.35065
       2     C     2.85949  2.85949  0.00000  0.28102
       3     C     3.09624  3.09624  0.00000 -0.19248
       4     C     3.15601  3.15601  0.00000 -0.31203
       5     C     3.10778  3.10778  0.00000 -0.21556
       6     H     0.43941  0.43941  0.00000  0.12118
       7     H     0.44706  0.44706  0.00000  0.10588
       8     C     3.09455  3.09455  0.00000 -0.18911
       9     H     0.44670  0.44670  0.00000  0.10660
      10     H     0.44969  0.44969  0.00000  0.10063
      11     C     3.09196  3.09196  0.00000 -0.18391
      12     H     0.44787  0.44787  0.00000  0.10426
      13     H     0.44757  0.44757  0.00000  0.10486
      14     C     3.15223  3.15223  0.00000 -0.30447
      15     H     0.44720  0.44720  0.00000  0.10561
      16     H     0.45469  0.45469  0.00000  0.09062
      17     H     0.45245  0.45245  0.00000  0.09509
      18     H     0.44574  0.44574  0.00000  0.10852
      19     H     0.45447  0.45447  0.00000  0.09106
      20     H     0.44869  0.44869  0.00000  0.10262
      21     H     0.43541  0.43541  0.00000  0.12918
      22     H     0.44946  0.44946  0.00000  0.10107

   Total alpha = 32.00000, Total beta = 32.00000, Total charge = -0.00000

*** Psi4 exiting successfully. Buy a developer a beer!
