                              Psi4 1.0.54 Driver

  ==> Input File <==

--------------------------------------------------------------------------
set {
	reference rhf
	basis cc-pvtz
}

set_num_threads( 4 )
memory 2 gb

molecule MOL {
0 1

H	 -0.000105	 1.988529	 0.748933
O	 -0.000098	 1.879786	 -0.188206
C	 -0.000014	 0.545691	 -0.532416
C	 -1.286000	 -0.125171	 -0.046657
C	 1.286016	 -0.125031	 -0.046584
H	 0.000021	 0.481103	 -1.610604
F	 -1.028643	 -0.826862	 1.029566
F	 -2.217967	 0.743805	 0.253395
F	 -1.768910	 -0.947524	 -0.953249
F	 2.317750	 0.468717	 -0.594166
F	 1.336617	 -1.393765	 -0.365123
F	 1.414467	 -0.024806	 1.259108

	symmetry c1
}
set optking {
	frozen_dihedral = ("
		7 4 3 6
	")
}

ee,wfn = optimize('scf', return_wfn=True)
oeprop( wfn, 'DIPOLE', 'QUADRUPOLE', 'MULLIKEN_CHARGES')
f=open( 'psi4out.xyz', 'w' )
f.write( "12  " )
f.write( str(ee) + "\n" )
f.write( MOL.save_string_xyz() )
f.close()
--------------------------------------------------------------------------

    Molecular point group: c1
  Charge       = 0
  Multiplicity = 1
  Basis Set: CC-PVTZ
  Basis Set:
  @DF-RHF Final Energy:  -786.58284400563991
    Total Energy =                       -786.5828440056395721
    Molecular point group: c1
  Basis Set: CC-PVTZ
  Basis Set:
  Basis Set: CC-PVTZ
  Basis Set:
  @DF-RHF Final Energy:  -786.13310500585499
    Total Energy =                       -786.1331050058552137
  Basis Set: CC-PVTZ
  Basis Set:
  Basis Set: CC-PVTZ
  Basis Set:
  @DF-RHF Final Energy:  -786.32107836346972
    Total Energy =                       -786.3210783634697236
  Basis Set: CC-PVTZ
  Basis Set:
  Basis Set: CC-PVTZ
  Basis Set:
  @DF-RHF Final Energy:  -786.54534250221616
    Total Energy =                       -786.5453425022157035
  Basis Set: CC-PVTZ
  Basis Set:
  @DF-RHF Final Energy:  -786.57267754269560
    Total Energy =                       -786.5726775426957147
  @DF-RHF Final Energy:  -786.58058446314601
    Total Energy =                       -786.5805844631458967
  @DF-RHF Final Energy:  -786.58320049537724
    Total Energy =                       -786.5832004953769001
  @DF-RHF Final Energy:  -786.58474491597929
    Total Energy =                       -786.5847449159793996
  @DF-RHF Final Energy:  -786.58519833552418
    Total Energy =                       -786.5851983355242965
  Basis Set: CC-PVTZ
  Basis Set:
  @DF-RHF Final Energy:  -786.58523586157173
    Total Energy =                       -786.5852358615716184
  Basis Set: CC-PVTZ
  Basis Set:
  Basis Set: CC-PVTZ
  Basis Set:
  @DF-RHF Final Energy:  -786.58524193174685
    Total Energy =                       -786.5852419317466229
  Basis Set: CC-PVTZ
  Basis Set:
  Basis Set: CC-PVTZ
  Basis Set:
  @DF-RHF Final Energy:  -786.58524298425732
    Total Energy =                       -786.5852429842573201
  Basis Set: CC-PVTZ
  Basis Set:
  Charge       = 0
  Multiplicity = 1
  Basis Set: CC-PVTZ
  Basis Set:

    Orbital Energies (a.u.)
    -----------------------

    Doubly Occupied:

       1A    -26.357977     2A    -26.357540     3A    -26.356502
       4A    -26.355331     5A    -26.353431     6A    -26.353343
       7A    -20.610595     8A    -11.519921     9A    -11.518604
      10A    -11.351543    11A     -1.771481    12A     -1.765471
      13A     -1.665812    14A     -1.664580    15A     -1.661716
      16A     -1.659637    17A     -1.440433    18A     -1.102252
      19A     -1.000203    20A     -0.944150    21A     -0.871042
      22A     -0.867062    23A     -0.857663    24A     -0.852667
      25A     -0.840365    26A     -0.819747    27A     -0.741608
      28A     -0.737118    29A     -0.734120    30A     -0.728946
      31A     -0.694829    32A     -0.691331    33A     -0.690407
      34A     -0.682553    35A     -0.675464    36A     -0.667681
      37A     -0.663348    38A     -0.656412    39A     -0.623626
      40A     -0.551468    41A     -0.509842

  @DF-RHF Final Energy:  -786.58524313111377

   => Energetics <=

    Nuclear Repulsion Energy =            670.7884674445348310
    One-Electron Energy =               -2428.8117781539713178
    Two-Electron Energy =                 971.4380675783224888
    DFT Exchange-Correlation Energy =       0.0000000000000000
    Empirical Dispersion Energy =           0.0000000000000000
    PCM Polarization Energy =               0.0000000000000000
    EFP Energy =                            0.0000000000000000
    Total Energy =                       -786.5852431311138844
    Molecular point group: c1
  Basis Set: CC-PVTZ
  Basis Set:

  -Total Gradient:
     Atom            X                  Y                   Z
    ------   -----------------  -----------------  -----------------
       1       -0.000000185761    -0.000008974617    -0.000006310933
       2       -0.000017151899    -0.000045060665     0.000007074337
       3       -0.002465883446     0.003378847354    -0.001355838264
       4        0.000781548266     0.004170356462     0.001263381729
       5       -0.000073338464    -0.000020714114    -0.000024588505
       6        0.001996106860    -0.003836502294     0.000909304556
       7       -0.000292187153    -0.003700113452    -0.000858465349
       8       -0.000001670822     0.000047314664     0.000029242885
       9       -0.000006731672    -0.000034311084     0.000006278092
      10        0.000016146631    -0.000004122064     0.000008265304
      11        0.000006785156     0.000028021389    -0.000009423379
      12        0.000056562299     0.000025258429     0.000031079521

  **** Optimization is complete! (in 13 steps) ****
    Final optimized geometry and variables:
    Molecular point group: c1

    Geometry (in Angstrom), charge = 0, multiplicity = 1:

    H            0.468769350592     2.118925396979    -0.251157289921
    O            0.018615969124     1.682221510714    -0.955353279495
    C           -0.214362008363     0.359970880405    -0.663724652114
    C           -1.160174162789     0.157220531577     0.542283005031
    C            1.106732566847    -0.393701161467    -0.506880710866
    H           -0.700730058628    -0.096372877893    -1.512054207971
    F           -0.523212603101    -0.140732768306     1.652254118269
    F           -1.868943368601     1.232847253461     0.763562361468
    F           -1.988900975624    -0.832611169005     0.295139462017
    F            1.751974047802    -0.390896826859    -1.647578507099
    F            0.909468960336    -1.641798208560    -0.157934482846
    F            1.885399357354     0.171622832668     0.389280127116

  Mulliken Charges: (a.u.)
   Center  Symbol    Alpha    Beta     Spin     Total
       1     H     0.38383  0.38383  0.00000  0.23235
       2     O     4.18307  4.18307  0.00000 -0.36614
       3     C     3.01458  3.01458  0.00000 -0.02915
       4     C     2.67797  2.67797  0.00000  0.64406
       5     C     2.67988  2.67988  0.00000  0.64024
       6     H     0.42832  0.42832  0.00000  0.14336
       7     F     4.60561  4.60561  0.00000 -0.21121
       8     F     4.60035  4.60035  0.00000 -0.20071
       9     F     4.60750  4.60750  0.00000 -0.21501
      10     F     4.60234  4.60234  0.00000 -0.20469
      11     F     4.60542  4.60542  0.00000 -0.21084
      12     F     4.61112  4.61112  0.00000 -0.22225

   Total alpha = 41.00000, Total beta = 41.00000, Total charge = -0.00000

*** Psi4 exiting successfully. Buy a developer a beer!
