  ==> Input File <==

--------------------------------------------------------------------------
set {
	reference rhf
	basis 6-31G*
}

set_num_threads( 4 )
memory 2 gb

molecule MOL {
0 1

H	 -0.428627	 0.164271	 3.150165
O	 -0.306307	 0.028079	 2.221629
C	 -0.142393	 1.267351	 1.579365
C	 0.031547	 1.023609	 0.088541
H	 0.736666	 1.781844	 1.963347
H	 -1.000013	 1.909961	 1.765483
C	 -1.134819	 0.293262	 -0.585751
H	 0.939790	 0.444332	 -0.052248
H	 0.192886	 1.985870	 -0.394410
C	 -1.917817	 -0.639439	 0.339494
H	 -0.758119	 -0.268455	 -1.433105
H	 -1.813832	 1.041889	 -0.986690
H	 -2.777680	 -1.057197	 -0.174994
H	 -1.310268	 -1.471279	 0.680599
H	 -2.283753	 -0.111424	 1.216626

	symmetry c1
}
set optking {
	frozen_dihedral = ("
		8 4 7 11
	")
}

ee = optimize('scf')
oeprop('DIPOLE', 'QUADRUPOLE', 'MULLIKEN_CHARGES')
f=open( 'psi4out.xyz', 'w' )
f.write( "15  " )
f.write( str(ee) + "\n" )
f.write( MOL.save_string_xyz() )
f.close()
--------------------------------------------------------------------------

    Molecular point group: c1
  Charge       = 0
  Multiplicity = 1
  Basis Set: 6-31G*
  Basis Set:
  @DF-RHF Final Energy:  -232.12989031720019
    Total Energy =                       -232.1298903172003065
    Molecular point group: c1
  Basis Set: 6-31G*
  Basis Set:
  Basis Set: 6-31G*
  Basis Set:
  @DF-RHF Final Energy:  -232.13631148720810
    Total Energy =                       -232.1363114872081042
  Basis Set: 6-31G*
  Basis Set:
  Basis Set: 6-31G*
  Basis Set:
  @DF-RHF Final Energy:  -232.13797852543763
    Total Energy =                       -232.1379785254379726
  Basis Set: 6-31G*
  Basis Set:
  Basis Set: 6-31G*
  Basis Set:
  @DF-RHF Final Energy:  -232.13838300304189
    Total Energy =                       -232.1383830030418380
  Basis Set: 6-31G*
  Basis Set:
  Basis Set: 6-31G*
  Basis Set:
  @DF-RHF Final Energy:  -232.13842615418909
    Total Energy =                       -232.1384261541891760
  Basis Set: 6-31G*
  Basis Set:
  Basis Set: 6-31G*
  Basis Set:
  @DF-RHF Final Energy:  -232.13845588715543
    Total Energy =                       -232.1384558871554304
  Basis Set: 6-31G*
  Basis Set:
  Basis Set: 6-31G*
  Basis Set:
  @DF-RHF Final Energy:  -232.13846739768039
    Total Energy =                       -232.1384673976805288
  Basis Set: 6-31G*
  Basis Set:
  Charge       = 0
  Multiplicity = 1
  Basis Set: 6-31G*
  Basis Set:

    Orbital Energies (a.u.)
    -----------------------

    Doubly Occupied:

       1A    -20.552944     2A    -11.269019     3A    -11.213176
       4A    -11.212253     5A    -11.196882     6A     -1.359901
       7A     -1.060491     8A     -0.969545     9A     -0.866719
      10A     -0.773297    11A     -0.703284    12A     -0.648684
      13A     -0.608147    14A     -0.567338    15A     -0.557311
      16A     -0.535597    17A     -0.506185    18A     -0.475128
      19A     -0.461752    20A     -0.452333    21A     -0.426671

  @DF-RHF Final Energy:  -232.13846777119764

   => Energetics <=

    Nuclear Repulsion Energy =            192.9919227517549132
    One-Electron Energy =                -697.4274662269839382
    Two-Electron Energy =                 272.2970757040312719
    DFT Exchange-Correlation Energy =       0.0000000000000000
    Empirical Dispersion Energy =           0.0000000000000000
    PCM Polarization Energy =               0.0000000000000000
    EFP Energy =                            0.0000000000000000
    Total Energy =                       -232.1384677711977247
    Molecular point group: c1
  Basis Set: 6-31G*
  Basis Set:

  -Total Gradient:
     Atom            X                  Y                   Z
    ------   -----------------  -----------------  -----------------
       1       -0.000002975784    -0.000003568302    -0.000006510777
       2       -0.000003774052     0.000027319199     0.000011717026
       3        0.000034111496    -0.000014455993     0.000020584271
       4       -0.001453798802    -0.004263443585     0.006138449534
       5        0.000003661660     0.000003265239     0.000029209857
       6        0.000013935605    -0.000006233486    -0.000007592455
       7       -0.000264639365     0.005860784530    -0.004702915188
       8        0.001205393409     0.002716186115    -0.004425510634
       9        0.000015785955    -0.000005045507    -0.000001318934
      10        0.000005738356    -0.000010406646    -0.000046334125
      11        0.000461330843    -0.004307574547     0.002977354312
      12       -0.000005937127     0.000000504195     0.000006773184
      13       -0.000018136630    -0.000022911482    -0.000001456576
      14        0.000006526594     0.000004301243    -0.000000675546
      15        0.000002777843     0.000021279028     0.000008226045

  **** Optimization is complete! (in 8 steps) ****
    Final optimized geometry and variables:
    Molecular point group: c1

    Geometry (in Angstrom), charge = 0, multiplicity = 1:

    H            0.486841851120    -0.090431307852     2.468680258591
    O            0.627261168051    -0.286759437261     1.553310825932
    C            0.531083856160     0.894035840430     0.797702906570
    C            0.689673031884     0.566770947878    -0.678268717924
    H            1.315519356236     1.588380583870     1.092693704207
    H           -0.422933226453     1.389120763666     0.973965507920
    C           -0.516866939485    -0.071279850746    -1.397750346814
    H            1.575363628546    -0.047355237904    -0.809733208875
    H            0.919745403344     1.500558141756    -1.188599554590
    C           -1.358571429630    -1.051147006167    -0.573300132968
    H           -0.137695541118    -0.623910614809    -2.252890275398
    H           -1.164542771570     0.712222367670    -1.781849179618
    H           -2.150245909665    -1.465436990415    -1.191295891509
    H           -0.757509470584    -1.869654828169    -0.196388382072
    H           -1.824453011543    -0.571444385408     0.280124970412

  Mulliken Charges: (a.u.)
   Center  Symbol    Alpha    Beta     Spin     Total
       1     H     0.28117  0.28117  0.00000  0.43766
       2     O     4.36808  4.36808  0.00000 -0.73616
       3     C     3.00105  3.00105  0.00000 -0.00211
       4     C     3.15977  3.15977  0.00000 -0.31953
       5     H     0.42851  0.42851  0.00000  0.14298
       6     H     0.43170  0.43170  0.00000  0.13660
       7     C     3.15527  3.15527  0.00000 -0.31054
       8     H     0.41203  0.41203  0.00000  0.17594
       9     H     0.42279  0.42279  0.00000  0.15442
      10     C     3.23350  3.23350  0.00000 -0.46701
      11     H     0.42056  0.42056  0.00000  0.15887
      12     H     0.42422  0.42422  0.00000  0.15155
      13     H     0.42615  0.42615  0.00000  0.14771
      14     H     0.41159  0.41159  0.00000  0.17681
      15     H     0.42360  0.42360  0.00000  0.15281

   Total alpha = 21.00000, Total beta = 21.00000, Total charge =  0.00000
