                              Psi4 1.0.54 Driver

  ==> Input File <==

--------------------------------------------------------------------------
set {
	reference rhf
	basis cc-pvtz
}

set_num_threads( 4 )
memory 2 gb

molecule MOL {
0 1

H	 -3.703224	 1.498841	 -0.686813
O	 -2.998091	 0.922127	 -0.915689
C	 -2.302264	 0.528872	 0.237390
C	 -1.175688	 -0.398187	 -0.171891
H	 -1.898413	 1.397588	 0.753151
H	 -2.969269	 0.018322	 0.928963
C	 0.196029	 0.106276	 0.266738
H	 -1.201873	 -0.515469	 -1.250677
H	 -1.365975	 -1.378728	 0.252664
C	 1.330220	 -0.826136	 -0.155230
H	 0.359542	 1.097229	 -0.145561
H	 0.212134	 0.218135	 1.348778
C	 2.719700	 -0.407669	 0.328325
H	 1.339388	 -0.911200	 -1.239363
H	 1.119001	 -1.821953	 0.224128
C	 3.241564	 0.893452	 -0.276737
H	 3.418299	 -1.204729	 0.093035
H	 2.711776	 -0.323368	 1.411960
H	 3.254204	 0.841071	 -1.360784
H	 2.634460	 1.745075	 0.005842
H	 4.254264	 1.092401	 0.054971

	symmetry c1
}
set optking {
	frozen_dihedral = ("
		2 3 4 8
	")
}

ee,wfn = optimize('scf', return_wfn=True)
oeprop( wfn, 'DIPOLE', 'QUADRUPOLE', 'MULLIKEN_CHARGES')
f=open( 'psi4out.xyz', 'w' )
f.write( "21  " )
f.write( str(ee) + "\n" )
f.write( MOL.save_string_xyz() )
f.close()
--------------------------------------------------------------------------

    Molecular point group: c1
  Charge       = 0
  Multiplicity = 1
  Basis Set: CC-PVTZ
  Basis Set:
  @DF-RHF Final Energy:  -310.32691635225660
    Total Energy =                       -310.3269163522564895
    Molecular point group: c1
  Basis Set: CC-PVTZ
  Basis Set:
  Basis Set: CC-PVTZ
  Basis Set:
  @DF-RHF Final Energy:  -310.32725777296901
    Total Energy =                       -310.3272577729687782
  Basis Set: CC-PVTZ
  Basis Set:
  Basis Set: CC-PVTZ
  Basis Set:
  @DF-RHF Final Energy:  -310.32736890033163
    Total Energy =                       -310.3273689003316917
  Basis Set: CC-PVTZ
  Basis Set:
  Charge       = 0
  Multiplicity = 1
  Basis Set: CC-PVTZ
  Basis Set:

    Orbital Energies (a.u.)
    -----------------------

    Doubly Occupied:

       1A    -20.545159     2A    -11.265316     3A    -11.212110
       4A    -11.211281     5A    -11.209776     6A    -11.208894
       7A    -11.204655     8A     -1.362180     9A     -1.085345
      10A     -1.031562    11A     -0.953767    12A     -0.876482
      13A     -0.807560    14A     -0.778037    15A     -0.703582
      16A     -0.647176    17A     -0.624237    18A     -0.606039
      19A     -0.591285    20A     -0.565001    21A     -0.541300
      22A     -0.520439    23A     -0.507419    24A     -0.493129
      25A     -0.477645    26A     -0.459369    27A     -0.456073
      28A     -0.446443    29A     -0.428183

  @DF-RHF Final Energy:  -310.32736963597984

   => Energetics <=

    Nuclear Repulsion Energy =            313.7091066863621336
    One-Electron Energy =               -1042.4340699878785017
    Two-Electron Energy =                 418.3975936655366468
    DFT Exchange-Correlation Energy =       0.0000000000000000
    Empirical Dispersion Energy =           0.0000000000000000
    PCM Polarization Energy =               0.0000000000000000
    EFP Energy =                            0.0000000000000000
    Total Energy =                       -310.3273696359797214
    Molecular point group: c1
  Basis Set: CC-PVTZ
  Basis Set:

  -Total Gradient:
     Atom            X                  Y                   Z
    ------   -----------------  -----------------  -----------------
       1       -0.000026025085     0.000023508447    -0.000016675942
       2        0.000179203849     0.000200252579     0.000070549763
       3       -0.000284389714    -0.000302279346    -0.000107719158
       4        0.000359345435     0.000381351909    -0.000032601557
       5       -0.000004138702     0.000015439839    -0.000001501033
       6       -0.000010463453     0.000006364692     0.000000247829
       7        0.000008652033    -0.000052068179     0.000077264182
       8       -0.000236448580    -0.000297269290     0.000026312016
       9        0.000005379617     0.000007035981     0.000012199794
      10       -0.000006574730     0.000033002591    -0.000036926465
      11       -0.000029286056    -0.000000087987     0.000024487197
      12        0.000005223098    -0.000018824136     0.000016158056
      13        0.000001239996     0.000008857542    -0.000026651851
      14        0.000009690861    -0.000021773390    -0.000012626350
      15        0.000002755738     0.000019062140     0.000003881712
      16        0.000014643048     0.000000287936     0.000005295004
      17        0.000017410061     0.000001330608     0.000007444086
      18       -0.000010921592     0.000003373356    -0.000008616226
      19       -0.000003362723     0.000000502877     0.000000156002
      20        0.000005091731    -0.000007402239     0.000003395671
      21        0.000002975175    -0.000000665928    -0.000004072727

  **** Optimization is complete! (in 4 steps) ****
    Final optimized geometry and variables:
    Molecular point group: c1

    Geometry (in Angstrom), charge = 0, multiplicity = 1:

    H           -3.804461467338     1.372440102357    -0.529853573274
    O           -3.098353112770     0.800356007376    -0.768410039896
    C           -2.395357857326     0.400468403618     0.381641871099
    C           -1.256843915755    -0.537870473381    -0.031411225425
    H           -1.994239571757     1.272561637454     0.891396063727
    H           -3.067605113928    -0.097989411877     1.074042164321
    C            0.127411711605    -0.046616433593     0.385705541130
    H           -1.298981262951    -0.642725969137    -1.108718238053
    H           -1.426031224078    -1.527179287206     0.380885221690
    C            1.246712344447    -0.987787230470    -0.052984121068
    H            0.285142672321     0.942713823175    -0.031671261694
    H            0.160999594836     0.067366347439     1.467486874489
    C            2.647931965266    -0.577713772781     0.403577888532
    H            1.235065120038    -1.076449654821    -1.136857817532
    H            1.036090199802    -1.981393011460     0.333377793020
    C            3.168379275818     0.716191080637    -0.217767957285
    H            3.336523931403    -1.381092834989     0.160287282631
    H            2.659885257188    -0.487558984861     1.486730788242
    H            3.160799880388     0.657889184842    -1.301471382829
    H            2.572419191813     1.573536029204     0.070794439303
    H            4.188364697551     0.909315930799     0.094596335559

  Mulliken Charges: (a.u.)
   Center  Symbol    Alpha    Beta     Spin     Total
       1     H     0.39568  0.39568  0.00000  0.20864
       2     O     4.19709  4.19709  0.00000 -0.39419
       3     C     2.96610  2.96610  0.00000  0.06780
       4     C     3.09061  3.09061  0.00000 -0.18121
       5     H     0.47528  0.47528  0.00000  0.04944
       6     H     0.47203  0.47203  0.00000  0.05594
       7     C     3.10080  3.10080  0.00000 -0.20161
       8     H     0.44465  0.44465  0.00000  0.11069
       9     H     0.45267  0.45267  0.00000  0.09466
      10     C     3.09613  3.09613  0.00000 -0.19226
      11     H     0.44891  0.44891  0.00000  0.10219
      12     H     0.45587  0.45587  0.00000  0.08826
      13     C     3.08999  3.08999  0.00000 -0.17998
      14     H     0.45257  0.45257  0.00000  0.09487
      15     H     0.45007  0.45007  0.00000  0.09986
      16     C     3.15185  3.15185  0.00000 -0.30371
      17     H     0.44876  0.44876  0.00000  0.10249
      18     H     0.45549  0.45549  0.00000  0.08902
      19     H     0.45440  0.45440  0.00000  0.09119
      20     H     0.45405  0.45405  0.00000  0.09190
      21     H     0.44700  0.44700  0.00000  0.10601

   Total alpha = 29.00000, Total beta = 29.00000, Total charge = -0.00000

*** Psi4 exiting successfully. Buy a developer a beer!
