  ==> Input File <==

--------------------------------------------------------------------------
set {
	reference rhf
	basis 6-31G*
}

set_num_threads( 4 )
memory 2 gb

molecule MOL {
0 1

H	 2.332609	 0.878551	 -1.051851
C	 2.357710	 0.000000	 -0.417167
C	 1.175432	 0.000000	 0.532082
H	 3.291263	 0.000000	 0.136880
H	 2.332609	 -0.878551	 -1.051851
O	 0.000000	 0.000000	 -0.221444
H	 1.206604	 0.877321	 1.177902
H	 1.206604	 -0.877321	 1.177902
C	 -1.175432	 0.000000	 0.532082
C	 -1.834764	 -1.358791	 0.398581
H	 -1.845961	 0.783946	 0.180562
H	 -0.950665	 0.212305	 1.577143
H	 -2.068448	 -1.564930	 -0.639785
H	 -2.754710	 -1.394146	 0.973853
H	 -1.171897	 -2.137373	 0.758754

	symmetry c1
}
set optking {
	frozen_dihedral = ("
		11 9 6 3
	")
}

ee = optimize('scf')
oeprop('DIPOLE', 'QUADRUPOLE', 'MULLIKEN_CHARGES')
f=open( 'psi4out.xyz', 'w' )
f.write( "15  " )
f.write( str(ee) + "\n" )
f.write( MOL.save_string_xyz() )
f.close()
--------------------------------------------------------------------------

    Molecular point group: c1
  Charge       = 0
  Multiplicity = 1
  Basis Set: 6-31G*
  Basis Set:
  @DF-RHF Final Energy:  -232.14037155957882
    Total Energy =                       -232.1403715595789663
    Molecular point group: c1
  Basis Set: 6-31G*
  Basis Set:
  Basis Set: 6-31G*
  Basis Set:
  @DF-RHF Final Energy:  -232.14095547996203
    Total Energy =                       -232.1409554799618604
  Basis Set: 6-31G*
  Basis Set:
  Basis Set: 6-31G*
  Basis Set:
  @DF-RHF Final Energy:  -232.14108480542771
    Total Energy =                       -232.1410848054276812
  Basis Set: 6-31G*
  Basis Set:
  Basis Set: 6-31G*
  Basis Set:
  @DF-RHF Final Energy:  -232.14108636833919
    Total Energy =                       -232.1410863683389607
  Basis Set: 6-31G*
  Basis Set:
  Charge       = 0
  Multiplicity = 1
  Basis Set: 6-31G*
  Basis Set:

    Orbital Energies (a.u.)
    -----------------------

    Doubly Occupied:

       1A    -20.548062     2A    -11.268938     3A    -11.267778
       4A    -11.209138     5A    -11.208478     6A     -1.372970
       7A     -1.041799     8A     -0.983905     9A     -0.854530
      10A     -0.820523    11A     -0.670292    12A     -0.656524
      13A     -0.633607    14A     -0.573322    15A     -0.552291
      16A     -0.539792    17A     -0.522733    18A     -0.501017
      19A     -0.486201    20A     -0.460922    21A     -0.404645

  @DF-RHF Final Energy:  -232.14108651319083

   => Energetics <=

    Nuclear Repulsion Energy =            191.7618385159437366
    One-Electron Energy =                -694.6509180727634885
    Two-Electron Energy =                 270.7479930436289806
    DFT Exchange-Correlation Energy =       0.0000000000000000
    Empirical Dispersion Energy =           0.0000000000000000
    PCM Polarization Energy =               0.0000000000000000
    EFP Energy =                            0.0000000000000000
    Total Energy =                       -232.1410865131907713
    Molecular point group: c1
  Basis Set: 6-31G*
  Basis Set:

  -Total Gradient:
     Atom            X                  Y                   Z
    ------   -----------------  -----------------  -----------------
       1        0.000001641886     0.000000591832    -0.000001277576
       2       -0.000003631115     0.000004585569     0.000003009095
       3       -0.000012833131     0.000853894065     0.000032263987
       4        0.000001593505     0.000001489844    -0.000000600434
       5       -0.000003116325     0.000000738317     0.000003869507
       6        0.000097763390    -0.001087301329     0.000124152917
       7        0.000002007249     0.000000027901    -0.000002468192
       8        0.000002672722     0.000001451890     0.000002175112
       9       -0.000495919934    -0.000437075435    -0.000877036354
      10       -0.000007483758    -0.000007712677     0.000002309564
      11        0.000412672929     0.000662735471     0.000703236156
      12        0.000004657300     0.000001181364     0.000008603362
      13        0.000004292228     0.000003920997     0.000002726089
      14       -0.000002571848    -0.000002729311     0.000001569746
      15       -0.000001745097     0.000004201504    -0.000002532980

  **** Optimization is complete! (in 5 steps) ****
    Final optimized geometry and variables:
    Molecular point group: c1

    Geometry (in Angstrom), charge = 0, multiplicity = 1:

    H            2.221907291084     1.153619900244    -1.238468465928
    C            2.257078217945     0.279939146825    -0.597531425938
    C            1.089752572952     0.288794703586     0.369652952136
    H            3.199287158073     0.283804784295    -0.058018911136
    H            2.221317525148    -0.603352320070    -1.225123520700
    O           -0.096252322887     0.292849640416    -0.370329722412
    H            1.135696450566     1.169001931580     1.009341320486
    H            1.131331838035    -0.585479082490     1.018322865225
    C           -1.286807713820     0.253310124315     0.370353345341
    C           -1.970759265184    -1.096509214349     0.225911297896
    H           -1.929736614116     1.046693603329     0.003911676142
    H           -1.088987803292     0.464346179048     1.418479689986
    H           -2.175648842070    -1.303699443356    -0.818434657454
    H           -2.910284320832    -1.112662866114     0.771013387084
    H           -1.340137385644    -1.891998407785     0.610067043724

  Mulliken Charges: (a.u.)
   Center  Symbol    Alpha    Beta     Spin     Total
       1     H     0.41307  0.41307  0.00000  0.17387
       2     C     3.24433  3.24433  0.00000 -0.48866
       3     C     2.98846  2.98846  0.00000  0.02309
       4     H     0.42282  0.42282  0.00000  0.15437
       5     H     0.41364  0.41364  0.00000  0.17273
       6     O     4.31201  4.31201  0.00000 -0.62402
       7     H     0.43118  0.43118  0.00000  0.13764
       8     H     0.43295  0.43295  0.00000  0.13410
       9     C     2.99143  2.99143  0.00000  0.01714
      10     C     3.24317  3.24317  0.00000 -0.48633
      11     H     0.41974  0.41974  0.00000  0.16052
      12     H     0.43083  0.43083  0.00000  0.13835
      13     H     0.41281  0.41281  0.00000  0.17439
      14     H     0.42408  0.42408  0.00000  0.15184
      15     H     0.41951  0.41951  0.00000  0.16098

   Total alpha = 21.00000, Total beta = 21.00000, Total charge = -0.00000
