                              Psi4 1.0.54 Driver

  ==> Input File <==

--------------------------------------------------------------------------
set {
	reference rhf
	basis cc-pvtz
}

set_num_threads( 4 )
memory 2 gb

molecule MOL {
0 1

H	 2.828711	 -0.346904	 0.001083
C	 1.876752	 0.015931	 -0.363450
C	 0.776285	 -0.474665	 0.563092
H	 1.728113	 -0.357244	 -1.367440
H	 1.906171	 1.096574	 -0.386153
N	 -0.540022	 0.017605	 0.071630
H	 0.707111	 -1.548969	 0.573035
H	 0.886169	 -0.084184	 1.560432
O	 -1.455965	 -0.731852	 0.131267
O	 -0.576200	 1.115807	 -0.372261

	symmetry c1
}
set optking {
	frozen_dihedral = ("
		9 6 3 2
	")
}

ee,wfn = optimize('scf', return_wfn=True)
oeprop( wfn, 'DIPOLE', 'QUADRUPOLE', 'MULLIKEN_CHARGES')
f=open( 'psi4out.xyz', 'w' )
f.write( "10  " )
f.write( str(ee) + "\n" )
f.write( MOL.save_string_xyz() )
f.close()
--------------------------------------------------------------------------

    Molecular point group: c1
  Charge       = 0
  Multiplicity = 1
  Basis Set: CC-PVTZ
  Basis Set:
  @DF-RHF Final Energy:  -282.81211687628399
    Total Energy =                       -282.8121168762838806
    Molecular point group: c1
  Basis Set: CC-PVTZ
  Basis Set:
  Basis Set: CC-PVTZ
  Basis Set:
  @DF-RHF Final Energy:  -282.49350432440298
    Total Energy =                       -282.4935043244031476
  Basis Set: CC-PVTZ
  Basis Set:
  Basis Set: CC-PVTZ
  Basis Set:
  @DF-RHF Final Energy:  -282.63863006769532
    Total Energy =                       -282.6386300676954306
  Basis Set: CC-PVTZ
  Basis Set:
  Basis Set: CC-PVTZ
  Basis Set:
  @DF-RHF Final Energy:  -282.75701612791988
    Total Energy =                       -282.7570161279199965
  Basis Set: CC-PVTZ
  Basis Set:
  @DF-RHF Final Energy:  -282.69723277970377
    Total Energy =                       -282.6972327797038247
  @DF-RHF Final Energy:  -282.64390953134921
    Total Energy =                       -282.6439095313491521
  @DF-RHF Final Energy:  -282.40184926821644
    Total Energy =                       -282.4018492682164378
  @DF-RHF Final Energy:  -282.64562038398395
    Total Energy =                       -282.6456203839840100
  @DF-RHF Final Energy:  -282.77953213980174
    Total Energy =                       -282.7795321398018586
  @DF-RHF Final Energy:  -282.64420749016472
    Total Energy =                       -282.6442074901646606
  @DF-RHF Final Energy:  -282.59859521523521
    Total Energy =                       -282.5985952152353207
  @DF-RHF Final Energy:  -282.75674954882015
    Total Energy =                       -282.7567495488201530
  @DF-RHF Final Energy:  -282.77458861239188
    Total Energy =                       -282.7745886123918808
  @DF-RHF Final Energy:  -282.80728210736692
    Total Energy =                       -282.8072821073669729
  @DF-RHF Final Energy:  -282.81187080863322
    Total Energy =                       -282.8118708086332163
  @DF-RHF Final Energy:  -282.81243788552399
    Total Energy =                       -282.8124378855239911
  @DF-RHF Final Energy:  -282.81277765393986
    Total Energy =                       -282.8127776539400884
  @DF-RHF Final Energy:  -282.81296121621313
    Total Energy =                       -282.8129612162131821
  Basis Set: CC-PVTZ
  Basis Set:
  @DF-RHF Final Energy:  -282.81303546765963
    Total Energy =                       -282.8130354676595744
  Basis Set: CC-PVTZ
  Basis Set:
  Basis Set: CC-PVTZ
  Basis Set:
  @DF-RHF Final Energy:  -282.81299826773125
    Total Energy =                       -282.8129982677312455
  Basis Set: CC-PVTZ
  Basis Set:
  Basis Set: CC-PVTZ
  Basis Set:
  @DF-RHF Final Energy:  -282.81305374285625
    Total Energy =                       -282.8130537428562548
  Basis Set: CC-PVTZ
  Basis Set:
  Charge       = 0
  Multiplicity = 1
  Basis Set: CC-PVTZ
  Basis Set:

    Orbital Energies (a.u.)
    -----------------------

    Doubly Occupied:

       1A    -20.592855     2A    -20.591631     3A    -15.839203
       4A    -11.302715     5A    -11.246007     6A     -1.638351
       7A     -1.422599     8A     -1.124696     9A     -0.967004
      10A     -0.836877    11A     -0.764732    12A     -0.745868
      13A     -0.731623    14A     -0.648806    15A     -0.592009
      16A     -0.563626    17A     -0.540653    18A     -0.489768
      19A     -0.479519    20A     -0.455950

  @DF-RHF Final Energy:  -282.81305389163526

   => Energetics <=

    Nuclear Repulsion Energy =            186.5814854577190829
    One-Electron Energy =                -755.6400955185740713
    Two-Electron Energy =                 286.2455561692196397
    DFT Exchange-Correlation Energy =       0.0000000000000000
    Empirical Dispersion Energy =           0.0000000000000000
    PCM Polarization Energy =               0.0000000000000000
    EFP Energy =                            0.0000000000000000
    Total Energy =                       -282.8130538916353771
    Molecular point group: c1
  Basis Set: CC-PVTZ
  Basis Set:

  -Total Gradient:
     Atom            X                  Y                   Z
    ------   -----------------  -----------------  -----------------
       1        0.000006387743    -0.000036216747    -0.000019207183
       2        0.000102961414     0.000137271474    -0.000034470406
       3       -0.000146837251    -0.000108452183    -0.000017662018
       4        0.000000571892    -0.000002224178     0.000016654506
       5        0.000037884649    -0.000004188904     0.000001897031
       6        0.000084784599    -0.000127982679     0.000322450367
       7       -0.000035483510     0.000000648248    -0.000005019473
       8        0.000001360473     0.000004893743    -0.000012023459
       9       -0.000032955437     0.000122353816    -0.000249341144
      10       -0.000018674572     0.000013897414    -0.000003278219

  **** Optimization is complete! (in 22 steps) ****
    Final optimized geometry and variables:
    Molecular point group: c1

    Geometry (in Angstrom), charge = 0, multiplicity = 1:

    H           -0.428701888958     1.615417082035     2.336455429520
    C            0.011135838345     0.797684401538     1.779669764171
    C           -0.515567606577     0.846461349702     0.360634022351
    H           -0.263500556872    -0.129917693150     2.264906855144
    H            1.085064865072     0.897082073209     1.802259840482
    N            0.024622777662    -0.262316150788    -0.480661421354
    H           -1.585841862960     0.754559505845     0.302344943621
    H           -0.206704887595     1.747856428114    -0.149896179336
    O           -0.727354258342    -0.780272127983    -1.235117840240
    O            1.172434692743    -0.531378462164    -0.362907591351

  Mulliken Charges: (a.u.)
   Center  Symbol    Alpha    Beta     Spin     Total
       1     H     0.44913  0.44913  0.00000  0.10174
       2     C     3.14080  3.14080  0.00000 -0.28159
       3     C     3.04024  3.04024  0.00000 -0.08049
       4     H     0.44535  0.44535  0.00000  0.10931
       5     H     0.43651  0.43651  0.00000  0.12699
       6     N     3.27756  3.27756  0.00000  0.44488
       7     H     0.43134  0.43134  0.00000  0.13731
       8     H     0.43713  0.43713  0.00000  0.12574
       9     O     4.16949  4.16949  0.00000 -0.33897
      10     O     4.17246  4.17246  0.00000 -0.34491

   Total alpha = 20.00000, Total beta = 20.00000, Total charge =  0.00000

*** Psi4 exiting successfully. Buy a developer a beer!
