                              Psi4 1.0.54 Driver

  ==> Input File <==

--------------------------------------------------------------------------
set {
	reference rhf
	basis cc-pvtz
}

set_num_threads( 4 )
memory 2 gb

molecule MOL {
0 1

O	 0.749630	 1.305591	 -0.000460
C	 0.576499	 0.134701	 -0.003900
C	 -0.765656	 -0.550508	 -0.002152
O	 1.564816	 -0.744612	 -0.000631
C	 -1.945526	 0.411052	 0.000603
H	 -0.794329	 -1.203792	 -0.868145
H	 -0.791555	 -1.205429	 0.862701
C	 -3.282915	 -0.321280	 0.002596
H	 -1.880300	 1.059126	 -0.864925
H	 -1.877207	 1.057892	 0.866807
H	 -3.388495	 -0.952755	 -0.873419
H	 -4.107811	 0.380864	 0.004116
H	 -3.385717	 -0.953283	 0.878571
C	 1.638003	 -1.642701	 -1.089709
H	 0.744122	 -2.245822	 -1.146948
H	 2.496859	 -2.266552	 -0.902987
H	 1.761513	 -1.106093	 -2.018601

	symmetry c1
}
set optking {
	frozen_dihedral = ("
		14 4 2 1
	")
}

ee,wfn = optimize('scf', return_wfn=True)
oeprop( wfn, 'DIPOLE', 'QUADRUPOLE', 'MULLIKEN_CHARGES')
f=open( 'psi4out.xyz', 'w' )
f.write( "17  " )
f.write( str(ee) + "\n" )
f.write( MOL.save_string_xyz() )
f.close()
--------------------------------------------------------------------------

    Molecular point group: c1
  Charge       = 0
  Multiplicity = 1
  Basis Set: CC-PVTZ
  Basis Set:
  @DF-RHF Final Energy:  -345.01127065775563
    Total Energy =                       -345.0112706577555741
    Molecular point group: c1
  Basis Set: CC-PVTZ
  Basis Set:
  Basis Set: CC-PVTZ
  Basis Set:
  @DF-RHF Final Energy:  -345.01094637308114
    Total Energy =                       -345.0109463730808557
  Basis Set: CC-PVTZ
  Basis Set:
  Basis Set: CC-PVTZ
  Basis Set:
  @DF-RHF Final Energy:  -345.01483502200671
    Total Energy =                       -345.0148350220066504
  Basis Set: CC-PVTZ
  Basis Set:
  Basis Set: CC-PVTZ
  Basis Set:
  @DF-RHF Final Energy:  -345.01051084839179
    Total Energy =                       -345.0105108483917888
  Basis Set: CC-PVTZ
  Basis Set:
  @DF-RHF Final Energy:  -345.01553119967235
    Total Energy =                       -345.0155311996721821
  @DF-RHF Final Energy:  -345.01579313911367
    Total Energy =                       -345.0157931391137254
  Basis Set: CC-PVTZ
  Basis Set:
  @DF-RHF Final Energy:  -345.01580608136965
    Total Energy =                       -345.0158060813696466
  Basis Set: CC-PVTZ
  Basis Set:
  Basis Set: CC-PVTZ
  Basis Set:
  @DF-RHF Final Energy:  -345.01581143093404
    Total Energy =                       -345.0158114309341499
  Basis Set: CC-PVTZ
  Basis Set:
  Basis Set: CC-PVTZ
  Basis Set:
  @DF-RHF Final Energy:  -345.01581278914921
    Total Energy =                       -345.0158127891492654
  Basis Set: CC-PVTZ
  Basis Set:
  Charge       = 0
  Multiplicity = 1
  Basis Set: CC-PVTZ
  Basis Set:

    Orbital Energies (a.u.)
    -----------------------

    Doubly Occupied:

       1A    -20.582098     2A    -20.541743     3A    -11.367665
       4A    -11.291885     5A    -11.240915     6A    -11.224122
       7A    -11.216330     8A     -1.462263     9A     -1.370464
      10A     -1.083043    11A     -0.989171    12A     -0.961606
      13A     -0.837620    14A     -0.766814    15A     -0.702700
      16A     -0.682747    17A     -0.677572    18A     -0.640243
      19A     -0.615956    20A     -0.581220    21A     -0.567300
      22A     -0.546645    23A     -0.520299    24A     -0.496738
      25A     -0.491793    26A     -0.483575    27A     -0.457443
      28A     -0.437645

  @DF-RHF Final Energy:  -345.01581284736432

   => Energetics <=

    Nuclear Repulsion Energy =            313.6093031345969280
    One-Electron Energy =               -1091.5750029212751997
    Two-Electron Energy =                 432.9498869393140694
    DFT Exchange-Correlation Energy =       0.0000000000000000
    Empirical Dispersion Energy =           0.0000000000000000
    PCM Polarization Energy =               0.0000000000000000
    EFP Energy =                            0.0000000000000000
    Total Energy =                       -345.0158128473641455
    Molecular point group: c1
  Basis Set: CC-PVTZ
  Basis Set:

  -Total Gradient:
     Atom            X                  Y                   Z
    ------   -----------------  -----------------  -----------------
       1       -0.000723948066    -0.000306584304    -0.002795540836
       2        0.001356470972     0.001319567078     0.003205462616
       3       -0.000004928864     0.000005678558     0.000001614837
       4       -0.001326761827    -0.002699735219     0.001191394523
       5        0.000006431308    -0.000013674505    -0.000016167193
       6        0.000011473084    -0.000000662716     0.000017611150
       7        0.000000824853     0.000005822199     0.000014651292
       8       -0.000005521027     0.000004023766     0.000000918614
       9       -0.000001179736     0.000002419771    -0.000000200652
      10        0.000000444320    -0.000002309945    -0.000002825215
      11        0.000001621304     0.000001747973     0.000001960382
      12       -0.000001749520    -0.000002511161     0.000001361751
      13       -0.000000712986     0.000000140546    -0.000000859100
      14        0.000681637155     0.001688429825    -0.001608255882
      15        0.000005638595     0.000000958012    -0.000008549514
      16        0.000001457121    -0.000004131665    -0.000001652842
      17       -0.000001196681     0.000000821787    -0.000000923931

  **** Optimization is complete! (in 10 steps) ****
    Final optimized geometry and variables:
    Molecular point group: c1

    Geometry (in Angstrom), charge = 0, multiplicity = 1:

    O            0.652807310818     1.597397933126    -0.250817082254
    C            0.673211152594     0.426971606904    -0.138129726087
    C           -0.508493580265    -0.404785635840     0.303444192412
    O            1.808496888823    -0.257961507755    -0.368853594652
    C           -1.704355226367     0.422672460425     0.755538808198
    H           -0.792237910751    -1.051595936743    -0.521530515849
    H           -0.165077791920    -1.063888197848     1.094585543290
    C           -2.875186016469    -0.450334199288     1.193546659345
    H           -2.010493450028     1.076414446210    -0.051467167223
    H           -1.401505079400     1.070203206272     1.569462201300
    H           -3.219892418580    -1.085045367138     0.383555131530
    H           -3.712024053690     0.158743480238     1.513021752515
    H           -2.600188658701    -1.093928112887     2.022715137573
    C            1.832546773113    -1.237363223856    -1.379482755572
    H            1.257850259194    -2.113830696592    -1.107072816113
    H            2.864924838046    -1.520854047969    -1.503825845301
    H            1.462689124209    -0.835775894186    -2.315353033962

  Mulliken Charges: (a.u.)
   Center  Symbol    Alpha    Beta     Spin     Total
       1     O     4.16780  4.16780  0.00000 -0.33561
       2     C     2.79582  2.79582  0.00000  0.40837
       3     C     3.12213  3.12213  0.00000 -0.24425
       4     O     4.15386  4.15386  0.00000 -0.30773
       5     C     3.08057  3.08057  0.00000 -0.16114
       6     H     0.44624  0.44624  0.00000  0.10753
       7     H     0.43691  0.43691  0.00000  0.12618
       8     C     3.15000  3.15000  0.00000 -0.29999
       9     H     0.44443  0.44443  0.00000  0.11114
      10     H     0.44500  0.44500  0.00000  0.11000
      11     H     0.45671  0.45671  0.00000  0.08657
      12     H     0.44457  0.44457  0.00000  0.11087
      13     H     0.45557  0.45557  0.00000  0.08886
      14     C     3.04452  3.04452  0.00000 -0.08904
      15     H     0.46131  0.46131  0.00000  0.07737
      16     H     0.43677  0.43677  0.00000  0.12646
      17     H     0.45779  0.45779  0.00000  0.08442

   Total alpha = 28.00000, Total beta = 28.00000, Total charge = -0.00000

*** Psi4 exiting successfully. Buy a developer a beer!
