  ==> Input File <==

--------------------------------------------------------------------------
set {
	reference rhf
	basis 6-31G*
}

set_num_threads( 4 )
memory 2 gb

molecule MOL {
0 1

H	 -2.273092	 1.173159	 0.000295
O	 -1.438904	 1.618192	 0.000114
C	 -0.409536	 0.736003	 0.000030
C	 0.680205	 1.052082	 0.796118
C	 -0.430289	 -0.433787	 -0.756345
H	 0.655070	 1.964071	 1.363247
C	 1.767039	 0.200181	 0.846765
C	 0.676016	 -1.271733	 -0.686165
C	 -1.620162	 -0.776787	 -1.624422
H	 2.609400	 0.451164	 1.466386
C	 1.770871	 -0.969494	 0.103918
H	 0.675480	 -2.179370	 -1.264559
H	 -1.797596	 -0.022173	 -2.387978
H	 -1.461512	 -1.717230	 -2.136647
H	 -2.532974	 -0.879707	 -1.041173
H	 2.612765	 -1.636742	 0.138469

	symmetry c1
}
set optking {
	frozen_dihedral = ("
		4 3 2 1
	")
}

ee = optimize('scf')
oeprop('DIPOLE', 'QUADRUPOLE', 'MULLIKEN_CHARGES')
f=open( 'psi4out.xyz', 'w' )
f.write( "16  " )
f.write( str(ee) + "\n" )
f.write( MOL.save_string_xyz() )
f.close()
--------------------------------------------------------------------------

    Molecular point group: c1
  Charge       = 0
  Multiplicity = 1
  Basis Set: 6-31G*
  Basis Set:
  @DF-RHF Final Energy:  -344.59231229489285
    Total Energy =                       -344.5923122948926220
    Molecular point group: c1
  Basis Set: 6-31G*
  Basis Set:
  Basis Set: 6-31G*
  Basis Set:
  @DF-RHF Final Energy:  -344.59257332424357
    Total Energy =                       -344.5925733242437445
  Basis Set: 6-31G*
  Basis Set:
  Basis Set: 6-31G*
  Basis Set:
  @DF-RHF Final Energy:  -344.59261843956887
    Total Energy =                       -344.5926184395690939
  Basis Set: 6-31G*
  Basis Set:
  Basis Set: 6-31G*
  Basis Set:
  @DF-RHF Final Energy:  -344.59262594779631
    Total Energy =                       -344.5926259477965345
  Basis Set: 6-31G*
  Basis Set:
  Charge       = 0
  Multiplicity = 1
  Basis Set: 6-31G*
  Basis Set:

    Orbital Energies (a.u.)
    -----------------------

    Doubly Occupied:

       1A    -20.582625     2A    -11.288364     3A    -11.235219
       4A    -11.230351     5A    -11.229550     6A    -11.229436
       7A    -11.222087     8A    -11.221118     9A     -1.399213
      10A     -1.148785    11A     -1.047291    12A     -1.003789
      13A     -0.938702    14A     -0.824570    15A     -0.815297
      16A     -0.727703    17A     -0.673710    18A     -0.645526
      19A     -0.617203    20A     -0.594887    21A     -0.573323
      22A     -0.569898    23A     -0.551324    24A     -0.534351
      25A     -0.501706    26A     -0.483118    27A     -0.469143
      28A     -0.328838    29A     -0.310218

  @DF-RHF Final Energy:  -344.59262672640716

   => Energetics <=

    Nuclear Repulsion Energy =            350.0017252791566307
    One-Electron Energy =               -1161.1940147180157510
    Two-Electron Energy =                 466.5996627124518454
    DFT Exchange-Correlation Energy =       0.0000000000000000
    Empirical Dispersion Energy =           0.0000000000000000
    PCM Polarization Energy =               0.0000000000000000
    EFP Energy =                            0.0000000000000000
    Total Energy =                       -344.5926267264072749
    Molecular point group: c1
  Basis Set: 6-31G*
  Basis Set:

  -Total Gradient:
     Atom            X                  Y                   Z
    ------   -----------------  -----------------  -----------------
       1       -0.000029822106     0.000061906500     0.001655532322
       2       -0.000314890419    -0.000265473472    -0.001624564362
       3        0.000883445083     0.000707285683    -0.001003886773
       4       -0.000540913334    -0.000544287959     0.000963384891
       5       -0.000046173274     0.000025243724     0.000008828475
       6        0.000007066930    -0.000004455189    -0.000016960888
       7        0.000010386074    -0.000008089733     0.000008043167
       8        0.000012469041    -0.000016223741     0.000052107423
       9        0.000019615733     0.000021515934    -0.000026491785
      10        0.000011187540    -0.000016410535    -0.000004474980
      11        0.000005698497     0.000024519026    -0.000043594839
      12       -0.000000882647     0.000013346882    -0.000000685419
      13       -0.000007061320     0.000000284020    -0.000012274652
      14       -0.000001230701     0.000009864618     0.000014103972
      15       -0.000019643047    -0.000012083668     0.000010999542
      16        0.000010747954     0.000003057909     0.000019933906

  **** Optimization is complete! (in 5 steps) ****
    Final optimized geometry and variables:
    Molecular point group: c1

    Geometry (in Angstrom), charge = 0, multiplicity = 1:

    H           -2.313929143392     1.122311623308     0.146952950996
    O           -1.481505057502     1.573534838553     0.143141149323
    C           -0.448541371081     0.684469791918     0.184175786012
    C            0.639407362349     1.004519020049     0.976906918983
    C           -0.474484076614    -0.490823770538    -0.563488824039
    H            0.615726090970     1.919908857247     1.538594921604
    C            1.729872565608     0.153481952040     1.028471807685
    C            0.625480895733    -1.334429827663    -0.484564184653
    C           -1.664955902500    -0.820926153101    -1.432924564216
    H            2.575506489459     0.407548629336     1.642244166562
    C            1.724388954193    -1.023226318975     0.299621369459
    H            0.623198422285    -2.247125758133    -1.054826766227
    H           -1.896220801211    -0.005372983466    -2.110860138921
    H           -1.474115288406    -1.706032331737    -2.026891147142
    H           -2.558329585648    -1.019468214414    -0.842560155719
    H            2.565266815650    -1.691903888114     0.337976390593

  Mulliken Charges: (a.u.)
   Center  Symbol    Alpha    Beta     Spin     Total
       1     H     0.27023  0.27023  0.00000  0.45954
       2     O     4.38402  4.38402  0.00000 -0.76805
       3     C     2.82487  2.82487  0.00000  0.35026
       4     C     3.11598  3.11598  0.00000 -0.23197
       5     C     3.00342  3.00342  0.00000 -0.00684
       6     H     0.39231  0.39231  0.00000  0.21538
       7     C     3.09824  3.09824  0.00000 -0.19649
       8     C     3.10936  3.10936  0.00000 -0.21872
       9     C     3.26382  3.26382  0.00000 -0.52765
      10     H     0.39892  0.39892  0.00000  0.20216
      11     C     3.10521  3.10521  0.00000 -0.21041
      12     H     0.40138  0.40138  0.00000  0.19723
      13     H     0.40430  0.40430  0.00000  0.19140
      14     H     0.40803  0.40803  0.00000  0.18394
      15     H     0.41924  0.41924  0.00000  0.16152
      16     H     0.40066  0.40066  0.00000  0.19869

   Total alpha = 29.00000, Total beta = 29.00000, Total charge =  0.00000
