  ==> Input File <==

--------------------------------------------------------------------------
set {
	reference rhf
	basis cc-pvtz
}

set_num_threads( 4 )
memory 2 gb

molecule MOL {
0 1

H	 -2.142189	 -1.197068	 -0.050204
O	 -2.346257	 -0.289210	 0.080372
C	 -1.183935	 0.486039	 -0.009831
C	 0.062853	 -0.375310	 0.027457
H	 -1.178881	 1.094526	 -0.908634
H	 -1.184406	 1.155156	 0.838676
O	 1.172093	 0.457955	 -0.054438
H	 0.052476	 -1.081302	 -0.804627
H	 0.076323	 -0.955658	 0.947560
C	 2.395478	 -0.199028	 -0.000366
H	 2.505946	 -0.901710	 -0.823354
H	 3.174616	 0.545641	 -0.071768
H	 2.513730	 -0.742241	 0.934223

	symmetry c1
}
set optking {
	frozen_dihedral = ("
		1 2 3 5
	")
}

ee = optimize('scf')
oeprop('DIPOLE', 'QUADRUPOLE', 'MULLIKEN_CHARGES')
f=open( 'psi4out.xyz', 'w' )
f.write( "13  " )
f.write( str(ee) + "\n" )
f.write( MOL.save_string_xyz() )
f.close()
--------------------------------------------------------------------------

    Molecular point group: c1
  Charge       = 0
  Multiplicity = 1
  Basis Set: CC-PVTZ
  Basis Set:
  @DF-RHF Final Energy:  -268.05880337406006
    Total Energy =                       -268.0588033740601190
    Molecular point group: c1
  Basis Set: CC-PVTZ
  Basis Set:
  Basis Set: CC-PVTZ
  Basis Set:
  @DF-RHF Final Energy:  -268.05902199060085
    Total Energy =                       -268.0590219906007405
  Basis Set: CC-PVTZ
  Basis Set:
  Basis Set: CC-PVTZ
  Basis Set:
  @DF-RHF Final Energy:  -268.05907387198602
    Total Energy =                       -268.0590738719860155
  Basis Set: CC-PVTZ
  Basis Set:
  Charge       = 0
  Multiplicity = 1
  Basis Set: CC-PVTZ
  Basis Set:

    Orbital Energies (a.u.)
    -----------------------

    Doubly Occupied:

       1A    -20.561369     2A    -20.550589     3A    -11.278262
       4A    -11.271733     5A    -11.267052     6A     -1.397445
       7A     -1.367238     8A     -1.023028     9A     -0.916614
      10A     -0.852414    11A     -0.696997    12A     -0.689384
      13A     -0.672241    14A     -0.626614    15A     -0.610697
      16A     -0.580900    17A     -0.546594    18A     -0.500331
      19A     -0.473649    20A     -0.443106    21A     -0.429902

  @DF-RHF Final Energy:  -268.05907438746226

   => Energetics <=

    Nuclear Repulsion Energy =            190.6816986032352759
    One-Electron Energy =                -743.9692309632422393
    Two-Electron Energy =                 285.2284579725447884
    DFT Exchange-Correlation Energy =       0.0000000000000000
    Empirical Dispersion Energy =           0.0000000000000000
    PCM Polarization Energy =               0.0000000000000000
    EFP Energy =                            0.0000000000000000
    Total Energy =                       -268.0590743874621467
    Molecular point group: c1
  Basis Set: CC-PVTZ
  Basis Set:

  -Total Gradient:
     Atom            X                  Y                   Z
    ------   -----------------  -----------------  -----------------
       1        0.000182549942    -0.000156410172     0.001457037975
       2       -0.000423139767     0.000412711226    -0.001649037653
       3        0.000782050097    -0.001244134897    -0.000412591363
       4       -0.000072580795    -0.000001542109     0.000035616492
       5       -0.000551015367     0.000941294374     0.000621229202
       6        0.000003372700     0.000007879120     0.000001403135
       7        0.000063625895    -0.000009567434    -0.000019714172
       8        0.000008733063     0.000013008614    -0.000002754143
       9       -0.000016272469     0.000006582690    -0.000019800873
      10       -0.000007725054     0.000052438447    -0.000011919381
      11        0.000011078992    -0.000008965242     0.000000915978
      12        0.000027852588    -0.000012815339    -0.000001066355
      13       -0.000008529817    -0.000000479279     0.000000681159

  **** Optimization is complete! (in 4 steps) ****
    Final optimized geometry and variables:
    Molecular point group: c1

    Geometry (in Angstrom), charge = 0, multiplicity = 1:

    H           -2.179355695818    -1.191647469497    -0.067921780451
    O           -2.360430356800    -0.278707625328     0.056020959927
    C           -1.186457120493     0.486018635353    -0.016194859610
    C            0.062912622332    -0.369298436328     0.025809910326
    H           -1.189269369869     1.079847694469    -0.922969504840
    H           -1.175699960296     1.170558740360     0.822227930231
    O            1.168975033665     0.464110571881    -0.051338802622
    H            0.056389533070    -1.074082568522    -0.807952684835
    H            0.079956474283    -0.949940374497     0.948303980819
    C            2.394060060875    -0.192427219979    -0.012668574761
    H            2.500349839263    -0.884091080164    -0.845192730007
    H            3.170788285384     0.554800235671    -0.079198788837
    H            2.518290344761    -0.746493954575     0.914752131417

  Mulliken Charges: (a.u.)
   Center  Symbol    Alpha    Beta     Spin     Total
       1     H     0.39379  0.39379  0.00000  0.21242
       2     O     4.20363  4.20363  0.00000 -0.40726
       3     C     2.95103  2.95103  0.00000  0.09793
       4     C     2.97839  2.97839  0.00000  0.04322
       5     H     0.46855  0.46855  0.00000  0.06290
       6     H     0.46427  0.46427  0.00000  0.07146
       7     O     4.17136  4.17136  0.00000 -0.34273
       8     H     0.47844  0.47844  0.00000  0.04312
       9     H     0.47186  0.47186  0.00000  0.05627
      10     C     3.03356  3.03356  0.00000 -0.06712
      11     H     0.47048  0.47048  0.00000  0.05904
      12     H     0.44459  0.44459  0.00000  0.11083
      13     H     0.47004  0.47004  0.00000  0.05993

   Total alpha = 21.00000, Total beta = 21.00000, Total charge = -0.00000
