  ==> Input File <==

--------------------------------------------------------------------------
set {
	reference rhf
	basis 6-31G*
}

set_num_threads( 4 )
memory 2 gb

molecule MOL {
0 1

H	 -2.074541	 2.255878	 -0.419559
C	 -1.695116	 1.266538	 -0.244572
C	 -2.555216	 0.202028	 -0.034829
C	 -0.335223	 1.042230	 -0.226544
H	 -3.619159	 0.356490	 -0.045189
C	 -2.052818	 -1.066101	 0.189169
H	 0.355998	 1.843344	 -0.385309
C	 0.154804	 -0.237046	 -0.000077
H	 -2.736670	 -1.878941	 0.349588
C	 -0.685722	 -1.334363	 0.215418
N	 1.611208	 -0.370857	 -0.000034
C	 -0.247410	 -2.759986	 0.469215
O	 2.274126	 0.622059	 -0.008063
O	 2.068510	 -1.474748	 0.007823
H	 0.362411	 -2.835937	 1.358866
H	 -1.123952	 -3.383123	 0.594718
H	 0.339051	 -3.147814	 -0.352233

	symmetry c1
}
set optking {
	frozen_dihedral = ("
		4 8 11 13
	")
}

ee = optimize('scf')
oeprop('DIPOLE', 'QUADRUPOLE', 'MULLIKEN_CHARGES')
f=open( 'psi4out.xyz', 'w' )
f.write( "17  " )
f.write( str(ee) + "\n" )
f.write( MOL.save_string_xyz() )
f.close()
--------------------------------------------------------------------------

    Molecular point group: c1
  Charge       = 0
  Multiplicity = 1
  Basis Set: 6-31G*
  Basis Set:
  @DF-RHF Final Energy:  -473.20640209026050
    Total Energy =                       -473.2064020902606671
    Molecular point group: c1
  Basis Set: 6-31G*
  Basis Set:
  Basis Set: 6-31G*
  Basis Set:
  @DF-RHF Final Energy:  -473.20651011866374
    Total Energy =                       -473.2065101186627771
  Basis Set: 6-31G*
  Basis Set:
  Basis Set: 6-31G*
  Basis Set:
  @DF-RHF Final Energy:  -473.20618613620638
    Total Energy =                       -473.2061861362062700
  Basis Set: 6-31G*
  Basis Set:
  Basis Set: 6-31G*
  Basis Set:
  @DF-RHF Final Energy:  -473.20657807174513
    Total Energy =                       -473.2065780717454118
  Basis Set: 6-31G*
  Basis Set:
  Basis Set: 6-31G*
  Basis Set:
  @DF-RHF Final Energy:  -473.20660029500192
    Total Energy =                       -473.2066002950011807
  Basis Set: 6-31G*
  Basis Set:
  Basis Set: 6-31G*
  Basis Set:
  @DF-RHF Final Energy:  -473.20660293923419
    Total Energy =                       -473.2066029392340170
  Basis Set: 6-31G*
  Basis Set:
  Charge       = 0
  Multiplicity = 1
  Basis Set: 6-31G*
  Basis Set:

    Orbital Energies (a.u.)
    -----------------------

    Doubly Occupied:

       1A    -20.598201     2A    -20.596067     3A    -15.853053
       4A    -11.300830     5A    -11.283149     6A    -11.265741
       7A    -11.264542     8A    -11.253790     9A    -11.252945
      10A    -11.232834    11A     -1.631581    12A     -1.413463
      13A     -1.199387    14A     -1.091316    15A     -1.071522
      16A     -0.979756    17A     -0.930434    18A     -0.846409
      19A     -0.822876    20A     -0.768558    21A     -0.731376
      22A     -0.725001    23A     -0.693003    24A     -0.663951
      25A     -0.637877    26A     -0.597763    27A     -0.588872
      28A     -0.561811    29A     -0.540949    30A     -0.519884
      31A     -0.518755    32A     -0.484512    33A     -0.476662
      34A     -0.447950    35A     -0.369889    36A     -0.353416

  @DF-RHF Final Energy:  -473.20660331955793

   => Energetics <=

    Nuclear Repulsion Energy =            509.7819186006376526
    One-Electron Energy =               -1654.8407900656679885
    Two-Electron Energy =                 671.8522681454728627
    DFT Exchange-Correlation Energy =       0.0000000000000000
    Empirical Dispersion Energy =           0.0000000000000000
    PCM Polarization Energy =               0.0000000000000000
    EFP Energy =                            0.0000000000000000
    Total Energy =                       -473.2066033195574164
    Molecular point group: c1
  Basis Set: 6-31G*
  Basis Set:

  -Total Gradient:
     Atom            X                  Y                   Z
    ------   -----------------  -----------------  -----------------
       1       -0.000001129594     0.000000737135     0.000000883017
       2        0.000000737461    -0.000004733077    -0.000012270388
       3        0.000000023744     0.000003630097     0.000008385048
       4       -0.000003423927     0.000088433626     0.000475938354
       5       -0.000000352337     0.000000930415    -0.000003583738
       6       -0.000002947189     0.000000956022    -0.000003210393
       7       -0.000005886243    -0.000002160691    -0.000006476615
       8       -0.000015691371    -0.000136664018    -0.000889362987
       9        0.000000908660    -0.000000386767    -0.000005757408
      10       -0.000002428838     0.000011635278     0.000048289526
      11       -0.000023704627     0.000091460628     0.000988031618
      12        0.000001360583    -0.000008799686    -0.000035879309
      13        0.000027944075    -0.000049640366    -0.000562382695
      14        0.000024217695     0.000005073169    -0.000011319313
      15        0.000001312576     0.000008384755     0.000000186004
      16        0.000001249887     0.000003203930     0.000001145000
      17       -0.000002190558    -0.000012060454     0.000007384278

  **** Optimization is complete! (in 7 steps) ****
    Final optimized geometry and variables:
    Molecular point group: c1

    Geometry (in Angstrom), charge = 0, multiplicity = 1:

    H           -2.030955658675     2.696329056697    -0.462021094924
    C           -1.652409590930     1.706486745339    -0.287844923432
    C           -2.513893681353     0.640521205505    -0.091176881439
    C           -0.292421097427     1.483368900001    -0.255644239436
    H           -3.577679225102     0.794943888052    -0.110164035817
    C           -2.013317995153    -0.628151293943     0.134573905279
    H            0.400510277655     2.286131843298    -0.399327770679
    C            0.194619961351     0.201785823852    -0.038386214941
    H           -2.698107188556    -1.440804585450     0.292389823717
    C           -0.646453002509    -0.896112692469     0.167231082727
    N            1.650267678871     0.065677659275    -0.031188848681
    C           -0.205197015400    -2.319070436001     0.430213991014
    O            2.302094171323     1.067058494857    -0.026184016675
    O            2.118311913071    -1.032687391862    -0.041799187918
    H            0.476822819801    -2.378785242411     1.267112999990
    H           -1.075065021027    -2.925745718113     0.648512461365
    H            0.304668455697    -2.738457642466    -0.426317434881

  Mulliken Charges: (a.u.)
   Center  Symbol    Alpha    Beta     Spin     Total
       1     H     0.38933  0.38933  0.00000  0.22133
       2     C     3.11200  3.11200  0.00000 -0.22400
       3     C     3.08044  3.08044  0.00000 -0.16089
       4     C     3.08414  3.08414  0.00000 -0.16828
       5     H     0.38941  0.38941  0.00000  0.22118
       6     C     3.12606  3.12606  0.00000 -0.25212
       7     H     0.36289  0.36289  0.00000  0.27421
       8     C     2.93625  2.93625  0.00000  0.12749
       9     H     0.39271  0.39271  0.00000  0.21458
      10     C     2.96300  2.96300  0.00000  0.07401
      11     N     3.24417  3.24417  0.00000  0.51165
      12     C     3.23584  3.23584  0.00000 -0.47167
      13     O     4.23640  4.23640  0.00000 -0.47280
      14     O     4.23676  4.23676  0.00000 -0.47353
      15     H     0.39928  0.39928  0.00000  0.20144
      16     H     0.41515  0.41515  0.00000  0.16970
      17     H     0.39616  0.39616  0.00000  0.20768

   Total alpha = 36.00000, Total beta = 36.00000, Total charge = -0.00000
