  ==> Input File <==

--------------------------------------------------------------------------
set {
	reference rhf
	basis 6-31G*
}

set_num_threads( 1 )
memory 2 gb

molecule MOL {
0 1

H	 2.216058	 0.500746	 -5.019670
C	 2.585205	 0.870715	 -4.068158
C	 1.441886	 1.081772	 -3.076466
H	 3.301880	 0.148711	 -3.688121
H	 3.118330	 1.798328	 -4.258187
C	 1.927477	 1.610234	 -1.724896
H	 0.916439	 0.143590	 -2.930445
H	 0.723701	 1.782369	 -3.499628
C	 0.802903	 1.848588	 -0.717033
H	 2.641684	 0.915086	 -1.297904
H	 2.453180	 2.549887	 -1.878940
C	 0.169600	 0.576866	 -0.172154
H	 1.189127	 2.395046	 0.142027
H	 0.026965	 2.480896	 -1.142808
C	 -1.181045	 0.701995	 0.511084
O	 0.716776	 -0.481227	 -0.258424
C	 -2.285934	 -0.139295	 -0.145128
H	 -1.449051	 1.751551	 0.493206
H	 -1.071135	 0.403303	 1.551943
C	 -3.651768	 0.085446	 0.506485
H	 -2.346596	 0.110469	 -1.202272
H	 -2.034737	 -1.195320	 -0.088721
C	 -4.759797	 -0.746382	 -0.137905
H	 -3.908762	 1.140117	 0.445781
H	 -3.588286	 -0.154158	 1.565709
H	 -4.868882	 -0.505166	 -1.191300
H	 -4.548009	 -1.809175	 -0.062213
H	 -5.715422	 -0.564821	 0.343442

	symmetry c1
}
set optking {
	frozen_dihedral = ("
		10 6 3 2,
		12 15 17 21
	")
}

ee = energy('scf')
oeprop('DIPOLE', 'QUADRUPOLE', 'MULLIKEN_CHARGES')
f=open( 'psi4out.xyz', 'w' )
f.write( "28  " )
f.write( str(ee) + "\n" )
f.write( MOL.save_string_xyz() )
f.close()
--------------------------------------------------------------------------

    Molecular point group: c1

    Geometry (in Angstrom), charge = 0, multiplicity = 1:

       Center              X                  Y                   Z               Mass
    ------------   -----------------  -----------------  -----------------  -----------------
           H          2.645208991110    -0.026683483822    -4.074717352322     1.007825032070
           C          3.014355991110     0.343285516178    -3.123205352322    12.000000000000
           C          1.871036991110     0.554342516178    -2.131513352322    12.000000000000
           H          3.731030991110    -0.378718483822    -2.743168352322     1.007825032070
           H          3.547480991110     1.270898516178    -3.313234352322     1.007825032070
           C          2.356627991110     1.082804516178    -0.779943352322    12.000000000000
           H          1.345589991110    -0.383839483822    -1.985492352322     1.007825032070
           H          1.152851991110     1.254939516178    -2.554675352322     1.007825032070
           C          1.232053991110     1.321158516178     0.227919647678    12.000000000000
           H          3.070834991110     0.387656516178    -0.352951352322     1.007825032070
           H          2.882330991110     2.022457516178    -0.933987352322     1.007825032070
           C          0.598750991110     0.049436516178     0.772798647678    12.000000000000
           H          1.618277991110     1.867616516178     1.086979647678     1.007825032070
           H          0.456115991110     1.953466516178    -0.197855352322     1.007825032070
           C         -0.751894008890     0.174565516178     1.456036647678    12.000000000000
           O          1.145926991110    -1.008656483822     0.686528647678    15.994914619560
           C         -1.856783008890    -0.666724483822     0.799824647678    12.000000000000
           H         -1.019900008890     1.224121516178     1.438158647678     1.007825032070
           H         -0.641984008890    -0.124126483822     2.496895647678     1.007825032070
           C         -3.222617008890    -0.441983483822     1.451437647678    12.000000000000
           H         -1.917445008890    -0.416960483822    -0.257319352322     1.007825032070
           H         -1.605586008890    -1.722749483822     0.856231647678     1.007825032070
           C         -4.330646008890    -1.273811483822     0.807047647678    12.000000000000
           H         -3.479611008890     0.612687516178     1.390733647678     1.007825032070
           H         -3.159135008890    -0.681587483822     2.510661647678     1.007825032070
           H         -4.439731008890    -1.032595483822    -0.246347352322     1.007825032070
           H         -4.118858008890    -2.336604483822     0.882739647678     1.007825032070
           H         -5.286271008890    -1.092250483822     1.288394647678     1.007825032070

  Charge       = 0
  Multiplicity = 1
  Basis Set: 6-31G*
  Basis Set:

    Orbital Energies (a.u.)
    -----------------------

    Doubly Occupied:

       1A    -20.546947     2A    -11.322501     3A    -11.230822
       4A    -11.229294     5A    -11.226772     6A    -11.222668
       7A    -11.216433     8A    -11.213276     9A    -11.212663
      10A    -11.205960    11A     -1.392911    12A     -1.090420
      13A     -1.077853    14A     -1.021881    15A     -0.991110
      16A     -0.910095    17A     -0.868079    18A     -0.806561
      19A     -0.796006    20A     -0.723648    21A     -0.667743
      22A     -0.654726    23A     -0.623244    24A     -0.618666
      25A     -0.609786    26A     -0.587814    27A     -0.575360
      28A     -0.575212    29A     -0.539216    30A     -0.531779
      31A     -0.517759    32A     -0.508917    33A     -0.500439
      34A     -0.479032    35A     -0.478058    36A     -0.471940
      37A     -0.467955    38A     -0.464936    39A     -0.456204
      40A     -0.391998

  @DF-RHF Final Energy:  -426.16864859801285

   => Energetics <=

    Nuclear Repulsion Energy =            533.2077948298292540
    One-Electron Energy =               -1634.6995764590460567
    Two-Electron Energy =                 675.3231330312039518
    DFT Exchange-Correlation Energy =       0.0000000000000000
    Empirical Dispersion Energy =           0.0000000000000000
    PCM Polarization Energy =               0.0000000000000000
    EFP Energy =                            0.0000000000000000
    Total Energy =                       -426.1686485980128509

  Mulliken Charges: (a.u.)
   Center  Symbol    Alpha    Beta     Spin     Total
       1     H     0.41940  0.41940  0.00000  0.16120
       2     C     3.24009  3.24009  0.00000 -0.48018
       3     C     3.15635  3.15635  0.00000 -0.31270
       4     H     0.41823  0.41823  0.00000  0.16354
       5     H     0.42353  0.42353  0.00000  0.15294
       6     C     3.14980  3.14980  0.00000 -0.29960
       7     H     0.41055  0.41055  0.00000  0.17890
       8     H     0.42775  0.42775  0.00000  0.14449
       9     C     3.21359  3.21359  0.00000 -0.42718
      10     H     0.40643  0.40643  0.00000  0.18713
      11     H     0.42182  0.42182  0.00000  0.15635
      12     C     2.73242  2.73242  0.00000  0.53516
      13     H     0.40343  0.40343  0.00000  0.19314
      14     H     0.41225  0.41225  0.00000  0.17549
      15     C     3.19939  3.19939  0.00000 -0.39877
      16     O     4.26924  4.26924  0.00000 -0.53847
      17     C     3.15540  3.15540  0.00000 -0.31079
      18     H     0.41685  0.41685  0.00000  0.16629
      19     H     0.40256  0.40256  0.00000  0.19489
      20     C     3.15274  3.15274  0.00000 -0.30548
      21     H     0.42034  0.42034  0.00000  0.15932
      22     H     0.40605  0.40605  0.00000  0.18789
      23     C     3.24008  3.24008  0.00000 -0.48015
      24     H     0.42285  0.42285  0.00000  0.15430
      25     H     0.42092  0.42092  0.00000  0.15816
      26     H     0.42079  0.42079  0.00000  0.15842
      27     H     0.41916  0.41916  0.00000  0.16168
      28     H     0.41798  0.41798  0.00000  0.16405

   Total alpha = 40.00000, Total beta = 40.00000, Total charge =  0.00000
