  ==> Input File <==

--------------------------------------------------------------------------
set {
	reference rhf
	basis 6-31G*
}

set_num_threads( 4 )
memory 2 gb

molecule MOL {
0 1

H	 1.027345	 0.392860	 -4.223926
O	 1.968817	 0.357679	 -4.137529
C	 2.411801	 1.428493	 -3.343063
C	 2.081818	 1.256704	 -1.864440
H	 3.485324	 1.468933	 -3.475677
H	 2.005088	 2.369745	 -3.711044
C	 0.581925	 1.234787	 -1.559961
H	 2.538880	 0.334958	 -1.513947
H	 2.550390	 2.071892	 -1.315552
C	 0.284177	 1.115699	 -0.062636
H	 0.122381	 0.404198	 -2.088455
H	 0.121063	 2.144786	 -1.944473
C	 -1.203017	 1.175100	 0.304878
H	 0.711309	 0.188302	 0.314644
H	 0.799748	 1.920094	 0.457783
C	 -2.037799	 -0.007733	 -0.193645
H	 -1.285448	 1.225220	 1.388625
H	 -1.629912	 2.102766	 -0.073318
C	 -3.489788	 0.042957	 0.286558
H	 -1.581078	 -0.937036	 0.143864
H	 -2.028448	 -0.040790	 -1.280439
C	 -4.216917	 1.317354	 -0.141063
H	 -4.025645	 -0.823308	 -0.095450
H	 -3.513059	 -0.038752	 1.371301
H	 -4.239342	 1.411634	 -1.223113
H	 -5.243387	 1.322503	 0.212445
H	 -3.726170	 2.201406	 0.256408

	symmetry c1
}
set optking {
	frozen_dihedral = ("
		20 16 19 22
	")
}

ee = optimize('scf')
oeprop('DIPOLE', 'QUADRUPOLE', 'MULLIKEN_CHARGES')
f=open( 'psi4out.xyz', 'w' )
f.write( "27  " )
f.write( str(ee) + "\n" )
f.write( MOL.save_string_xyz() )
f.close()
--------------------------------------------------------------------------

    Molecular point group: c1
  Charge       = 0
  Multiplicity = 1
  Basis Set: 6-31G*
  Basis Set:
  @DF-RHF Final Energy:  -388.27915611487970
    Total Energy =                       -388.2791561148794699
    Molecular point group: c1
  Basis Set: 6-31G*
  Basis Set:
  Basis Set: 6-31G*
  Basis Set:
  @DF-RHF Final Energy:  -388.27959937271419
    Total Energy =                       -388.2795993727141877
  Basis Set: 6-31G*
  Basis Set:
  Basis Set: 6-31G*
  Basis Set:
  @DF-RHF Final Energy:  -388.27999863775693
    Total Energy =                       -388.2799986377568757
  Basis Set: 6-31G*
  Basis Set:
  Basis Set: 6-31G*
  Basis Set:
  @DF-RHF Final Energy:  -388.28001342481912
    Total Energy =                       -388.2800134248190034
  Basis Set: 6-31G*
  Basis Set:
  Basis Set: 6-31G*
  Basis Set:
  @DF-RHF Final Energy:  -388.27997443673439
    Total Energy =                       -388.2799744367347330
  Basis Set: 6-31G*
  Basis Set:
  Basis Set: 6-31G*
  Basis Set:
  @DF-RHF Final Energy:  -388.28003501555281
    Total Energy =                       -388.2800350155522437
  Basis Set: 6-31G*
  Basis Set:
  Charge       = 0
  Multiplicity = 1
  Basis Set: 6-31G*
  Basis Set:

    Orbital Energies (a.u.)
    -----------------------

    Doubly Occupied:

       1A    -20.552258     2A    -11.267017     3A    -11.219763
       4A    -11.217261     5A    -11.216534     6A    -11.215387
       7A    -11.215183     8A    -11.214678     9A    -11.209383
      10A     -1.359018    11A     -1.095368    12A     -1.060982
      13A     -1.009571    14A     -0.946483    15A     -0.893461
      16A     -0.828245    17A     -0.799667    18A     -0.767890
      19A     -0.693580    20A     -0.651460    21A     -0.630201
      22A     -0.614422    23A     -0.608256    24A     -0.590357
      25A     -0.580340    26A     -0.554949    27A     -0.536603
      28A     -0.524515    29A     -0.514043    30A     -0.495186
      31A     -0.483261    32A     -0.476280    33A     -0.469255
      34A     -0.456865    35A     -0.449282    36A     -0.442254
      37A     -0.422957

  @DF-RHF Final Energy:  -388.28003405236370

   => Energetics <=

    Nuclear Repulsion Energy =            463.2921022885352613
    One-Electron Energy =               -1444.5798428618995786
    Two-Electron Energy =                 593.0077065210002729
    DFT Exchange-Correlation Energy =       0.0000000000000000
    Empirical Dispersion Energy =           0.0000000000000000
    PCM Polarization Energy =               0.0000000000000000
    EFP Energy =                            0.0000000000000000
    Total Energy =                       -388.2800340523640443
    Molecular point group: c1
  Basis Set: 6-31G*
  Basis Set:

  -Total Gradient:
     Atom            X                  Y                   Z
    ------   -----------------  -----------------  -----------------
       1        0.000009371061    -0.000001300185    -0.000008157793
       2       -0.000000140489     0.000002996609     0.000003159432
       3       -0.000008032653     0.000023692463    -0.000005898793
       4       -0.000001925388     0.000022379258     0.000019596172
       5       -0.000002569975    -0.000000079043     0.000002164638
       6        0.000002214799     0.000000489340    -0.000006496626
       7       -0.000014247131    -0.000054015831     0.000010317166
       8       -0.000009637444    -0.000001736003    -0.000017498626
       9        0.000008400300    -0.000003957160     0.000019554906
      10        0.000002656053     0.000059881877    -0.000015589006
      11       -0.000017393099    -0.000029207873     0.000005412743
      12       -0.000004823355    -0.000036079358     0.000014171722
      13        0.000018487178     0.000033007861     0.000031612741
      14       -0.000020361553     0.000004451472     0.000002603736
      15        0.000029120206     0.000006218157    -0.000021817558
      16       -0.000419105757    -0.000573185017    -0.001188724637
      17        0.000012811573    -0.000016606775    -0.000000494331
      18        0.000008372648     0.000012908662     0.000029907766
      19       -0.000377290261    -0.000481582413    -0.001037585612
      20        0.000431921234     0.000621135801     0.001250656453
      21        0.000010718940    -0.000028496877    -0.000014380791
      22        0.000341821971     0.000448395277     0.000918175711
      23       -0.000014212942     0.000000453705     0.000004928134
      24        0.000019004324     0.000003185632    -0.000001115350
      25        0.000015848395     0.000004747327     0.000004745453
      26       -0.000002794223    -0.000009268769    -0.000012571172
      27       -0.000018214415    -0.000008428138     0.000013323523

  **** Optimization is complete! (in 7 steps) ****
    Final optimized geometry and variables:
    Molecular point group: c1

    Geometry (in Angstrom), charge = 0, multiplicity = 1:

    H            1.454650233683    -0.523849639652    -2.975992769023
    O            2.394334059365    -0.569190848021    -2.875890410156
    C            2.839010388362     0.506567072061    -2.089145980084
    C            2.486048283864     0.358142104038    -0.613294455040
    H            3.914706671075     0.532034775941    -2.206889642276
    H            2.449314676925     1.447796858461    -2.475160718766
    C            0.981880231678     0.358291943960    -0.330094546758
    H            2.926806031938    -0.564343328129    -0.244366659595
    H            2.956684132868     1.174767003627    -0.068331878918
    C            0.661336160788     0.264766592345     1.164304666055
    H            0.519639632468    -0.474690273635    -0.852579615908
    H            0.537352852124     1.267780749512    -0.734561421437
    C           -0.829990654464     0.358125941636     1.507944200913
    H            1.064694667870    -0.665993204990     1.559017578285
    H            1.184905077453     1.065761619832     1.682057849754
    C           -1.675022927611    -0.808842949824     0.983732761870
    H           -0.928883783742     0.399728253411     2.591224046242
    H           -1.219965197459     1.300551876111     1.131363920308
    C           -3.109912722303    -0.841805478966     1.523703490387
    H           -1.183404061329    -1.738479870796     1.264404659919
    H           -1.705826832115    -0.788993662525    -0.102982795803
    C           -3.940215199461     0.404184891735     1.210051313145
    H           -3.612677980115    -1.714330341811     1.113956713197
    H           -3.080941989563    -0.987191380491     2.601770892661
    H           -3.959795753345     0.604625715334     0.141800850175
    H           -4.966694346260     0.274579155215     1.538947751502
    H           -3.549007561492     1.286405793486     1.705166503497

  Mulliken Charges: (a.u.)
   Center  Symbol    Alpha    Beta     Spin     Total
       1     H     0.27992  0.27992  0.00000  0.44016
       2     O     4.37094  4.37094  0.00000 -0.74188
       3     C     2.99737  2.99737  0.00000  0.00527
       4     C     3.16094  3.16094  0.00000 -0.32188
       5     H     0.41445  0.41445  0.00000  0.17109
       6     H     0.43205  0.43205  0.00000  0.13590
       7     C     3.16342  3.16342  0.00000 -0.32684
       8     H     0.41497  0.41497  0.00000  0.17007
       9     H     0.42434  0.42434  0.00000  0.15131
      10     C     3.15195  3.15195  0.00000 -0.30390
      11     H     0.42258  0.42258  0.00000  0.15485
      12     H     0.42552  0.42552  0.00000  0.14895
      13     C     3.15567  3.15567  0.00000 -0.31135
      14     H     0.42176  0.42176  0.00000  0.15647
      15     H     0.42160  0.42160  0.00000  0.15679
      16     C     3.15366  3.15366  0.00000 -0.30732
      17     H     0.42181  0.42181  0.00000  0.15638
      18     H     0.42184  0.42184  0.00000  0.15632
      19     C     3.15196  3.15196  0.00000 -0.30392
      20     H     0.42200  0.42200  0.00000  0.15600
      21     H     0.42401  0.42401  0.00000  0.15197
      22     C     3.24168  3.24168  0.00000 -0.48337
      23     H     0.42086  0.42086  0.00000  0.15829
      24     H     0.42319  0.42319  0.00000  0.15361
      25     H     0.42313  0.42313  0.00000  0.15375
      26     H     0.41898  0.41898  0.00000  0.16204
      27     H     0.41938  0.41938  0.00000  0.16123

   Total alpha = 37.00000, Total beta = 37.00000, Total charge =  0.00000
