  ==> Input File <==

--------------------------------------------------------------------------
set {
	reference rhf
	basis 6-31G*
}

set_num_threads( 1 )
memory 2 gb

molecule MOL {
0 1

H	 0.137158	 4.200306	 -0.600927
O	 -0.216921	 3.573389	 -1.215737
C	 -0.188298	 2.290154	 -0.650515
C	 1.222213	 1.728281	 -0.629939
H	 -0.598263	 2.285687	 0.355599
H	 -0.817922	 1.662181	 -1.265066
O	 1.171513	 0.459272	 -0.058250
H	 1.877890	 2.383072	 -0.052603
H	 1.613970	 1.687325	 -1.644549
C	 2.397842	 -0.198080	 -0.002151
H	 2.508049	 -0.905315	 -0.822092
H	 3.173794	 0.550865	 -0.078850
H	 2.517602	 -0.735921	 0.936026

	symmetry c1
}
set optking {
	frozen_dihedral = ("
		8 4 3 5,
		1 2 3 5,
		10 7 4 8
	")
}

ee = energy('scf')
oeprop('DIPOLE', 'QUADRUPOLE', 'MULLIKEN_CHARGES')
f=open( 'psi4out.xyz', 'w' )
f.write( "13  " )
f.write( str(ee) + "\n" )
f.write( MOL.save_string_xyz() )
f.close()
--------------------------------------------------------------------------

    Molecular point group: c1

    Geometry (in Angstrom), charge = 0, multiplicity = 1:

       Center              X                  Y                   Z               Mass
    ------------   -----------------  -----------------  -----------------  -----------------
           H         -0.743069711195     2.601913841950    -0.088571771289     1.007825032070
           O         -1.097148711195     1.974996841950    -0.703381771289    15.994914619560
           C         -1.068525711195     0.691761841950    -0.138159771289    12.000000000000
           C          0.341985288805     0.129888841950    -0.117583771289    12.000000000000
           H         -1.478490711195     0.687294841950     0.867954228711     1.007825032070
           H         -1.698149711195     0.063788841950    -0.752710771289     1.007825032070
           O          0.291285288805    -1.139120158050     0.454105228711    15.994914619560
           H          0.997662288805     0.784679841950     0.459752228711     1.007825032070
           H          0.733742288805     0.088932841950    -1.132193771289     1.007825032070
           C          1.517614288805    -1.796472158050     0.510204228711    12.000000000000
           H          1.627821288805    -2.503707158050    -0.309736771289     1.007825032070
           H          2.293566288805    -1.047527158050     0.433505228711     1.007825032070
           H          1.637374288805    -2.334313158050     1.448381228711     1.007825032070

  Charge       = 0
  Multiplicity = 1
  Basis Set: 6-31G*
  Basis Set:

    Orbital Energies (a.u.)
    -----------------------

    Doubly Occupied:

       1A    -20.560262     2A    -20.559621     3A    -11.271842
       4A    -11.269960     5A    -11.268963     6A     -1.388105
       7A     -1.365235     8A     -1.017884     9A     -0.913140
      10A     -0.843633    11A     -0.709144    12A     -0.673119
      13A     -0.659718    14A     -0.637820    15A     -0.596965
      16A     -0.567867    17A     -0.549252    18A     -0.488017
      19A     -0.482285    20A     -0.438817    21A     -0.418232

  @DF-RHF Final Energy:  -267.94659775322447

   => Energetics <=

    Nuclear Repulsion Energy =            190.3331565723194103
    One-Electron Energy =                -743.1997447218810748
    Two-Electron Energy =                 284.9199903963371412
    DFT Exchange-Correlation Energy =       0.0000000000000000
    Empirical Dispersion Energy =           0.0000000000000000
    PCM Polarization Energy =               0.0000000000000000
    EFP Energy =                            0.0000000000000000
    Total Energy =                       -267.9465977532245802

  Mulliken Charges: (a.u.)
   Center  Symbol    Alpha    Beta     Spin     Total
       1     H     0.28130  0.28130  0.00000  0.43740
       2     O     4.37077  4.37077  0.00000 -0.74154
       3     C     3.00483  3.00483  0.00000 -0.00965
       4     C     2.99862  2.99862  0.00000  0.00276
       5     H     0.42218  0.42218  0.00000  0.15564
       6     H     0.40826  0.40826  0.00000  0.18349
       7     O     4.30942  4.30942  0.00000 -0.61884
       8     H     0.43665  0.43665  0.00000  0.12670
       9     H     0.42291  0.42291  0.00000  0.15418
      10     C     3.07628  3.07628  0.00000 -0.15255
      11     H     0.42302  0.42302  0.00000  0.15397
      12     H     0.42980  0.42980  0.00000  0.14041
      13     H     0.41598  0.41598  0.00000  0.16804

   Total alpha = 21.00000, Total beta = 21.00000, Total charge =  0.00000
