                              Psi4 1.0.54 Driver

  ==> Input File <==

--------------------------------------------------------------------------
set {
	reference rhf
	basis cc-pvtz
}

set_num_threads( 4 )
memory 2 gb

molecule MOL {
0 1

H	 -4.024094	 -0.454727	 0.000004
C	 -2.962215	 -0.297920	 0.000004
C	 -2.454736	 0.988978	 0.000025
C	 -2.105837	 -1.382632	 -0.000016
H	 -3.120052	 1.830438	 0.000041
C	 -1.090106	 1.189676	 0.000026
H	 -2.500390	 -2.380229	 -0.000033
C	 -0.739175	 -1.183302	 -0.000016
H	 -0.680214	 2.179144	 0.000042
C	 -0.227341	 0.104540	 0.000006
H	 -0.073209	 -2.021168	 -0.000032
C	 1.238974	 0.374429	 0.000004
O	 1.748555	 0.468203	 1.213890
O	 1.887504	 0.493775	 -0.985057
C	 3.135794	 0.723579	 1.313460
H	 3.701878	 -0.066682	 0.843980
H	 3.354050	 0.763596	 2.368141
H	 3.383312	 1.663764	 0.844221

	symmetry c1
}
set optking {
	frozen_dihedral = ("
		13 12 10 6
	")
}

ee,wfn = optimize('scf', return_wfn=True)
oeprop( wfn, 'DIPOLE', 'QUADRUPOLE', 'MULLIKEN_CHARGES')
f=open( 'psi4out.xyz', 'w' )
f.write( "18  " )
f.write( str(ee) + "\n" )
f.write( MOL.save_string_xyz() )
f.close()
--------------------------------------------------------------------------

    Molecular point group: c1
  Charge       = 0
  Multiplicity = 1
  Basis Set: CC-PVTZ
  Basis Set:
  @DF-RHF Final Energy:  -457.49859047384365
    Total Energy =                       -457.4985904738441604
    Molecular point group: c1
  Basis Set: CC-PVTZ
  Basis Set:
  Basis Set: CC-PVTZ
  Basis Set:
  @DF-RHF Final Energy:  -457.49863397296878
    Total Energy =                       -457.4986339729688325
  Basis Set: CC-PVTZ
  Basis Set:
  Basis Set: CC-PVTZ
  Basis Set:
  @DF-RHF Final Energy:  -457.49842401692428
    Total Energy =                       -457.4984240169237637
  Basis Set: CC-PVTZ
  Basis Set:
  Basis Set: CC-PVTZ
  Basis Set:
  @DF-RHF Final Energy:  -457.49901592102657
    Total Energy =                       -457.4990159210269667
  Basis Set: CC-PVTZ
  Basis Set:
  Basis Set: CC-PVTZ
  Basis Set:
  @DF-RHF Final Energy:  -457.49902433487000
    Total Energy =                       -457.4990243348700005
  Basis Set: CC-PVTZ
  Basis Set:
  Charge       = 0
  Multiplicity = 1
  Basis Set: CC-PVTZ
  Basis Set:

    Orbital Energies (a.u.)
    -----------------------

    Doubly Occupied:

       1A    -20.604356     2A    -20.541659     3A    -11.375179
       4A    -11.282706     5A    -11.250952     6A    -11.241482
       7A    -11.241383     8A    -11.238407     9A    -11.237843
      10A    -11.236410    11A     -1.480556    12A     -1.373396
      13A     -1.171624    14A     -1.052325    15A     -1.029496
      16A     -0.982843    17A     -0.862525    18A     -0.842177
      19A     -0.784259    20A     -0.742571    21A     -0.688752
      22A     -0.685313    23A     -0.682753    24A     -0.636428
      25A     -0.632048    26A     -0.600089    27A     -0.594809
      28A     -0.551583    29A     -0.540106    30A     -0.522695
      31A     -0.512305    32A     -0.504808    33A     -0.465695
      34A     -0.449822    35A     -0.347569    36A     -0.346913

  @DF-RHF Final Energy:  -457.49902505155910

   => Energetics <=

    Nuclear Repulsion Energy =            492.5156353861864318
    One-Electron Energy =               -1599.3616471209745669
    Two-Electron Energy =                 649.3469866832290336
    DFT Exchange-Correlation Energy =       0.0000000000000000
    Empirical Dispersion Energy =           0.0000000000000000
    PCM Polarization Energy =               0.0000000000000000
    EFP Energy =                            0.0000000000000000
    Total Energy =                       -457.4990250515591015
    Molecular point group: c1
  Basis Set: CC-PVTZ
  Basis Set:

  -Total Gradient:
     Atom            X                  Y                   Z
    ------   -----------------  -----------------  -----------------
       1       -0.000000022462     0.000006989814    -0.000003557001
       2        0.000016324712    -0.000131561535     0.000003483428
       3        0.000094458307     0.000079743324     0.000008447279
       4       -0.000147815468     0.000038040383     0.000001720722
       5       -0.000005368658    -0.000002409318    -0.000000146927
       6       -0.000102790863     0.000054190001    -0.000157865500
       7        0.000006353055    -0.000001290884     0.000001905670
       8        0.000121823488     0.000098168034    -0.000010880156
       9       -0.000003812707    -0.000017754570     0.000001055889
      10        0.000006664725    -0.000207724294     0.000195683630
      11       -0.000014281979     0.000000044382     0.000002450715
      12        0.000047891797     0.000273601606    -0.000005950766
      13       -0.000026609138    -0.000170802317    -0.000152469532
      14       -0.000034484846    -0.000027292488     0.000094798780
      15        0.000051248146     0.000016486420     0.000036134966
      16       -0.000008364725    -0.000008727053    -0.000006802735
      17        0.000010779609     0.000001187674    -0.000004364402
      18       -0.000011992989    -0.000000889178    -0.000003644063

  **** Optimization is complete! (in 6 steps) ****
    Final optimized geometry and variables:
    Molecular point group: c1

    Geometry (in Angstrom), charge = 0, multiplicity = 1:

    H           -3.991139279912    -0.653157724871    -0.182867968631
    C           -2.932114353969    -0.480476526593    -0.175574723591
    C           -2.441569868175     0.811547497831    -0.174397609066
    C           -2.056566350985    -1.549270532965    -0.169538691661
    H           -3.118134223103     1.644328035327    -0.181538693619
    C           -1.078542518471     1.035548874271    -0.165753577501
    H           -2.433109732587    -2.554013681112    -0.172719648251
    C           -0.692648382519    -1.328311267074    -0.161546687790
    H           -0.699384137907     2.039615933644    -0.168067135639
    C           -0.204146256769    -0.035353180465    -0.159303276137
    H           -0.014099308638    -2.159869091737    -0.161355914917
    C            1.275831656023     0.205774156550    -0.180106024228
    O            1.779866235790     0.304457872813     1.033995428360
    O            1.920139024196     0.295909886027    -1.167234900755
    C            3.172992012122     0.533055240111     1.139511248248
    H            3.725661692521    -0.274604202269     0.683379410586
    H            3.385104228614     0.582360504096     2.194806972672
    H            3.442672777953     1.461662568846     0.659130224068

  Mulliken Charges: (a.u.)
   Center  Symbol    Alpha    Beta     Spin     Total
       1     H     0.42160  0.42160  0.00000  0.15680
       2     C     3.08491  3.08491  0.00000 -0.16982
       3     C     3.06506  3.06506  0.00000 -0.13013
       4     C     3.06508  3.06508  0.00000 -0.13017
       5     H     0.42179  0.42179  0.00000  0.15642
       6     C     3.09175  3.09175  0.00000 -0.18349
       7     H     0.42178  0.42178  0.00000  0.15644
       8     C     3.09175  3.09175  0.00000 -0.18350
       9     H     0.42434  0.42434  0.00000  0.15132
      10     C     2.91417  2.91417  0.00000  0.17166
      11     H     0.42421  0.42421  0.00000  0.15159
      12     C     2.84664  2.84664  0.00000  0.30672
      13     O     4.14313  4.14313  0.00000 -0.28625
      14     O     4.19630  4.19630  0.00000 -0.39259
      15     C     3.03738  3.03738  0.00000 -0.07475
      16     H     0.45357  0.45357  0.00000  0.09287
      17     H     0.44294  0.44294  0.00000  0.11413
      18     H     0.45363  0.45363  0.00000  0.09274

   Total alpha = 36.00000, Total beta = 36.00000, Total charge =  0.00000

*** Psi4 exiting successfully. Buy a developer a beer!
