  ==> Input File <==

--------------------------------------------------------------------------
set {
	reference rhf
	basis cc-pvtz
}

set_num_threads( 4 )
memory 2 gb

molecule MOL {
0 1

H	 1.098346	 1.848098	 0.285791
C	 1.555244	 0.871819	 0.170532
N	 0.526300	 -0.128137	 0.000000
H	 2.121680	 0.666190	 1.069924
H	 2.253345	 0.930139	 -0.667218
C	 -0.247113	 0.037112	 -1.209233
H	 0.930263	 -1.039138	 0.023434
H	 -0.996493	 -0.743733	 -1.271440
H	 0.397975	 -0.057351	 -2.073512
H	 -0.763794	 0.997171	 -1.271673

	symmetry c1
}
set optking {
	frozen_dihedral = ("
		2 3 6 8
	")
}

ee = optimize('scf')
oeprop('DIPOLE', 'QUADRUPOLE', 'MULLIKEN_CHARGES')
f=open( 'psi4out.xyz', 'w' )
f.write( "10  " )
f.write( str(ee) + "\n" )
f.write( MOL.save_string_xyz() )
f.close()
--------------------------------------------------------------------------

    Molecular point group: c1
  Charge       = 0
  Multiplicity = 1
  Basis Set: CC-PVTZ
  Basis Set:
  @DF-RHF Final Energy:  -134.29179192942826
    Total Energy =                       -134.2917919294283138
    Molecular point group: c1
  Basis Set: CC-PVTZ
  Basis Set:
  Basis Set: CC-PVTZ
  Basis Set:
  @DF-RHF Final Energy:  -134.29292289472164
    Total Energy =                       -134.2929228947216416
  Basis Set: CC-PVTZ
  Basis Set:
  Basis Set: CC-PVTZ
  Basis Set:
  @DF-RHF Final Energy:  -134.29306630992994
    Total Energy =                       -134.2930663099299409
  Basis Set: CC-PVTZ
  Basis Set:
  Charge       = 0
  Multiplicity = 1
  Basis Set: CC-PVTZ
  Basis Set:

    Orbital Energies (a.u.)
    -----------------------

    Doubly Occupied:

       1A    -15.532451     2A    -11.234289     3A    -11.234230
       4A     -1.200982     5A     -0.948248     6A     -0.854820
       7A     -0.662825     8A     -0.613236     9A     -0.592449
      10A     -0.539126    11A     -0.511065    12A     -0.507371
      13A     -0.364079

  @DF-RHF Final Energy:  -134.29306755297165

   => Energetics <=

    Nuclear Repulsion Energy =             84.7553281456923884
    One-Electron Energy =                -348.5064497368601337
    Two-Electron Energy =                 129.4580540381959963
    DFT Exchange-Correlation Energy =       0.0000000000000000
    Empirical Dispersion Energy =           0.0000000000000000
    PCM Polarization Energy =               0.0000000000000000
    EFP Energy =                            0.0000000000000000
    Total Energy =                       -134.2930675529717632
    Molecular point group: c1
  Basis Set: CC-PVTZ
  Basis Set:

  -Total Gradient:
     Atom            X                  Y                   Z
    ------   -----------------  -----------------  -----------------
       1        0.000000768245    -0.000001219081    -0.000001516666
       2       -0.000204796435     0.000262313039     0.000096299195
       3        0.000152479427    -0.000238743289    -0.000130065366
       4       -0.000008136885    -0.000014224372     0.000005735559
       5       -0.000010631995    -0.000008110971     0.000012212879
       6        0.000294360121    -0.000257071417    -0.000283650111
       7       -0.000019563871    -0.000002679006    -0.000051346277
       8       -0.000256636312     0.000257738493     0.000265012343
       9        0.000029640134    -0.000004561742     0.000027219886
      10        0.000022517570     0.000006558347     0.000060098559

  **** Optimization is complete! (in 4 steps) ****
    Final optimized geometry and variables:
    Molecular point group: c1

    Geometry (in Angstrom), charge = 0, multiplicity = 1:

    H            0.476123221787     1.594793880160     0.626743347718
    C            0.928326236465     0.613951855731     0.534669337641
    N           -0.104748862483    -0.382510595335     0.368771409658
    H            1.481722290942     0.420588164034     1.444844535603
    H            1.637945529296     0.653136671204    -0.294500328843
    C           -0.860711003294    -0.235203558208    -0.853547053481
    H            0.291308822896    -1.296031886568     0.416439745850
    H           -1.614530575363    -1.009822377546    -0.914899233266
    H           -0.248782112020    -0.277516740456    -1.756917867592
    H           -1.373452789756     0.719897389260    -0.848727000645

  Mulliken Charges: (a.u.)
   Center  Symbol    Alpha    Beta     Spin     Total
       1     H     0.45694  0.45694  0.00000  0.08612
       2     C     3.08084  3.08084  0.00000 -0.16167
       3     N     3.62885  3.62885  0.00000 -0.25770
       4     H     0.45242  0.45242  0.00000  0.09517
       5     H     0.47519  0.47519  0.00000  0.04962
       6     C     3.08129  3.08129  0.00000 -0.16258
       7     H     0.44053  0.44053  0.00000  0.11895
       8     H     0.45220  0.45220  0.00000  0.09560
       9     H     0.47450  0.47450  0.00000  0.05100
      10     H     0.45726  0.45726  0.00000  0.08548

   Total alpha = 13.00000, Total beta = 13.00000, Total charge = -0.00000
