  ==> Input File <==

--------------------------------------------------------------------------
set {
	reference rhf
	basis cc-pvtz
}

set_num_threads( 4 )
memory 2 gb

molecule MOL {
0 1

H	 -2.498963	 -0.741158	 -0.729149
O	 -2.346257	 -0.289210	 0.080372
C	 -1.183935	 0.486039	 -0.009831
C	 0.062853	 -0.375310	 0.027457
H	 -1.178881	 1.094526	 -0.908634
H	 -1.184406	 1.155156	 0.838676
O	 0.390825	 -0.611810	 1.357100
H	 0.881887	 0.133138	 -0.483972
H	 -0.123434	 -1.307534	 -0.501534
C	 1.505390	 -1.420564	 1.543873
H	 2.396489	 -0.976645	 1.105519
H	 1.659232	 -1.531878	 2.607183
H	 1.359915	 -2.404960	 1.105329

	symmetry c1
}
set optking {
	frozen_dihedral = ("
		8 4 3 5
	")
}

ee = optimize('scf')
oeprop('DIPOLE', 'QUADRUPOLE', 'MULLIKEN_CHARGES')
f=open( 'psi4out.xyz', 'w' )
f.write( "13  " )
f.write( str(ee) + "\n" )
f.write( MOL.save_string_xyz() )
f.close()
--------------------------------------------------------------------------

    Molecular point group: c1
  Charge       = 0
  Multiplicity = 1
  Basis Set: CC-PVTZ
  Basis Set:
  @DF-RHF Final Energy:  -268.05854162806764
    Total Energy =                       -268.0585416280677009
    Molecular point group: c1
  Basis Set: CC-PVTZ
  Basis Set:
  Basis Set: CC-PVTZ
  Basis Set:
  @DF-RHF Final Energy:  -268.05899319196556
    Total Energy =                       -268.0589931919656124
  Basis Set: CC-PVTZ
  Basis Set:
  Basis Set: CC-PVTZ
  Basis Set:
  @DF-RHF Final Energy:  -268.05914643864122
    Total Energy =                       -268.0591464386411644
  Basis Set: CC-PVTZ
  Basis Set:
  Basis Set: CC-PVTZ
  Basis Set:
  @DF-RHF Final Energy:  -268.05916337192048
    Total Energy =                       -268.0591633719203628
  Basis Set: CC-PVTZ
  Basis Set:
  Basis Set: CC-PVTZ
  Basis Set:
  @DF-RHF Final Energy:  -268.05916612796113
    Total Energy =                       -268.0591661279610776
  Basis Set: CC-PVTZ
  Basis Set:
  Charge       = 0
  Multiplicity = 1
  Basis Set: CC-PVTZ
  Basis Set:

    Orbital Energies (a.u.)
    -----------------------

    Doubly Occupied:

       1A    -20.553207     2A    -20.548501     3A    -11.271742
       4A    -11.268431     5A    -11.265700     6A     -1.391245
       7A     -1.364881     8A     -1.020033     9A     -0.916396
      10A     -0.842713    11A     -0.701716    12A     -0.678553
      13A     -0.663813    14A     -0.636796    15A     -0.602945
      16A     -0.567612    17A     -0.536435    18A     -0.501132
      19A     -0.477113    20A     -0.440243    21A     -0.422190

  @DF-RHF Final Energy:  -268.05916624082533

   => Energetics <=

    Nuclear Repulsion Energy =            192.3434668171339297
    One-Electron Energy =                -747.4624755184415790
    Two-Electron Energy =                 287.0598424604823435
    DFT Exchange-Correlation Energy =       0.0000000000000000
    Empirical Dispersion Energy =           0.0000000000000000
    PCM Polarization Energy =               0.0000000000000000
    EFP Energy =                            0.0000000000000000
    Total Energy =                       -268.0591662408252773
    Molecular point group: c1
  Basis Set: CC-PVTZ
  Basis Set:

  -Total Gradient:
     Atom            X                  Y                   Z
    ------   -----------------  -----------------  -----------------
       1        0.000004309838     0.000007313861     0.000001999430
       2        0.000044043564     0.000024502317     0.000000961894
       3       -0.002301622976    -0.003741865722    -0.002944450387
       4        0.001485942351     0.002623502176     0.004303476396
       5        0.001653503559     0.002690411713     0.001765043371
       6       -0.000007365880     0.000004134083    -0.000000137475
       7        0.000019004048    -0.000004183615    -0.000012021936
       8       -0.000885893295    -0.001618743565    -0.003108476619
       9       -0.000000853782     0.000004662740    -0.000015935168
      10       -0.000009365772     0.000005492147     0.000012942978
      11       -0.000001187376     0.000001257717    -0.000002118941
      12        0.000003328924    -0.000001110466     0.000001876994
      13       -0.000003843205     0.000004626614    -0.000003160539

  **** Optimization is complete! (in 6 steps) ****
    Final optimized geometry and variables:
    Molecular point group: c1

    Geometry (in Angstrom), charge = 0, multiplicity = 1:

    H           -2.135053474483    -0.368684501191    -1.254668671608
    O           -2.031597943020     0.189460681066    -0.505816273574
    C           -0.855646132836     0.935243385080    -0.619334794282
    C            0.410968667245     0.103824021080    -0.546641845497
    H           -0.843563230058     1.529142045475    -1.530149373951
    H           -0.853394419628     1.629322252610     0.209396470974
    O            0.733223965260    -0.161103383686     0.776846852298
    H            1.222341110357     0.628141162224    -1.052033749946
    H            0.260367936832    -0.828811095996    -1.093740117992
    C            1.835361101057    -0.988919839623     0.947749440982
    H            2.731899429355    -0.555344234285     0.509127567813
    H            1.992947117535    -1.114142694284     2.008855102326
    H            1.671960963199    -1.966772306026     0.500154676187

  Mulliken Charges: (a.u.)
   Center  Symbol    Alpha    Beta     Spin     Total
       1     H     0.39647  0.39647  0.00000  0.20706
       2     O     4.19789  4.19789  0.00000 -0.39578
       3     C     2.96499  2.96499  0.00000  0.07001
       4     C     2.96251  2.96251  0.00000  0.07498
       5     H     0.47312  0.47312  0.00000  0.05376
       6     H     0.45477  0.45477  0.00000  0.09045
       7     O     4.16873  4.16873  0.00000 -0.33746
       8     H     0.47702  0.47702  0.00000  0.04595
       9     H     0.48477  0.48477  0.00000  0.03046
      10     C     3.03067  3.03067  0.00000 -0.06134
      11     H     0.47244  0.47244  0.00000  0.05511
      12     H     0.44548  0.44548  0.00000  0.10903
      13     H     0.47112  0.47112  0.00000  0.05776

   Total alpha = 21.00000, Total beta = 21.00000, Total charge = -0.00000
