                              Psi4 1.0.54 Driver

  ==> Input File <==

--------------------------------------------------------------------------
set {
	reference rhf
	basis cc-pvtz
}

set_num_threads( 4 )
memory 2 gb

molecule MOL {
0 1

H	 -2.580715	 -1.041876	 0.034447
O	 -2.313989	 -0.142475	 -0.025864
C	 -0.943808	 -0.065018	 -0.330000
H	 -0.812293	 -0.225641	 -1.398673
C	 -0.231030	 -1.182113	 0.407592
C	 -0.353797	 1.300461	 0.050970
H	 -0.312800	 -0.992012	 1.473041
H	 -0.738841	 -2.119564	 0.220514
C	 1.246176	 -1.268044	 -0.015480
H	 -0.539537	 2.008579	 -0.751815
H	 -0.889989	 1.662858	 0.920677
C	 1.153605	 1.231851	 0.356834
H	 1.823096	 -1.684665	 0.802361
H	 1.352335	 -1.958223	 -0.845114
C	 1.826409	 0.100723	 -0.416008
H	 1.622968	 2.181508	 0.128734
H	 1.301983	 1.066493	 1.419367
H	 2.897299	 0.112407	 -0.249665
H	 1.683458	 0.265621	 -1.480024

	symmetry c1
}
set optking {
	frozen_dihedral = ("
		1 2 3 4
	")
}

ee,wfn = optimize('scf', return_wfn=True)
oeprop( wfn, 'DIPOLE', 'QUADRUPOLE', 'MULLIKEN_CHARGES')
f=open( 'psi4out.xyz', 'w' )
f.write( "19  " )
f.write( str(ee) + "\n" )
f.write( MOL.save_string_xyz() )
f.close()
--------------------------------------------------------------------------

    Molecular point group: c1
  Charge       = 0
  Multiplicity = 1
  Basis Set: CC-PVTZ
  Basis Set:
  @DF-RHF Final Energy:  -309.16118243137106
    Total Energy =                       -309.1611824313711736
    Molecular point group: c1
  Basis Set: CC-PVTZ
  Basis Set:
  Basis Set: CC-PVTZ
  Basis Set:
  @DF-RHF Final Energy:  -309.16284126280988
    Total Energy =                       -309.1628412628100477
  Basis Set: CC-PVTZ
  Basis Set:
  Basis Set: CC-PVTZ
  Basis Set:
  @DF-RHF Final Energy:  -309.16314679566403
    Total Energy =                       -309.1631467956636925
  Basis Set: CC-PVTZ
  Basis Set:
  Basis Set: CC-PVTZ
  Basis Set:
  @DF-RHF Final Energy:  -309.16315363280160
    Total Energy =                       -309.1631536328013681
  Basis Set: CC-PVTZ
  Basis Set:
  Charge       = 0
  Multiplicity = 1
  Basis Set: CC-PVTZ
  Basis Set:

    Orbital Energies (a.u.)
    -----------------------

    Doubly Occupied:

       1A    -20.542577     2A    -11.267236     3A    -11.217653
       4A    -11.215341     5A    -11.214311     6A    -11.212862
       7A    -11.206738     8A     -1.362878     9A     -1.111003
      10A     -1.004504    11A     -0.989785    12A     -0.851288
      13A     -0.832122    14A     -0.737306    15A     -0.700093
      16A     -0.660417    17A     -0.619315    18A     -0.612614
      19A     -0.573168    20A     -0.547973    21A     -0.530308
      22A     -0.521644    23A     -0.499526    24A     -0.488190
      25A     -0.468081    26A     -0.449402    27A     -0.427698
      28A     -0.415403

  @DF-RHF Final Energy:  -309.16315444376926

   => Energetics <=

    Nuclear Repulsion Energy =            332.0647844861732665
    One-Electron Energy =               -1077.8970024118721085
    Two-Electron Energy =                 436.6690634819294701
    DFT Exchange-Correlation Energy =       0.0000000000000000
    Empirical Dispersion Energy =           0.0000000000000000
    PCM Polarization Energy =               0.0000000000000000
    EFP Energy =                            0.0000000000000000
    Total Energy =                       -309.1631544437693719
    Molecular point group: c1
  Basis Set: CC-PVTZ
  Basis Set:

  -Total Gradient:
     Atom            X                  Y                   Z
    ------   -----------------  -----------------  -----------------
       1        0.000402791180    -0.000069587228     0.001910750099
       2       -0.000487371634     0.000478039457    -0.002405306153
       3        0.000165756882    -0.002066415002     0.000755616142
       4       -0.000019889634     0.001659789438    -0.000217753123
       5       -0.000067063144     0.000033369552    -0.000046868713
       6       -0.000005218814     0.000013846670    -0.000009211527
       7        0.000013458476    -0.000008338182    -0.000004500147
       8        0.000012268804     0.000002632063    -0.000000511339
       9        0.000033276589     0.000005422474     0.000010083833
      10        0.000004587508     0.000005991938    -0.000001904561
      11       -0.000008269109    -0.000019871862    -0.000001397976
      12        0.000008898826     0.000013038783    -0.000009679473
      13        0.000018123967    -0.000008004551     0.000015189604
      14       -0.000007137112    -0.000002006618     0.000013364081
      15       -0.000035887024    -0.000021840193    -0.000006707039
      16       -0.000018136090     0.000003470069     0.000001852372
      17       -0.000006779434    -0.000000380422     0.000004439315
      18       -0.000003548236    -0.000030873850    -0.000004944794
      19        0.000000137992     0.000011717466    -0.000002510601

  **** Optimization is complete! (in 5 steps) ****
    Final optimized geometry and variables:
    Molecular point group: c1

    Geometry (in Angstrom), charge = 0, multiplicity = 1:

    H           -2.662908311433    -0.917888658871    -0.000556585630
    O           -2.321469926079    -0.043254151950    -0.038874102424
    C           -0.945754042443    -0.073746240381    -0.327304332640
    H           -0.819031045901    -0.222793436086    -1.398140598562
    C           -0.217088842897    -1.187512146238     0.407471354035
    C           -0.364499062559     1.293616331941     0.046165412381
    H           -0.291988874331    -1.000638937715     1.474230767406
    H           -0.706928991001    -2.139861284335     0.224524148621
    C            1.257580542341    -1.265320865172    -0.026529093145
    H           -0.555048859128     1.990095322738    -0.762379460093
    H           -0.908950185061     1.659678992299     0.907640226749
    C            1.141237045994     1.231430873781     0.356900085105
    H            1.841446394823    -1.685169106711     0.784662297632
    H            1.360139838493    -1.949361412284    -0.861565248195
    C            1.825687187074     0.110498071980    -0.420513771178
    H            1.604234075351     2.185548148620     0.134958609813
    H            1.289841696889     1.061809613049     1.419104971942
    H            2.896217656428     0.128925726559    -0.252825040059
    H            1.681733261772     0.278690010078    -1.483597890855

  Mulliken Charges: (a.u.)
   Center  Symbol    Alpha    Beta     Spin     Total
       1     H     0.39494  0.39494  0.00000  0.21013
       2     O     4.20337  4.20337  0.00000 -0.40675
       3     C     2.92627  2.92627  0.00000  0.14747
       4     H     0.46159  0.46159  0.00000  0.07683
       5     C     3.10636  3.10636  0.00000 -0.21271
       6     C     3.11131  3.11131  0.00000 -0.22263
       7     H     0.45150  0.45150  0.00000  0.09701
       8     H     0.45112  0.45112  0.00000  0.09775
       9     C     3.11406  3.11406  0.00000 -0.22812
      10     H     0.44647  0.44647  0.00000  0.10706
      11     H     0.44390  0.44390  0.00000  0.11220
      12     C     3.10114  3.10114  0.00000 -0.20228
      13     H     0.44687  0.44687  0.00000  0.10626
      14     H     0.44736  0.44736  0.00000  0.10528
      15     C     3.10184  3.10184  0.00000 -0.20368
      16     H     0.44178  0.44178  0.00000  0.11644
      17     H     0.45400  0.45400  0.00000  0.09200
      18     H     0.44282  0.44282  0.00000  0.11436
      19     H     0.45330  0.45330  0.00000  0.09339

   Total alpha = 28.00000, Total beta = 28.00000, Total charge = -0.00000

*** Psi4 exiting successfully. Buy a developer a beer!
