                              Psi4 1.0.54 Driver

  ==> Input File <==

--------------------------------------------------------------------------
set {
	reference rhf
	basis cc-pvtz
}

set_num_threads( 4 )
memory 2 gb

molecule MOL {
0 1

O	 -2.817697	 1.304178	 0.001046
C	 -2.664672	 0.129869	 0.003507
C	 -3.797908	 -0.860100	 -0.001145
O	 -1.481217	 -0.452708	 0.001092
H	 -4.408836	 -0.679689	 -0.875387
H	 -3.443486	 -1.878443	 -0.002770
H	 -4.412123	 -0.683688	 0.871605
C	 -0.332055	 0.384012	 -0.000250
C	 0.892252	 -0.506059	 -0.000295
H	 -0.360822	 1.020205	 -0.874146
H	 -0.359817	 1.021310	 0.872861
C	 2.188199	 0.299473	 -0.001416
H	 0.857046	 -1.152781	 -0.871031
H	 0.857910	 -1.151798	 0.871202
C	 3.437151	 -0.577593	 -0.000991
H	 2.209565	 0.950707	 -0.871712
H	 2.210062	 0.952234	 0.867721
C	 3.190647	 -1.968767	 -0.574470
H	 3.811185	 -0.667341	 1.014932
H	 4.220027	 -0.085874	 -0.571433
H	 2.436062	 -2.499414	 -0.003627
H	 4.095660	 -2.564792	 -0.559887
H	 2.847755	 -1.913420	 -1.602193

	symmetry c1
}
set optking {
	frozen_dihedral = ("
		19 15 12 16
	")
}

ee,wfn = optimize('scf', return_wfn=True)
oeprop( wfn, 'DIPOLE', 'QUADRUPOLE', 'MULLIKEN_CHARGES')
f=open( 'psi4out.xyz', 'w' )
f.write( "23  " )
f.write( str(ee) + "\n" )
f.write( MOL.save_string_xyz() )
f.close()
--------------------------------------------------------------------------

    Molecular point group: c1
  Charge       = 0
  Multiplicity = 1
  Basis Set: CC-PVTZ
  Basis Set:
  @DF-RHF Final Energy:  -423.12487689881948
    Total Energy =                       -423.1248768988195934
    Molecular point group: c1
  Basis Set: CC-PVTZ
  Basis Set:
  Basis Set: CC-PVTZ
  Basis Set:
  @DF-RHF Final Energy:  -422.99790196922402
    Total Energy =                       -422.9979019692233351
  Basis Set: CC-PVTZ
  Basis Set:
  Basis Set: CC-PVTZ
  Basis Set:
  @DF-RHF Final Energy:  -423.10178763965632
    Total Energy =                       -423.1017876396565498
  Basis Set: CC-PVTZ
  Basis Set:
  Basis Set: CC-PVTZ
  Basis Set:
  @DF-RHF Final Energy:  -423.12719879278478
    Total Energy =                       -423.1271987927846112
  Basis Set: CC-PVTZ
  Basis Set:
  @DF-RHF Final Energy:  -423.12797009596409
    Total Energy =                       -423.1279700959638603
  Basis Set: CC-PVTZ
  Basis Set:
  @DF-RHF Final Energy:  -423.12720399725043
    Total Energy =                       -423.1272039972503762
  Basis Set: CC-PVTZ
  Basis Set:
  Basis Set: CC-PVTZ
  Basis Set:
  @DF-RHF Final Energy:  -423.12829744626674
    Total Energy =                       -423.1282974462660604
  Basis Set: CC-PVTZ
  Basis Set:
  Basis Set: CC-PVTZ
  Basis Set:
  @DF-RHF Final Energy:  -423.12831569723596
    Total Energy =                       -423.1283156972364168
  Basis Set: CC-PVTZ
  Basis Set:
  Charge       = 0
  Multiplicity = 1
  Basis Set: CC-PVTZ
  Basis Set:

    Orbital Energies (a.u.)
    -----------------------

    Doubly Occupied:

       1A    -20.595808     2A    -20.529415     3A    -11.366311
       4A    -11.279289     5A    -11.230613     6A    -11.222190
       7A    -11.221512     8A    -11.219852     9A    -11.211242
      10A     -1.471057    11A     -1.363892    12A     -1.093539
      13A     -1.041067    14A     -1.002514    15A     -0.932397
      16A     -0.859383    17A     -0.790643    18A     -0.770297
      19A     -0.694227    20A     -0.687778    21A     -0.673268
      22A     -0.641517    23A     -0.610336    24A     -0.603179
      25A     -0.575636    26A     -0.568174    27A     -0.551809
      28A     -0.539494    29A     -0.528600    30A     -0.507881
      31A     -0.500410    32A     -0.472802    33A     -0.467671
      34A     -0.458214    35A     -0.455142    36A     -0.438874

  @DF-RHF Final Energy:  -423.12831655649507

   => Energetics <=

    Nuclear Repulsion Energy =            455.5500152686422553
    One-Electron Energy =               -1479.0045780219875269
    Two-Electron Energy =                 600.3262461968503203
    DFT Exchange-Correlation Energy =       0.0000000000000000
    Empirical Dispersion Energy =           0.0000000000000000
    PCM Polarization Energy =               0.0000000000000000
    EFP Energy =                            0.0000000000000000
    Total Energy =                       -423.1283165564949513
    Molecular point group: c1
  Basis Set: CC-PVTZ
  Basis Set:

  -Total Gradient:
     Atom            X                  Y                   Z
    ------   -----------------  -----------------  -----------------
       1       -0.000001915119    -0.000007977123     0.000034501582
       2        0.000025546803    -0.000056973263     0.000023359302
       3       -0.000022614844     0.000027674327     0.000026479755
       4       -0.000096583125     0.000069365015     0.000001353015
       5        0.000015445585    -0.000011382075     0.000001735551
       6        0.000002730403     0.000004534494    -0.000006383980
       7        0.000000217931     0.000001390845    -0.000036111187
       8        0.000025921143    -0.000061927922    -0.000087855318
       9        0.000024039775     0.000014111492     0.000006950767
      10        0.000018989925     0.000011439486     0.000016599393
      11       -0.000017296538    -0.000001213232     0.000017611076
      12       -0.001715982237    -0.005926005378    -0.002179949383
      13       -0.000009082894     0.000008060519    -0.000004679567
      14        0.000001481511    -0.000008789571     0.000006465713
      15       -0.002743553788    -0.004615902461     0.003708979748
      16        0.001909039617     0.005711387330     0.001248499741
      17        0.000001039492     0.000002156079    -0.000000274540
      18        0.000001308804     0.000000370807     0.000029727355
      19        0.002594145708     0.004821171222    -0.002803617626
      20        0.000004019693     0.000014212620     0.000006660340
      21        0.000017771681    -0.000002606363    -0.000008317695
      22       -0.000040200469     0.000005840884    -0.000007695038
      23        0.000005530939     0.000001062267     0.000005960994

  **** Optimization is complete! (in 9 steps) ****
    Final optimized geometry and variables:
    Molecular point group: c1

    Geometry (in Angstrom), charge = 0, multiplicity = 1:

    O           -2.836483530681     1.131513436691    -0.468276315283
    C           -2.553767306531     0.078905766505    -0.004992509991
    C           -3.570102397339    -0.941509616542     0.431489881254
    O           -1.313005471639    -0.325575724080     0.185824478053
    H           -4.204318487471    -1.178470332759    -0.412032861377
    H           -3.104746482100    -1.838583558869     0.807543378197
    H           -4.192993839187    -0.499782659130     1.197825669286
    C           -0.264130643143     0.557838387933    -0.188190530683
    C            1.051459965311    -0.122374522524     0.125684484211
    H           -0.352208323076     0.783403311372    -1.242172473642
    H           -0.373171835122     1.484815217010     0.357702196235
    C            2.238150802409     0.756347143623    -0.258019567334
    H            1.086343508452    -1.068637642649    -0.400600690189
    H            1.082672773853    -0.350797835270     1.186341640547
    C            3.634442482690     0.213690285394     0.105611922316
    H            2.208067015285     0.997806993536    -1.316629365079
    H            2.123503127337     1.717611396139     0.236458156763
    C            3.807762403366    -1.301074898315     0.073971120330
    H            3.935456628016     0.611193788503     1.069616718231
    H            4.342941838094     0.648906684341    -0.592933933257
    H            3.190549854470    -1.798692192168     0.811857132549
    H            4.838741551873    -1.564565002583     0.279010629668
    H            3.553499655137    -1.707535465436    -0.899322655475

  Mulliken Charges: (a.u.)
   Center  Symbol    Alpha    Beta     Spin     Total
       1     O     4.20238  4.20238  0.00000 -0.40477
       2     C     2.81552  2.81552  0.00000  0.36896
       3     C     3.13995  3.13995  0.00000 -0.27991
       4     O     4.14438  4.14438  0.00000 -0.28876
       5     H     0.44196  0.44196  0.00000  0.11609
       6     H     0.44192  0.44192  0.00000  0.11616
       7     H     0.44227  0.44227  0.00000  0.11546
       8     C     2.98043  2.98043  0.00000  0.03914
       9     C     3.08453  3.08453  0.00000 -0.16905
      10     H     0.45415  0.45415  0.00000  0.09170
      11     H     0.45320  0.45320  0.00000  0.09360
      12     C     3.10630  3.10630  0.00000 -0.21261
      13     H     0.44765  0.44765  0.00000  0.10470
      14     H     0.44935  0.44935  0.00000  0.10130
      15     C     3.08815  3.08815  0.00000 -0.17630
      16     H     0.44974  0.44974  0.00000  0.10051
      17     H     0.45082  0.45082  0.00000  0.09836
      18     C     3.15716  3.15716  0.00000 -0.31432
      19     H     0.45098  0.45098  0.00000  0.09805
      20     H     0.45073  0.45073  0.00000  0.09854
      21     H     0.45151  0.45151  0.00000  0.09697
      22     H     0.44411  0.44411  0.00000  0.11177
      23     H     0.45280  0.45280  0.00000  0.09439

   Total alpha = 36.00000, Total beta = 36.00000, Total charge = -0.00000

*** Psi4 exiting successfully. Buy a developer a beer!
