  ==> Input File <==

--------------------------------------------------------------------------
set {
	reference rhf
	basis 6-31G*
}

set_num_threads( 4 )
memory 2 gb

molecule MOL {
0 1

H	 -3.420663	 1.227371	 -1.044276
O	 -3.452007	 0.283848	 -0.965577
C	 -3.181085	 -0.079926	 0.364119
C	 -1.765924	 0.277073	 0.805136
H	 -3.327791	 -1.152017	 0.410903
H	 -3.905698	 0.375695	 1.036898
C	 -0.677594	 -0.417312	 -0.014550
H	 -1.637766	 1.358238	 0.744969
H	 -1.659588	 0.017670	 1.857098
C	 0.738335	 -0.034840	 0.421385
H	 -0.814977	 -0.178223	 -1.064632
H	 -0.802730	 -1.495410	 0.071702
C	 1.822265	 -0.738362	 -0.399735
H	 0.853533	 1.043532	 0.342250
H	 0.871597	 -0.279636	 1.474438
C	 1.826339	 -0.386762	 -1.891886
H	 1.716939	 -1.816149	 -0.285817
H	 2.794514	 -0.483845	 0.017120
C	 0.588205	 -0.854877	 -2.658893
H	 2.707229	 -0.832042	 -2.348010
H	 1.937120	 0.689615	 -2.007402
H	 0.444807	 -1.926765	 -2.551040
H	 0.687514	 -0.640864	 -3.718692
H	 -0.314814	 -0.363692	 -2.311824

	symmetry c1
}
set optking {
	frozen_dihedral = ("
		17 13 10 7
	")
}

ee = optimize('scf')
oeprop('DIPOLE', 'QUADRUPOLE', 'MULLIKEN_CHARGES')
f=open( 'psi4out.xyz', 'w' )
f.write( "24  " )
f.write( str(ee) + "\n" )
f.write( MOL.save_string_xyz() )
f.close()
--------------------------------------------------------------------------

    Molecular point group: c1
  Charge       = 0
  Multiplicity = 1
  Basis Set: 6-31G*
  Basis Set:
  @DF-RHF Final Energy:  -349.22399525734392
    Total Energy =                       -349.2239952573436312
    Molecular point group: c1
  Basis Set: 6-31G*
  Basis Set:
  Basis Set: 6-31G*
  Basis Set:
  @DF-RHF Final Energy:  -349.23809854568634
    Total Energy =                       -349.2380985456866256
  Basis Set: 6-31G*
  Basis Set:
  Basis Set: 6-31G*
  Basis Set:
  @DF-RHF Final Energy:  -349.24147732086823
    Total Energy =                       -349.2414773208682846
  Basis Set: 6-31G*
  Basis Set:
  Basis Set: 6-31G*
  Basis Set:
  @DF-RHF Final Energy:  -349.24246468264442
    Total Energy =                       -349.2424646826442540
  Basis Set: 6-31G*
  Basis Set:
  @DF-RHF Final Energy:  -349.24297840357644
    Total Energy =                       -349.2429784035764442
  @DF-RHF Final Energy:  -349.24305740139573
    Total Energy =                       -349.2430574013956175
  Basis Set: 6-31G*
  Basis Set:
  @DF-RHF Final Energy:  -349.24308559273970
    Total Energy =                       -349.2430855927397033
  Basis Set: 6-31G*
  Basis Set:
  Basis Set: 6-31G*
  Basis Set:
  @DF-RHF Final Energy:  -349.24308990698728
    Total Energy =                       -349.2430899069871657
  Basis Set: 6-31G*
  Basis Set:
  Basis Set: 6-31G*
  Basis Set:
  @DF-RHF Final Energy:  -349.24309225305763
    Total Energy =                       -349.2430922530575117
  Basis Set: 6-31G*
  Basis Set:
  Charge       = 0
  Multiplicity = 1
  Basis Set: 6-31G*
  Basis Set:

    Orbital Energies (a.u.)
    -----------------------

    Doubly Occupied:

       1A    -20.554020     2A    -11.267958     3A    -11.217580
       4A    -11.213237     5A    -11.212805     6A    -11.211747
       7A    -11.210815     8A    -11.203924     9A     -1.360548
      10A     -1.087253    11A     -1.045058    12A     -0.984890
      13A     -0.917712    14A     -0.846822    15A     -0.805242
      16A     -0.772410    17A     -0.680309    18A     -0.652155
      19A     -0.620534    20A     -0.615097    21A     -0.598099
      22A     -0.588086    23A     -0.554217    24A     -0.542419
      25A     -0.521982    26A     -0.500865    27A     -0.498983
      28A     -0.475204    29A     -0.470771    30A     -0.458284
      31A     -0.453793    32A     -0.441552    33A     -0.419414

  @DF-RHF Final Energy:  -349.24309283986571

   => Energetics <=

    Nuclear Repulsion Energy =            393.1082350204154068
    One-Electron Energy =               -1252.6950785354351865
    Two-Electron Energy =                 510.3437506751541832
    DFT Exchange-Correlation Energy =       0.0000000000000000
    Empirical Dispersion Energy =           0.0000000000000000
    PCM Polarization Energy =               0.0000000000000000
    EFP Energy =                            0.0000000000000000
    Total Energy =                       -349.2430928398656533
    Molecular point group: c1
  Basis Set: 6-31G*
  Basis Set:

  -Total Gradient:
     Atom            X                  Y                   Z
    ------   -----------------  -----------------  -----------------
       1        0.000001694073    -0.000000227561    -0.000001713179
       2        0.000015082906    -0.000003156598    -0.000005822509
       3        0.000002105875     0.000011117699    -0.000002434608
       4       -0.000023909983    -0.000026509172    -0.000020386764
       5        0.000008694230    -0.000001271486     0.000005140326
       6        0.000002953938     0.000007752657    -0.000000542281
       7       -0.000067274319    -0.000125124413     0.000137196452
       8        0.000003467967    -0.000008573374    -0.000010107941
       9        0.000008740259    -0.000006943734     0.000001487682
      10        0.000006602211     0.000148471265    -0.000135524046
      11       -0.000005675761     0.000028771818    -0.000023336824
      12        0.000002404419     0.000030619109     0.000001081315
      13        0.000063922410    -0.000069952446     0.000127802639
      14        0.000001524467    -0.000010381743     0.000001847854
      15        0.000049371400     0.000005681580    -0.000031454073
      16       -0.000014582148     0.000035752103     0.000010825578
      17       -0.000091962031    -0.000032673553    -0.000108988275
      18        0.000028834356     0.000027041683    -0.000035051074
      19        0.000002514674    -0.000047913714    -0.000030799278
      20        0.000011067392     0.000009463918     0.000052524214
      21       -0.000029869891     0.000009528086     0.000023282387
      22       -0.000066446862     0.000016629626     0.000019629307
      23        0.000026675716    -0.000002322898     0.000025132703
      24        0.000064064703     0.000004221147     0.000000210395

  **** Optimization is complete! (in 10 steps) ****
    Final optimized geometry and variables:
    Molecular point group: c1

    Geometry (in Angstrom), charge = 0, multiplicity = 1:

    H           -2.917933697259     1.751518776039    -0.122126064141
    O           -2.985169032807     0.808515520732    -0.181904887116
    C           -2.672239066564     0.241309881825     1.064960907356
    C           -1.223475856291     0.472654043673     1.479764118302
    H           -2.866588896415    -0.819145704078     0.962114371868
    H           -3.343849101396     0.620574990757     1.833195029706
    C           -0.207620149434    -0.136290506011     0.511720805697
    H           -1.047412154272     1.545027406813     1.569769124901
    H           -1.081437267238     0.057744916055     2.476138131490
    C            1.238617452968     0.150685567726     0.921955290333
    H           -0.401780142016     0.248232252854    -0.482768472532
    H           -0.365119455186    -1.212651200664     0.463729813144
    C            2.324108144404    -0.540583409382     0.085727956510
    H            1.408682758791     1.226174002899     0.897783378245
    H            1.373133919875    -0.150581781980     1.959418006412
    C            2.405449591415    -0.123325615928    -1.395770407565
    H            2.198888949636    -1.620038387972     0.151428716827
    H            3.278299407325    -0.322693083848     0.558608914697
    C            1.609680427157    -1.006296625422    -2.360631822095
    H            3.446723199790    -0.146018651864    -1.706115435651
    H            2.087186422057     0.911975658098    -1.500153963886
    H            1.954837564171    -2.035346094823    -2.312353487043
    H            1.734094110758    -0.666180635993    -3.384472329934
    H            0.548552344533    -1.005913632753    -2.141284037366

  Mulliken Charges: (a.u.)
   Center  Symbol    Alpha    Beta     Spin     Total
       1     H     0.28331  0.28331  0.00000  0.43338
       2     O     4.36835  4.36835  0.00000 -0.73669
       3     C     2.99629  2.99629  0.00000  0.00741
       4     C     3.16850  3.16850  0.00000 -0.33700
       5     H     0.41628  0.41628  0.00000  0.16744
       6     H     0.42808  0.42808  0.00000  0.14384
       7     C     3.15513  3.15513  0.00000 -0.31026
       8     H     0.42825  0.42825  0.00000  0.14350
       9     H     0.42228  0.42228  0.00000  0.15545
      10     C     3.15218  3.15218  0.00000 -0.30436
      11     H     0.40953  0.40953  0.00000  0.18093
      12     H     0.42383  0.42383  0.00000  0.15233
      13     C     3.15438  3.15438  0.00000 -0.30876
      14     H     0.42532  0.42532  0.00000  0.14935
      15     H     0.42436  0.42436  0.00000  0.15128
      16     C     3.15541  3.15541  0.00000 -0.31083
      17     H     0.42305  0.42305  0.00000  0.15389
      18     H     0.42078  0.42078  0.00000  0.15845
      19     C     3.24146  3.24146  0.00000 -0.48291
      20     H     0.42101  0.42101  0.00000  0.15799
      21     H     0.42289  0.42289  0.00000  0.15423
      22     H     0.42277  0.42277  0.00000  0.15446
      23     H     0.42095  0.42095  0.00000  0.15810
      24     H     0.41561  0.41561  0.00000  0.16878

   Total alpha = 33.00000, Total beta = 33.00000, Total charge = -0.00000
