                              Psi4 1.0.54 Driver

  ==> Input File <==

--------------------------------------------------------------------------
set {
	reference rhf
	basis cc-pvtz
}

set_num_threads( 4 )
memory 2 gb

molecule MOL {
0 1

H	 -2.816458	 -0.841657	 -0.064679
N	 -1.878861	 -0.711874	 0.250184
C	 -1.341419	 0.551458	 -0.220231
H	 -1.333674	 -1.468530	 -0.105118
C	 0.082190	 0.731516	 0.254705
H	 -1.357065	 0.652078	 -1.304747
H	 -1.939897	 1.357530	 0.189797
O	 0.447615	 2.067738	 0.085342
H	 0.159527	 0.452800	 1.304709
H	 0.743258	 0.085906	 -0.318972
C	 1.764610	 2.352062	 0.422837
H	 1.930436	 3.406530	 0.255550
H	 1.964157	 2.128920	 1.468822
H	 2.463164	 1.785961	 -0.188811

	symmetry c1
}
set optking {
	frozen_dihedral = ("
		8 5 3 6
	")
}

ee,wfn = optimize('scf', return_wfn=True)
oeprop( wfn, 'DIPOLE', 'QUADRUPOLE', 'MULLIKEN_CHARGES')
f=open( 'psi4out.xyz', 'w' )
f.write( "14  " )
f.write( str(ee) + "\n" )
f.write( MOL.save_string_xyz() )
f.close()
--------------------------------------------------------------------------

    Molecular point group: c1
  Charge       = 0
  Multiplicity = 1
  Basis Set: CC-PVTZ
  Basis Set:
  @DF-RHF Final Energy:  -248.22329368377277
    Total Energy =                       -248.2232936837727379
    Molecular point group: c1
  Basis Set: CC-PVTZ
  Basis Set:
  Basis Set: CC-PVTZ
  Basis Set:
  @DF-RHF Final Energy:  -248.22358658312589
    Total Energy =                       -248.2235865831256660
  Basis Set: CC-PVTZ
  Basis Set:
  Basis Set: CC-PVTZ
  Basis Set:
  @DF-RHF Final Energy:  -248.22365764889346
    Total Energy =                       -248.2236576488933224
  Basis Set: CC-PVTZ
  Basis Set:
  Basis Set: CC-PVTZ
  Basis Set:
  @DF-RHF Final Energy:  -248.22367816657967
    Total Energy =                       -248.2236781665797025
  Basis Set: CC-PVTZ
  Basis Set:
  Basis Set: CC-PVTZ
  Basis Set:
  @DF-RHF Final Energy:  -248.22368066075632
    Total Energy =                       -248.2236806607563722
  Basis Set: CC-PVTZ
  Basis Set:
  Charge       = 0
  Multiplicity = 1
  Basis Set: CC-PVTZ
  Basis Set:

    Orbital Energies (a.u.)
    -----------------------

    Doubly Occupied:

       1A    -20.548580     2A    -15.532027     3A    -11.262140
       4A    -11.262063     5A    -11.239917     6A     -1.382804
       7A     -1.181969     8A     -0.999990     9A     -0.900066
      10A     -0.823449    11A     -0.684510    12A     -0.670928
      13A     -0.649446    14A     -0.623430    15A     -0.600221
      16A     -0.555775    17A     -0.518161    18A     -0.499474
      19A     -0.470656    20A     -0.417179    21A     -0.390564

  @DF-RHF Final Energy:  -248.22368083918153

   => Energetics <=

    Nuclear Repulsion Energy =            191.0285913285073036
    One-Electron Energy =                -716.0778399171115325
    Two-Electron Energy =                 276.8255677494227029
    DFT Exchange-Correlation Energy =       0.0000000000000000
    Empirical Dispersion Energy =           0.0000000000000000
    PCM Polarization Energy =               0.0000000000000000
    EFP Energy =                            0.0000000000000000
    Total Energy =                       -248.2236808391814975
    Molecular point group: c1
  Basis Set: CC-PVTZ
  Basis Set:

  -Total Gradient:
     Atom            X                  Y                   Z
    ------   -----------------  -----------------  -----------------
       1        0.000006848877     0.000012966762     0.000000723351
       2       -0.000012370111    -0.000049594887     0.000020168135
       3       -0.000878162235     0.004441061550     0.001033676884
       4        0.000005668178     0.000010473708     0.000003389837
       5        0.001298046031    -0.001563517586    -0.003256066354
       6        0.000520117146    -0.003406051101    -0.000270057590
       7       -0.000009290251    -0.000006308102     0.000001247716
       8       -0.000922764245     0.000597055955     0.002462210794
       9       -0.000001253621    -0.000008384784     0.000003208654
      10       -0.000005441582    -0.000006799640    -0.000001504025
      11        0.000004362268    -0.000020933353     0.000002854028
      12       -0.000012615198    -0.000005229165    -0.000003059042
      13        0.000002405210     0.000002895111     0.000003726841
      14        0.000004449533     0.000002365534    -0.000000519229

  **** Optimization is complete! (in 6 steps) ****
    Final optimized geometry and variables:
    Molecular point group: c1

    Geometry (in Angstrom), charge = 0, multiplicity = 1:

    H           -2.670739583724    -1.777012633539    -0.078244924497
    N           -1.691732707471    -1.709083589059     0.099375519997
    C           -1.166838474271    -0.437300829642    -0.376863337141
    H           -1.257730475424    -2.476440502574    -0.369897233711
    C            0.261683297324    -0.255627063970     0.098494296109
    H           -1.195177884028    -0.355676836937    -1.461548580515
    H           -1.766591104739     0.362414905085     0.036160002987
    O            0.631164263160     1.073515392196    -0.091131226522
    H            0.320270845712    -0.520246832936     1.151419068800
    H            0.933783239039    -0.919800024340    -0.446098486076
    C            1.935150631738     1.366755830608     0.285192296803
    H            2.103326418248     2.418953584986     0.106778034090
    H            2.101032411265     1.159510414765     1.340141351775
    H            2.656338625514     0.794281836563    -0.294392156108

  Mulliken Charges: (a.u.)
   Center  Symbol    Alpha    Beta     Spin     Total
       1     H     0.42793  0.42793  0.00000  0.14414
       2     N     3.69246  3.69246  0.00000 -0.38492
       3     C     3.03137  3.03137  0.00000 -0.06274
       4     H     0.43087  0.43087  0.00000  0.13827
       5     C     2.95880  2.95880  0.00000  0.08240
       6     H     0.46383  0.46383  0.00000  0.07233
       7     H     0.45186  0.45186  0.00000  0.09628
       8     O     4.17340  4.17340  0.00000 -0.34680
       9     H     0.46921  0.46921  0.00000  0.06159
      10     H     0.47829  0.47829  0.00000  0.04342
      11     C     3.03196  3.03196  0.00000 -0.06392
      12     H     0.44711  0.44711  0.00000  0.10578
      13     H     0.47104  0.47104  0.00000  0.05792
      14     H     0.47187  0.47187  0.00000  0.05625

   Total alpha = 21.00000, Total beta = 21.00000, Total charge =  0.00000

*** Psi4 exiting successfully. Buy a developer a beer!
