                              Psi4 1.0.54 Driver

  ==> Input File <==

--------------------------------------------------------------------------
set {
	reference rhf
	basis cc-pvtz
}

set_num_threads( 4 )
memory 2 gb

molecule MOL {
0 1

H	 -0.855998	 -1.120848	 -0.692237
O	 -1.432053	 -0.565244	 -0.200812
C	 -0.727158	 0.534527	 0.310686
C	 0.680222	 0.664433	 -0.252229
H	 -1.306802	 1.408001	 0.044211
H	 -0.690821	 0.490158	 1.397609
C	 1.605391	 -0.489360	 0.123098
H	 0.615089	 0.745647	 -1.332226
H	 1.101414	 1.597893	 0.110950
H	 1.247627	 -1.432485	 -0.275204
H	 2.601435	 -0.332816	 -0.273062
H	 1.691776	 -0.589902	 1.200774

	symmetry c1
}
set optking {
	frozen_dihedral = ("
		1 2 3 4
	")
}

ee,wfn = optimize('scf', return_wfn=True)
oeprop( wfn, 'DIPOLE', 'QUADRUPOLE', 'MULLIKEN_CHARGES')
f=open( 'psi4out.xyz', 'w' )
f.write( "12  " )
f.write( str(ee) + "\n" )
f.write( MOL.save_string_xyz() )
f.close()
--------------------------------------------------------------------------

    Molecular point group: c1
  Charge       = 0
  Multiplicity = 1
  Basis Set: CC-PVTZ
  Basis Set:
  @DF-RHF Final Energy:  -193.18775521445164
    Total Energy =                       -193.1877552144517551
    Molecular point group: c1
  Basis Set: CC-PVTZ
  Basis Set:
  Basis Set: CC-PVTZ
  Basis Set:
  @DF-RHF Final Energy:  -193.18802589952259
    Total Energy =                       -193.1880258995226427
  Basis Set: CC-PVTZ
  Basis Set:
  Basis Set: CC-PVTZ
  Basis Set:
  @DF-RHF Final Energy:  -193.18812243974915
    Total Energy =                       -193.1881224397490939
  Basis Set: CC-PVTZ
  Basis Set:
  Charge       = 0
  Multiplicity = 1
  Basis Set: CC-PVTZ
  Basis Set:

    Orbital Energies (a.u.)
    -----------------------

    Doubly Occupied:

       1A    -20.543114     2A    -11.265353     3A    -11.225026
       4A    -11.219367     5A     -1.361736     6A     -1.056026
       7A     -0.930221     8A     -0.819934     9A     -0.674517
      10A     -0.644597    11A     -0.628794    12A     -0.579831
      13A     -0.551878    14A     -0.511611    15A     -0.494286
      16A     -0.466717    17A     -0.434486

  @DF-RHF Final Energy:  -193.18812264428925

   => Energetics <=

    Nuclear Repulsion Energy =            133.2434550961655759
    One-Electron Energy =                -526.0481660458353872
    Two-Electron Energy =                 199.6165883053804464
    DFT Exchange-Correlation Energy =       0.0000000000000000
    Empirical Dispersion Energy =           0.0000000000000000
    PCM Polarization Energy =               0.0000000000000000
    EFP Energy =                            0.0000000000000000
    Total Energy =                       -193.1881226442893649
    Molecular point group: c1
  Basis Set: CC-PVTZ
  Basis Set:

  -Total Gradient:
     Atom            X                  Y                   Z
    ------   -----------------  -----------------  -----------------
       1       -0.000060626354     0.000245129681    -0.000528717962
       2        0.000289855572    -0.000602817079     0.000869269832
       3       -0.000319754755     0.000599198232    -0.000734336730
       4        0.000149364425    -0.000259184158     0.000514819368
       5       -0.000005732950     0.000106262835     0.000026621285
       6        0.000034809193    -0.000072676030    -0.000047202820
       7        0.000005204096    -0.000047797514    -0.000035580683
       8       -0.000027709078     0.000039439566    -0.000011723145
       9       -0.000015295893    -0.000008287749    -0.000006417344
      10       -0.000085217134    -0.000027893485     0.000014637741
      11        0.000053083904     0.000006794305    -0.000025832858
      12       -0.000017981026     0.000021831393    -0.000035536684

  **** Optimization is complete! (in 4 steps) ****
    Final optimized geometry and variables:
    Molecular point group: c1

    Geometry (in Angstrom), charge = 0, multiplicity = 1:

    H           -0.875995100913    -1.133854373944    -0.701418091165
    O           -1.443292001999    -0.576494797404    -0.203985900781
    C           -0.735705388522     0.518563431389     0.319829377576
    C            0.674215740403     0.663894438574    -0.230726776449
    H           -1.305368771235     1.412758792741     0.095760832801
    H           -0.694477749711     0.421272218718     1.401405610351
    C            1.614912477371    -0.476924771361     0.151309719155
    H            0.622772694568     0.757536590406    -1.312437313181
    H            1.080509436241     1.599689694592     0.139483029902
    H            1.270386123863    -1.436804492105    -0.219121036760
    H            2.604786756817    -0.313093808560    -0.257373532428
    H            1.707138552059    -0.558775570801     1.228556463752

  Mulliken Charges: (a.u.)
   Center  Symbol    Alpha    Beta     Spin     Total
       1     H     0.39160  0.39160  0.00000  0.21679
       2     O     4.20836  4.20836  0.00000 -0.41671
       3     C     2.95147  2.95147  0.00000  0.09706
       4     C     3.10528  3.10528  0.00000 -0.21056
       5     H     0.46200  0.46200  0.00000  0.07600
       6     H     0.47564  0.47564  0.00000  0.04872
       7     C     3.14321  3.14321  0.00000 -0.28643
       8     H     0.45027  0.45027  0.00000  0.09946
       9     H     0.45193  0.45193  0.00000  0.09613
      10     H     0.46173  0.46173  0.00000  0.07654
      11     H     0.44664  0.44664  0.00000  0.10671
      12     H     0.45186  0.45186  0.00000  0.09628

   Total alpha = 17.00000, Total beta = 17.00000, Total charge =  0.00000

*** Psi4 exiting successfully. Buy a developer a beer!
