  ==> Input File <==

--------------------------------------------------------------------------
set {
	reference rhf
	basis 6-31G*
}

set_num_threads( 1 )
memory 2 gb

molecule MOL {
0 1

H	 -2.824144	 -0.243268	 -0.736869
O	 -2.347518	 -0.290803	 0.079804
C	 -1.184022	 0.487508	 -0.006784
C	 0.062599	 -0.378592	 0.031606
H	 -1.176523	 1.099369	 -0.904519
H	 -1.187323	 1.153111	 0.844927
O	 1.171513	 0.459272	 -0.058250
H	 0.050699	 -1.089204	 -0.797170
H	 0.078739	 -0.954914	 0.954740
C	 2.397842	 -0.198080	 -0.002151
H	 2.508049	 -0.905315	 -0.822092
H	 3.173794	 0.550865	 -0.078850
H	 2.517602	 -0.735921	 0.936026

	symmetry c1
}
set optking {
	frozen_dihedral = ("
		8 4 3 5,
		10 7 4 8,
		4 7 10 13
	")
}

ee = energy('scf')
oeprop('DIPOLE', 'QUADRUPOLE', 'MULLIKEN_CHARGES')
f=open( 'psi4out.xyz', 'w' )
f.write( "13  " )
f.write( str(ee) + "\n" )
f.write( MOL.save_string_xyz() )
f.close()
--------------------------------------------------------------------------

    Molecular point group: c1

    Geometry (in Angstrom), charge = 0, multiplicity = 1:

       Center              X                  Y                   Z               Mass
    ------------   -----------------  -----------------  -----------------  -----------------
           H         -2.819836432433    -0.249718772785    -0.736977801002     1.007825032070
           O         -2.343210432433    -0.297253772785     0.079695198998    15.994914619560
           C         -1.179714432433     0.481057227215    -0.006892801002    12.000000000000
           C          0.066906567567    -0.385042772785     0.031497198998    12.000000000000
           H         -1.172215432433     1.092918227215    -0.904627801002     1.007825032070
           H         -1.183015432433     1.146660227215     0.844818198998     1.007825032070
           O          1.175820567567     0.452821227215    -0.058358801002    15.994914619560
           H          0.055006567567    -1.095654772785    -0.797278801002     1.007825032070
           H          0.083046567567    -0.961364772785     0.954631198998     1.007825032070
           C          2.402149567567    -0.204530772785    -0.002259801002    12.000000000000
           H          2.512356567567    -0.911765772785    -0.822200801002     1.007825032070
           H          3.178101567567     0.544414227215    -0.078958801002     1.007825032070
           H          2.521909567567    -0.742371772785     0.935917198998     1.007825032070

  Charge       = 0
  Multiplicity = 1
  Basis Set: 6-31G*
  Basis Set:

    Orbital Energies (a.u.)
    -----------------------

    Doubly Occupied:

       1A    -20.560023     2A    -20.558442     3A    -11.268706
       4A    -11.268457     5A    -11.267428     6A     -1.386479
       7A     -1.364045     8A     -1.017232     9A     -0.911928
      10A     -0.835292    11A     -0.712252    12A     -0.675558
      13A     -0.650243    14A     -0.640544    15A     -0.602457
      16A     -0.554927    17A     -0.546331    18A     -0.489581
      19A     -0.479996    20A     -0.436282    21A     -0.419051

  @DF-RHF Final Energy:  -267.94929081010503

   => Energetics <=

    Nuclear Repulsion Energy =            190.0062465253499511
    One-Electron Energy =                -742.6204944679658411
    Two-Electron Energy =                 284.6649571325109491
    DFT Exchange-Correlation Energy =       0.0000000000000000
    Empirical Dispersion Energy =           0.0000000000000000
    PCM Polarization Energy =               0.0000000000000000
    EFP Energy =                            0.0000000000000000
    Total Energy =                       -267.9492908101049125

  Mulliken Charges: (a.u.)
   Center  Symbol    Alpha    Beta     Spin     Total
       1     H     0.27801  0.27801  0.00000  0.44397
       2     O     4.37389  4.37389  0.00000 -0.74778
       3     C     3.00570  3.00570  0.00000 -0.01139
       4     C     2.99276  2.99276  0.00000  0.01448
       5     H     0.42333  0.42333  0.00000  0.15335
       6     H     0.41394  0.41394  0.00000  0.17213
       7     O     4.30838  4.30838  0.00000 -0.61677
       8     H     0.43215  0.43215  0.00000  0.13571
       9     H     0.42407  0.42407  0.00000  0.15187
      10     C     3.07950  3.07950  0.00000 -0.15901
      11     H     0.42910  0.42910  0.00000  0.14181
      12     H     0.41135  0.41135  0.00000  0.17731
      13     H     0.42784  0.42784  0.00000  0.14432

   Total alpha = 21.00000, Total beta = 21.00000, Total charge =  0.00000
