  ==> Input File <==

--------------------------------------------------------------------------
set {
	reference rhf
	basis 6-31G*
}

set_num_threads( 4 )
memory 2 gb

molecule MOL {
0 1

H	 0.121203	 -0.013268	 0.002503
N	 -0.626943	 -0.667432	 -0.000092
C	 -1.979713	 -0.158776	 0.000050
C	 -0.327094	 -1.988881	 -0.005246
H	 -2.520245	 -0.492427	 -0.879443
H	 -1.934741	 0.918111	 -0.004428
H	 -2.517790	 -0.485056	 0.883818
C	 1.156695	 -2.297676	 -0.004372
O	 -1.160635	 -2.852251	 -0.009597
H	 1.633422	 -1.882900	 0.878263
H	 1.290444	 -3.369005	 -0.012248
H	 1.637881	 -1.869256	 -0.878016

	symmetry c1
}
set optking {
	frozen_dihedral = ("
		4 2 3 5
	")
}

ee = optimize('scf')
oeprop('DIPOLE', 'QUADRUPOLE', 'MULLIKEN_CHARGES')
f=open( 'psi4out.xyz', 'w' )
f.write( "12  " )
f.write( str(ee) + "\n" )
f.write( MOL.save_string_xyz() )
f.close()
--------------------------------------------------------------------------

    Molecular point group: c1
  Charge       = 0
  Multiplicity = 1
  Basis Set: 6-31G*
  Basis Set:
  @DF-RHF Final Energy:  -247.00542177512949
    Total Energy =                       -247.0054217751295482
    Molecular point group: c1
  Basis Set: 6-31G*
  Basis Set:
  Basis Set: 6-31G*
  Basis Set:
  @DF-RHF Final Energy:  -247.00566284159237
    Total Energy =                       -247.0056628415924251
  Basis Set: 6-31G*
  Basis Set:
  Basis Set: 6-31G*
  Basis Set:
  @DF-RHF Final Energy:  -247.00567720319074
    Total Energy =                       -247.0056772031908281
  Basis Set: 6-31G*
  Basis Set:
  Basis Set: 6-31G*
  Basis Set:
  @DF-RHF Final Energy:  -247.00567371276119
    Total Energy =                       -247.0056737127609381
  Basis Set: 6-31G*
  Basis Set:
  Charge       = 0
  Multiplicity = 1
  Basis Set: 6-31G*
  Basis Set:

    Orbital Energies (a.u.)
    -----------------------

    Doubly Occupied:

       1A    -20.516143     2A    -15.580486     3A    -11.340971
       4A    -11.255235     5A    -11.229676     6A     -1.384327
       7A     -1.227123     8A     -1.015219     9A     -0.931585
      10A     -0.787560    11A     -0.688602    12A     -0.646878
      13A     -0.633122    14A     -0.583529    15A     -0.579222
      16A     -0.557505    17A     -0.545716    18A     -0.503346
      19A     -0.412607    20A     -0.385011

  @DF-RHF Final Energy:  -247.00567854178684

   => Energetics <=

    Nuclear Repulsion Energy =            181.5223261071740239
    One-Electron Energy =                -695.4482830000471267
    Two-Electron Energy =                 266.9202783510862105
    DFT Exchange-Correlation Energy =       0.0000000000000000
    Empirical Dispersion Energy =           0.0000000000000000
    PCM Polarization Energy =               0.0000000000000000
    EFP Energy =                            0.0000000000000000
    Total Energy =                       -247.0056785417868355
    Molecular point group: c1
  Basis Set: 6-31G*
  Basis Set:

  -Total Gradient:
     Atom            X                  Y                   Z
    ------   -----------------  -----------------  -----------------
       1       -0.000008084977     0.000000156282    -0.000006400499
       2       -0.000017419056     0.000034169526     0.000023321825
       3        0.000084987602    -0.000035943961    -0.000008660264
       4       -0.000057681463    -0.000021750339    -0.000012951057
       5       -0.000019383775     0.000001204488     0.000001772091
       6       -0.000016615805     0.000019856235     0.000001351092
       7       -0.000013842148     0.000002421692    -0.000002477627
       8        0.000034823548     0.000004341480     0.000009074656
       9        0.000026101570     0.000013787593    -0.000000022722
      10       -0.000008694048    -0.000004091140    -0.000002205468
      11        0.000008129802    -0.000008043224    -0.000000585361
      12       -0.000012321249    -0.000006108631    -0.000002216667

  **** Optimization is complete! (in 5 steps) ****
    Final optimized geometry and variables:
    Molecular point group: c1

    Geometry (in Angstrom), charge = 0, multiplicity = 1:

    H            0.724553438838     1.583551142992     0.005421873176
    N           -0.016359202335     0.922844522810     0.001963793330
    C           -1.382454139389     1.398422804677     0.003396988003
    C            0.272750496325    -0.398565076701    -0.001167784090
    H           -1.915235283513     1.050727632459    -0.872622585302
    H           -1.372051778146     2.480344552941     0.001521235449
    H           -1.913062095924     1.053770528396     0.882035104278
    C            1.749838441903    -0.735814475088    -0.000620659161
    O           -0.583228692361    -1.239903169137    -0.003901640774
    H            2.234763809052    -0.329896568566     0.881674506785
    H            1.863614809128    -1.809538945949    -0.008046960582
    H            2.239004790063    -0.317038092871    -0.874499602531

  Mulliken Charges: (a.u.)
   Center  Symbol    Alpha    Beta     Spin     Total
       1     H     0.30909  0.30909  0.00000  0.38181
       2     N     3.89180  3.89180  0.00000 -0.78360
       3     C     3.13225  3.13225  0.00000 -0.26451
       4     C     2.63245  2.63245  0.00000  0.73510
       5     H     0.40579  0.40579  0.00000  0.18841
       6     H     0.41858  0.41858  0.00000  0.16283
       7     H     0.40604  0.40604  0.00000  0.18791
       8     C     3.29472  3.29472  0.00000 -0.58945
       9     O     4.30146  4.30146  0.00000 -0.60292
      10     H     0.40784  0.40784  0.00000  0.18432
      11     H     0.39197  0.39197  0.00000  0.21605
      12     H     0.40798  0.40798  0.00000  0.18403

   Total alpha = 20.00000, Total beta = 20.00000, Total charge = -0.00000
