  ==> Input File <==

--------------------------------------------------------------------------
set {
	reference rhf
	basis 6-31G*
}

set_num_threads( 4 )
memory 2 gb

molecule MOL {
0 1

H	 -2.600262	 -0.467763	 0.131143
N	 -1.852125	 0.165761	 -0.074816
C	 -0.563778	 -0.502042	 0.037919
H	 -1.917844	 0.916302	 0.586338
C	 0.575259	 0.508231	 -0.048326
H	 -0.482092	 -1.204004	 -0.786564
H	 -0.460411	 -1.085169	 0.956626
C	 1.954651	 -0.143624	 0.035137
H	 0.475158	 1.060484	 -0.977307
H	 0.469181	 1.234488	 0.755973
H	 2.103292	 -0.853109	 -0.774172
H	 2.742821	 0.599562	 -0.030094
H	 2.083613	 -0.679371	 0.971560

	symmetry c1
}
set optking {
	frozen_dihedral = ("
		1 2 3 6
	")
}

ee = optimize('scf')
oeprop('DIPOLE', 'QUADRUPOLE', 'MULLIKEN_CHARGES')
f=open( 'psi4out.xyz', 'w' )
f.write( "13  " )
f.write( str(ee) + "\n" )
f.write( MOL.save_string_xyz() )
f.close()
--------------------------------------------------------------------------

    Molecular point group: c1
  Charge       = 0
  Multiplicity = 1
  Basis Set: 6-31G*
  Basis Set:
  @DF-RHF Final Energy:  -173.28192820000686
    Total Energy =                       -173.2819282000067744
    Molecular point group: c1
  Basis Set: 6-31G*
  Basis Set:
  Basis Set: 6-31G*
  Basis Set:
  @DF-RHF Final Energy:  -173.28197671959617
    Total Energy =                       -173.2819767195960026
  Basis Set: 6-31G*
  Basis Set:
  Basis Set: 6-31G*
  Basis Set:
  @DF-RHF Final Energy:  -173.28198565071369
    Total Energy =                       -173.2819856507138070
  Basis Set: 6-31G*
  Basis Set:
  Basis Set: 6-31G*
  Basis Set:
  @DF-RHF Final Energy:  -173.28198792225581
    Total Energy =                       -173.2819879222557802
  Basis Set: 6-31G*
  Basis Set:
  Charge       = 0
  Multiplicity = 1
  Basis Set: 6-31G*
  Basis Set:

    Orbital Energies (a.u.)
    -----------------------

    Doubly Occupied:

       1A    -15.533041     2A    -11.240048     3A    -11.214323
       4A    -11.210381     5A     -1.177376     6A     -1.036170
       7A     -0.899045     8A     -0.801753     9A     -0.655305
      10A     -0.636139    11A     -0.602715    12A     -0.563916
      13A     -0.534887    14A     -0.492940    15A     -0.476386
      16A     -0.469096    17A     -0.383186

  @DF-RHF Final Energy:  -173.28198797132112

   => Energetics <=

    Nuclear Repulsion Energy =            131.8433580305669182
    One-Electron Energy =                -494.3972773976523172
    Two-Electron Energy =                 189.2719313957642839
    DFT Exchange-Correlation Energy =       0.0000000000000000
    Empirical Dispersion Energy =           0.0000000000000000
    PCM Polarization Energy =               0.0000000000000000
    EFP Energy =                            0.0000000000000000
    Total Energy =                       -173.2819879713211435
    Molecular point group: c1
  Basis Set: 6-31G*
  Basis Set:

  -Total Gradient:
     Atom            X                  Y                   Z
    ------   -----------------  -----------------  -----------------
       1        0.000061309861     0.000522699040     0.001981109423
       2        0.000112535465    -0.000363780307    -0.002698017264
       3       -0.000974232742    -0.001494167585     0.001770852391
       4       -0.000004008071     0.000016684377     0.000000358413
       5        0.000006089013     0.000008534643    -0.000020383720
       6        0.000801145792     0.001327691411    -0.001036577172
       7        0.000000296335    -0.000011054796    -0.000003589385
       8       -0.000001202699    -0.000004301311     0.000011068872
       9       -0.000003262974     0.000005148126     0.000001533353
      10       -0.000001597501    -0.000005410843    -0.000004781477
      11        0.000000904995     0.000000287451    -0.000002326663
      12       -0.000000921771     0.000002115440     0.000001833782
      13        0.000002944296    -0.000004445646    -0.000001080553

  **** Optimization is complete! (in 5 steps) ****
    Final optimized geometry and variables:
    Molecular point group: c1

    Geometry (in Angstrom), charge = 0, multiplicity = 1:

    H           -2.603080818888    -0.470266160410     0.108811026770
    N           -1.852801299845     0.164409973726    -0.088019106354
    C           -0.565977345350    -0.504818374343     0.047570775141
    H           -1.929037409941     0.901432764851     0.588071942487
    C            0.573895712739     0.504953529790    -0.043393150665
    H           -0.469422631328    -1.210458305696    -0.772211326645
    H           -0.470826958268    -1.073274776085     0.975535339340
    C            1.952895882609    -0.148864418267     0.028670181784
    H            0.469781171404     1.058961219614    -0.971320731638
    H            0.475738902130     1.229539955687     0.763656068001
    H            2.095910160227    -0.853678322782    -0.785448041407
    H            2.741233122992     0.594071317400    -0.036665470090
    H            2.086095344076    -0.689803602483     0.961426285396

  Mulliken Charges: (a.u.)
   Center  Symbol    Alpha    Beta     Spin     Total
       1     H     0.33313  0.33313  0.00000  0.33373
       2     N     3.92091  3.92091  0.00000 -0.84182
       3     C     3.05683  3.05683  0.00000 -0.11365
       4     H     0.33614  0.33614  0.00000  0.32771
       5     C     3.15574  3.15574  0.00000 -0.31148
       6     H     0.42032  0.42032  0.00000  0.15937
       7     H     0.43496  0.43496  0.00000  0.13008
       8     C     3.24313  3.24313  0.00000 -0.48627
       9     H     0.41196  0.41196  0.00000  0.17607
      10     H     0.42711  0.42711  0.00000  0.14578
      11     H     0.42027  0.42027  0.00000  0.15947
      12     H     0.41752  0.41752  0.00000  0.16496
      13     H     0.42198  0.42198  0.00000  0.15604

   Total alpha = 17.00000, Total beta = 17.00000, Total charge =  0.00000
