  ==> Input File <==

--------------------------------------------------------------------------
set {
	reference rhf
	basis cc-pvtz
}

set_num_threads( 4 )
memory 2 gb

molecule MOL {
0 1

H	 3.721907	 -0.933076	 -0.066039
O	 2.824271	 -1.154299	 0.131461
C	 2.076458	 -0.067370	 -0.038225
C	 0.626018	 -0.337582	 0.258241
O	 2.538288	 0.965419	 -0.381593
C	 -0.267326	 0.883135	 0.076490
H	 0.325620	 -1.161483	 -0.378003
H	 0.574537	 -0.713685	 1.275261
C	 -1.726822	 0.642622	 0.463839
H	 -0.210803	 1.217591	 -0.953497
H	 0.129920	 1.693110	 0.675679
C	 -2.480891	 -0.340606	 -0.429852
H	 -2.243098	 1.597649	 0.438609
H	 -1.776542	 0.301208	 1.495542
C	 -3.372503	 -1.291613	 0.362038
H	 -3.088225	 0.215841	 -1.138756
H	 -1.780840	 -0.924355	 -1.019021
H	 -3.897009	 -1.976127	 -0.294481
H	 -4.115620	 -0.746045	 0.933730
H	 -2.789874	 -1.883898	 1.059818

	symmetry c1
}
set optking {
	frozen_dihedral = ("
		16 12 9 6
	")
}

ee = optimize('scf')
oeprop('DIPOLE', 'QUADRUPOLE', 'MULLIKEN_CHARGES')
f=open( 'psi4out.xyz', 'w' )
f.write( "20  " )
f.write( str(ee) + "\n" )
f.write( MOL.save_string_xyz() )
f.close()
--------------------------------------------------------------------------

    Molecular point group: c1
  Charge       = 0
  Multiplicity = 1
  Basis Set: CC-PVTZ
  Basis Set:
  @DF-RHF Final Energy:  -384.09015955809116
    Total Energy =                       -384.0901595580905337
    Molecular point group: c1
  Basis Set: CC-PVTZ
  Basis Set:
  Basis Set: CC-PVTZ
  Basis Set:
  @DF-RHF Final Energy:  -384.09042494350365
    Total Energy =                       -384.0904249435034217
  Basis Set: CC-PVTZ
  Basis Set:
  Basis Set: CC-PVTZ
  Basis Set:
  @DF-RHF Final Energy:  -384.09065756523796
    Total Energy =                       -384.0906575652380752
  Basis Set: CC-PVTZ
  Basis Set:
  Basis Set: CC-PVTZ
  Basis Set:
  @DF-RHF Final Energy:  -384.09066501770178
    Total Energy =                       -384.0906650177018946
  Basis Set: CC-PVTZ
  Basis Set:
  Basis Set: CC-PVTZ
  Basis Set:
  @DF-RHF Final Energy:  -384.09067289343648
    Total Energy =                       -384.0906728934363628
  Basis Set: CC-PVTZ
  Basis Set:
  Basis Set: CC-PVTZ
  Basis Set:
  @DF-RHF Final Energy:  -384.09068041774162
    Total Energy =                       -384.0906804177415097
  Basis Set: CC-PVTZ
  Basis Set:
  Basis Set: CC-PVTZ
  Basis Set:
  @DF-RHF Final Energy:  -384.09068213918516
    Total Energy =                       -384.0906821391853327
  Basis Set: CC-PVTZ
  Basis Set:
  Charge       = 0
  Multiplicity = 1
  Basis Set: CC-PVTZ
  Basis Set:

    Orbital Energies (a.u.)
    -----------------------

    Doubly Occupied:

       1A    -20.604050     2A    -20.540656     3A    -11.373643
       4A    -11.239028     5A    -11.221339     6A    -11.218655
       7A    -11.218074     8A    -11.211185     9A     -1.477634
      10A     -1.369155    11A     -1.096830    12A     -1.040951
      13A     -0.962766    14A     -0.870636    15A     -0.815936
      16A     -0.780614    17A     -0.703832    18A     -0.693839
      19A     -0.666849    20A     -0.631620    21A     -0.608373
      22A     -0.595554    23A     -0.583126    24A     -0.554441
      25A     -0.538237    26A     -0.511056    27A     -0.502855
      28A     -0.484645    29A     -0.470143    30A     -0.465290
      31A     -0.457069    32A     -0.446446

  @DF-RHF Final Energy:  -384.09068224628174

   => Energetics <=

    Nuclear Repulsion Energy =            378.4238209143285303
    One-Electron Energy =               -1273.1199536984645420
    Two-Electron Energy =                 510.6054505378539261
    DFT Exchange-Correlation Energy =       0.0000000000000000
    Empirical Dispersion Energy =           0.0000000000000000
    PCM Polarization Energy =               0.0000000000000000
    EFP Energy =                            0.0000000000000000
    Total Energy =                       -384.0906822462820855
    Molecular point group: c1
  Basis Set: CC-PVTZ
  Basis Set:

  -Total Gradient:
     Atom            X                  Y                   Z
    ------   -----------------  -----------------  -----------------
       1       -0.000000978919     0.000000915399     0.000000672740
       2       -0.000002102608    -0.000008053298    -0.000007587238
       3        0.000009389249     0.000000732905     0.000019734689
       4        0.000000681003    -0.000009665627    -0.000005260417
       5       -0.000007147237     0.000003713427    -0.000000201862
       6        0.000676071972    -0.001813732729     0.001284667158
       7       -0.000004171789     0.000011091523     0.000010168689
       8        0.000015104420    -0.000000501585     0.000006247911
       9       -0.001520228257     0.002545614708    -0.001371722233
      10       -0.000002179906     0.000020928248    -0.000007861288
      11        0.000004228258    -0.000018053246     0.000002670929
      12        0.003232986597    -0.000631881540    -0.002010809029
      13       -0.000004143283    -0.000009760625    -0.000007442866
      14       -0.000004126798     0.000003206897     0.000009475232
      15        0.000001342152     0.000008174606    -0.000005107304
      16       -0.002398937446    -0.000110239581     0.002081493802
      17       -0.000002275776     0.000001644437     0.000011365332
      18       -0.000003340518     0.000001227894    -0.000003824432
      19        0.000006723685     0.000002507017     0.000000605636
      20        0.000003105196     0.000002131174    -0.000007285448

  **** Optimization is complete! (in 8 steps) ****
    Final optimized geometry and variables:
    Molecular point group: c1

    Geometry (in Angstrom), charge = 0, multiplicity = 1:

    H            3.646231688203    -0.828825912852    -0.138085502589
    O            2.762356033920    -1.026232724654     0.133077160142
    C            2.000344162247     0.036322444867    -0.111410384911
    C            0.570725649378    -0.198368948773     0.295496106469
    O            2.435836521657     1.025165427433    -0.591416221071
    C           -0.338112476049     0.998177602769     0.045169452362
    H            0.235292137897    -1.083976292843    -0.231927172011
    H            0.579915590017    -0.467185183440     1.346932591861
    C           -1.791815470061     0.740872696392     0.447212446973
    H           -0.285187066866     1.279044738829    -1.000830742387
    H            0.046190949020     1.844631109323     0.601446045959
    C           -2.557970673152    -0.221203053211    -0.480749783251
    H           -2.315336822539     1.688981413127     0.490069085362
    H           -1.804079399060     0.350470487319     1.461714990966
    C           -3.465182967975    -1.189879821292     0.274075432381
    H           -3.175133671335     0.356692922981    -1.160439967190
    H           -1.869021146804    -0.787873054019    -1.096937588656
    H           -4.022342337448    -1.820833891021    -0.409075596302
    H           -4.181522096338    -0.654047400145     0.888147543506
    H           -2.890037994572    -1.835732134301     0.929411833960

  Mulliken Charges: (a.u.)
   Center  Symbol    Alpha    Beta     Spin     Total
       1     H     0.38238  0.38238  0.00000  0.23524
       2     O     4.16046  4.16046  0.00000 -0.32091
       3     C     2.80338  2.80338  0.00000  0.39324
       4     C     3.11199  3.11199  0.00000 -0.22399
       5     O     4.19093  4.19093  0.00000 -0.38186
       6     C     3.09113  3.09113  0.00000 -0.18227
       7     H     0.43760  0.43760  0.00000  0.12479
       8     H     0.43735  0.43735  0.00000  0.12530
       9     C     3.10265  3.10265  0.00000 -0.20531
      10     H     0.44450  0.44450  0.00000  0.11100
      11     H     0.44092  0.44092  0.00000  0.11815
      12     C     3.09259  3.09259  0.00000 -0.18518
      13     H     0.44224  0.44224  0.00000  0.11551
      14     H     0.45638  0.45638  0.00000  0.08724
      15     C     3.14705  3.14705  0.00000 -0.29410
      16     H     0.44657  0.44657  0.00000  0.10686
      17     H     0.45344  0.45344  0.00000  0.09313
      18     H     0.44857  0.44857  0.00000  0.10286
      19     H     0.45357  0.45357  0.00000  0.09286
      20     H     0.45628  0.45628  0.00000  0.08743

   Total alpha = 32.00000, Total beta = 32.00000, Total charge = -0.00000
