  ==> Input File <==

--------------------------------------------------------------------------
set {
	reference rhf
	basis 6-31G*
}

set_num_threads( 1 )
memory 2 gb

molecule MOL {
0 1

O	 -2.042549	 -1.228399	 -0.269030
C	 -1.653912	 -0.146171	 0.050137
C	 -0.332303	 0.024011	 0.778412
C	 -2.438579	 1.106236	 -0.272369
C	 -0.265944	 1.387443	 1.484473
H	 -0.190122	 -0.774233	 1.501581
H	 0.460330	 -0.041681	 0.041297
C	 1.063492	 1.612757	 2.206183
H	 -1.081319	 1.470906	 2.200909
H	 -0.420108	 2.167870	 0.745346
C	 1.135697	 2.971527	 2.901695
H	 1.215941	 0.822725	 2.938327
H	 1.877811	 1.528811	 1.490358
H	 0.353437	 3.072509	 3.648639
H	 1.019001	 3.782792	 2.189182
H	 2.089608	 3.104831	 3.402005
H	 -3.277823	 0.863061	 -0.908988
H	 -1.806773	 1.843019	 -0.759671
H	 -2.802853	 1.554979	 0.648059

	symmetry c1
}
set optking {
	frozen_dihedral = ("
		11 8 5 9,
		9 5 3 2
	")
}

ee = energy('scf')
oeprop('DIPOLE', 'QUADRUPOLE', 'MULLIKEN_CHARGES')
f=open( 'psi4out.xyz', 'w' )
f.write( "19  " )
f.write( str(ee) + "\n" )
f.write( MOL.save_string_xyz() )
f.close()
--------------------------------------------------------------------------

    Molecular point group: c1

    Geometry (in Angstrom), charge = 0, multiplicity = 1:

       Center              X                  Y                   Z               Mass
    ------------   -----------------  -----------------  -----------------  -----------------
           O         -1.391608039231    -2.061347806303    -1.255657746911    15.994914619560
           C         -1.002971039231    -0.979119806303    -0.936490746911    12.000000000000
           C          0.318637960769    -0.808937806303    -0.208215746911    12.000000000000
           C         -1.787638039231     0.273287193697    -1.258996746911    12.000000000000
           C          0.384996960769     0.554494193697     0.497845253089    12.000000000000
           H          0.460818960769    -1.607181806303     0.514953253089     1.007825032070
           H          1.111270960769    -0.874629806303    -0.945330746911     1.007825032070
           C          1.714432960769     0.779808193697     1.219555253089    12.000000000000
           H         -0.430378039231     0.637957193697     1.214281253089     1.007825032070
           H          0.230832960769     1.334921193697    -0.241281746911     1.007825032070
           C          1.786637960769     2.138578193697     1.915067253089    12.000000000000
           H          1.866881960769    -0.010223806303     1.951699253089     1.007825032070
           H          2.528751960769     0.695862193697     0.503730253089     1.007825032070
           H          1.004377960769     2.239560193697     2.662011253089     1.007825032070
           H          1.669941960769     2.949843193697     1.202554253089     1.007825032070
           H          2.740548960769     2.271882193697     2.415377253089     1.007825032070
           H         -2.626882039231     0.030112193697    -1.895615746911     1.007825032070
           H         -1.155832039231     1.010070193697    -1.746298746911     1.007825032070
           H         -2.151912039231     0.722030193697    -0.338568746911     1.007825032070

  Charge       = 0
  Multiplicity = 1
  Basis Set: 6-31G*
  Basis Set:

    Orbital Energies (a.u.)
    -----------------------

    Doubly Occupied:

       1A    -20.546080     2A    -11.324943     3A    -11.231341
       4A    -11.230007     5A    -11.227671     6A    -11.226312
       7A    -11.217061     8A     -1.391996     9A     -1.097535
      10A     -1.031014    11A     -0.979929    12A     -0.894436
      13A     -0.810047    14A     -0.732784    15A     -0.666360
      16A     -0.649782    17A     -0.628054    18A     -0.612538
      19A     -0.584876    20A     -0.572275    21A     -0.550158
      22A     -0.535288    23A     -0.526625    24A     -0.489450
      25A     -0.486216    26A     -0.478613    27A     -0.469595
      28A     -0.396174

  @DF-RHF Final Energy:  -309.05893170082857

   => Energetics <=

    Nuclear Repulsion Energy =            303.3015056983081195
    One-Electron Energy =               -1019.5463221355781798
    Two-Electron Energy =                 407.1858847364426310
    DFT Exchange-Correlation Energy =       0.0000000000000000
    Empirical Dispersion Energy =           0.0000000000000000
    PCM Polarization Energy =               0.0000000000000000
    EFP Energy =                            0.0000000000000000
    Total Energy =                       -309.0589317008274293

  Mulliken Charges: (a.u.)
   Center  Symbol    Alpha    Beta     Spin     Total
       1     O     4.26317  4.26317  0.00000 -0.52634
       2     C     2.73306  2.73306  0.00000  0.53389
       3     C     3.20239  3.20239  0.00000 -0.40478
       4     C     3.29649  3.29649  0.00000 -0.59297
       5     C     3.16753  3.16753  0.00000 -0.33506
       6     H     0.39892  0.39892  0.00000  0.20216
       7     H     0.40232  0.40232  0.00000  0.19535
       8     C     3.15048  3.15048  0.00000 -0.30096
       9     H     0.41884  0.41884  0.00000  0.16232
      10     H     0.41912  0.41912  0.00000  0.16176
      11     C     3.23980  3.23980  0.00000 -0.47960
      12     H     0.42012  0.42012  0.00000  0.15975
      13     H     0.42138  0.42138  0.00000  0.15724
      14     H     0.42074  0.42074  0.00000  0.15851
      15     H     0.42123  0.42123  0.00000  0.15753
      16     H     0.41689  0.41689  0.00000  0.16621
      17     H     0.39474  0.39474  0.00000  0.21051
      18     H     0.40825  0.40825  0.00000  0.18350
      19     H     0.40452  0.40452  0.00000  0.19096

   Total alpha = 28.00000, Total beta = 28.00000, Total charge =  0.00000
