  ==> Input File <==

--------------------------------------------------------------------------
set {
	reference rhf
	basis 6-31G*
}

set_num_threads( 4 )
memory 2 gb

molecule MOL {
0 1

H	 -1.836216	 1.387520	 -0.000064
C	 -1.301823	 0.443321	 -0.000031
O	 -0.003969	 0.658512	 0.000451
O	 -1.829879	 -0.616434	 -0.000857
C	 0.850537	 -0.484732	 0.000380
C	 1.845983	 -0.307544	 1.126440
H	 1.339955	 -0.554038	 -0.961381
H	 0.246703	 -1.371843	 0.133475
H	 2.436245	 0.589878	 0.980643
H	 2.517772	 -1.158855	 1.161117
H	 1.337849	 -0.231865	 2.080883

	symmetry c1
}
set optking {
	frozen_dihedral = ("
		7 5 3 2
	")
}

ee = optimize('scf')
oeprop('DIPOLE', 'QUADRUPOLE', 'MULLIKEN_CHARGES')
f=open( 'psi4out.xyz', 'w' )
f.write( "11  " )
f.write( str(ee) + "\n" )
f.write( MOL.save_string_xyz() )
f.close()
--------------------------------------------------------------------------

    Molecular point group: c1
  Charge       = 0
  Multiplicity = 1
  Basis Set: 6-31G*
  Basis Set:
  @DF-RHF Final Energy:  -266.82632027199782
    Total Energy =                       -266.8263202719978153
    Molecular point group: c1
  Basis Set: 6-31G*
  Basis Set:
  Basis Set: 6-31G*
  Basis Set:
  @DF-RHF Final Energy:  -266.82664742763461
    Total Energy =                       -266.8266474276346685
  Basis Set: 6-31G*
  Basis Set:
  Basis Set: 6-31G*
  Basis Set:
  @DF-RHF Final Energy:  -266.82601355705128
    Total Energy =                       -266.8260135570512261
  Basis Set: 6-31G*
  Basis Set:
  Basis Set: 6-31G*
  Basis Set:
  @DF-RHF Final Energy:  -266.82697529751334
    Total Energy =                       -266.8269752975135134
  Basis Set: 6-31G*
  Basis Set:
  Basis Set: 6-31G*
  Basis Set:
  @DF-RHF Final Energy:  -266.82705828435962
    Total Energy =                       -266.8270582843595662
  Basis Set: 6-31G*
  Basis Set:
  Basis Set: 6-31G*
  Basis Set:
  @DF-RHF Final Energy:  -266.82706706383362
    Total Energy =                       -266.8270670638337378
  Basis Set: 6-31G*
  Basis Set:
  Charge       = 0
  Multiplicity = 1
  Basis Set: 6-31G*
  Basis Set:

    Orbital Energies (a.u.)
    -----------------------

    Doubly Occupied:

       1A    -20.612213     2A    -20.556108     3A    -11.379621
       4A    -11.290683     5A    -11.226596     6A     -1.473834
       7A     -1.374261     8A     -1.052030     9A     -0.906711
      10A     -0.801254    11A     -0.743988    12A     -0.683935
      13A     -0.669073    14A     -0.606674    15A     -0.570952
      16A     -0.553580    17A     -0.531391    18A     -0.504814
      19A     -0.457080    20A     -0.452839

  @DF-RHF Final Energy:  -266.82706747073576

   => Energetics <=

    Nuclear Repulsion Energy =            179.4420269772706149
    One-Electron Energy =                -719.6429109063003580
    Two-Electron Energy =                 273.3738164582940158
    DFT Exchange-Correlation Energy =       0.0000000000000000
    Empirical Dispersion Energy =           0.0000000000000000
    PCM Polarization Energy =               0.0000000000000000
    EFP Energy =                            0.0000000000000000
    Total Energy =                       -266.8270674707356989
    Molecular point group: c1
  Basis Set: 6-31G*
  Basis Set:

  -Total Gradient:
     Atom            X                  Y                   Z
    ------   -----------------  -----------------  -----------------
       1       -0.000002489612     0.000006002839    -0.000009714110
       2       -0.000040285746     0.000006208295     0.000493735108
       3        0.000098464212     0.000052853573    -0.000661125252
       4        0.000023904661     0.000011842566    -0.000008682218
       5       -0.000491198174    -0.000366452340     0.000007479972
       6        0.000019530026     0.000002846576    -0.000009984572
       7        0.000383492312     0.000303120831     0.000184963348
       8        0.000005037826    -0.000015598390    -0.000002829642
       9        0.000004058340     0.000000674259     0.000009582968
      10        0.000003005564     0.000000051391     0.000003358046
      11       -0.000003519405    -0.000001549600    -0.000006783647

  **** Optimization is complete! (in 7 steps) ****
    Final optimized geometry and variables:
    Molecular point group: c1

    Geometry (in Angstrom), charge = 0, multiplicity = 1:

    H           -1.718702896111     1.480637167711    -0.243038069316
    C           -1.219327643469     0.517616010402    -0.241641634964
    O            0.084951725218     0.697787366010    -0.226398092224
    O           -1.790972136873    -0.519034970884    -0.252174650064
    C            0.954979168193    -0.435936710372    -0.201932896112
    C            1.969788799523    -0.242328473101     0.906970583242
    H            1.439071710909    -0.479049362432    -1.168636916768
    H            0.372283629171    -1.331471827551    -0.062199189284
    H            2.522850266436     0.679221489745     0.766772308871
    H            2.673932908877    -1.068281208675     0.911241793242
    H            1.479960571111    -0.205164304942     1.873579379222

  Mulliken Charges: (a.u.)
   Center  Symbol    Alpha    Beta     Spin     Total
       1     H     0.41222  0.41222  0.00000  0.17555
       2     C     2.72663  2.72663  0.00000  0.54673
       3     O     4.29236  4.29236  0.00000 -0.58472
       4     O     4.26329  4.26329  0.00000 -0.52657
       5     C     3.01488  3.01488  0.00000 -0.02977
       6     C     3.24728  3.24728  0.00000 -0.49457
       7     H     0.41140  0.41140  0.00000  0.17719
       8     H     0.39372  0.39372  0.00000  0.21256
       9     H     0.41038  0.41038  0.00000  0.17925
      10     H     0.41598  0.41598  0.00000  0.16804
      11     H     0.41185  0.41185  0.00000  0.17631

   Total alpha = 20.00000, Total beta = 20.00000, Total charge =  0.00000
