  ==> Input File <==

--------------------------------------------------------------------------
set {
	reference rhf
	basis 6-31G*
}

set_num_threads( 4 )
memory 2 gb

molecule MOL {
0 1

H	 -1.334351	 1.734435	 2.672011
O	 -1.004190	 2.384976	 2.068540
C	 -0.545330	 1.756556	 0.901696
C	 0.781323	 1.056640	 1.137862
H	 -1.270773	 1.044894	 0.517471
H	 -0.417679	 2.530281	 0.157717
O	 1.171513	 0.459272	 -0.058250
H	 0.674463	 0.306700	 1.924089
H	 1.520914	 1.780028	 1.475943
C	 2.397842	 -0.198080	 -0.002151
H	 2.508049	 -0.905315	 -0.822092
H	 3.173794	 0.550865	 -0.078850
H	 2.517602	 -0.735921	 0.936026

	symmetry c1
}
set optking {
	frozen_dihedral = ("
		4 7 10 13
	")
}

ee = optimize('scf')
oeprop('DIPOLE', 'QUADRUPOLE', 'MULLIKEN_CHARGES')
f=open( 'psi4out.xyz', 'w' )
f.write( "13  " )
f.write( str(ee) + "\n" )
f.write( MOL.save_string_xyz() )
f.close()
--------------------------------------------------------------------------

    Molecular point group: c1
  Charge       = 0
  Multiplicity = 1
  Basis Set: 6-31G*
  Basis Set:
  @DF-RHF Final Energy:  -267.94866643192074
    Total Energy =                       -267.9486664319207421
    Molecular point group: c1
  Basis Set: 6-31G*
  Basis Set:
  Basis Set: 6-31G*
  Basis Set:
  @DF-RHF Final Energy:  -267.94941483185113
    Total Energy =                       -267.9494148318509588
  Basis Set: 6-31G*
  Basis Set:
  Basis Set: 6-31G*
  Basis Set:
  @DF-RHF Final Energy:  -267.94961226612179
    Total Energy =                       -267.9496122661217896
  Basis Set: 6-31G*
  Basis Set:
  Basis Set: 6-31G*
  Basis Set:
  @DF-RHF Final Energy:  -267.94961352745742
    Total Energy =                       -267.9496135274574726
  Basis Set: 6-31G*
  Basis Set:
  Charge       = 0
  Multiplicity = 1
  Basis Set: 6-31G*
  Basis Set:

    Orbital Energies (a.u.)
    -----------------------

    Doubly Occupied:

       1A    -20.561432     2A    -20.560111     3A    -11.271071
       4A    -11.270250     5A    -11.268877     6A     -1.387596
       7A     -1.364989     8A     -1.018467     9A     -0.913460
      10A     -0.841972    11A     -0.709102    12A     -0.673476
      13A     -0.660609    14A     -0.636242    15A     -0.596613
      16A     -0.568228    17A     -0.547110    18A     -0.489087
      19A     -0.482494    20A     -0.438383    21A     -0.420291

  @DF-RHF Final Energy:  -267.94961385282875

   => Energetics <=

    Nuclear Repulsion Energy =            190.1538753122203218
    One-Electron Energy =                -742.8472565792640125
    Two-Electron Energy =                 284.7437674142147443
    DFT Exchange-Correlation Energy =       0.0000000000000000
    Empirical Dispersion Energy =           0.0000000000000000
    PCM Polarization Energy =               0.0000000000000000
    EFP Energy =                            0.0000000000000000
    Total Energy =                       -267.9496138528289748
    Molecular point group: c1
  Basis Set: 6-31G*
  Basis Set:

  -Total Gradient:
     Atom            X                  Y                   Z
    ------   -----------------  -----------------  -----------------
       1       -0.000002463140     0.000002392879     0.000004836116
       2       -0.000009757232     0.000001396168     0.000010964557
       3        0.000004188066    -0.000001881659    -0.000000209350
       4       -0.000979333939    -0.001796166191     0.000581598890
       5       -0.000002033961     0.000001872466    -0.000002343557
       6        0.000004880501    -0.000005768964    -0.000000994130
       7        0.001718409747     0.003182035043    -0.000520637362
       8       -0.000000604492    -0.000001409603    -0.000006134264
       9        0.000000232690    -0.000003067735    -0.000003496658
      10       -0.001826187833    -0.003558677392    -0.001160723625
      11       -0.000005267534     0.000002569407     0.000002953709
      12       -0.000004022589     0.000003025540     0.000000103385
      13        0.001101959719     0.002173680045     0.001094082290

  **** Optimization is complete! (in 5 steps) ****
    Final optimized geometry and variables:
    Molecular point group: c1

    Geometry (in Angstrom), charge = 0, multiplicity = 1:

    H           -1.895688515543     0.631981666856     1.830337545372
    O           -1.564347204909     1.284670592590     1.229851481885
    C           -1.095492476951     0.659863717892     0.064840291599
    C            0.233584023186    -0.033255941315     0.307286166046
    H           -1.814499580428    -0.056049468877    -0.323465034346
    H           -0.968697087917     1.434652515922    -0.678114915456
    O            0.628429995340    -0.633419149183    -0.886460344256
    H            0.128001499108    -0.782460993889     1.093703200184
    H            0.967105423129     0.695707039381     0.646828674222
    C            1.858739025236    -1.287496800485    -0.836412580969
    H            1.900431812759    -1.985170187949    -1.661359422988
    H            2.680323904531    -0.580271380849    -0.929755242961
    H            1.987616997434    -1.825129812384     0.100133979630

  Mulliken Charges: (a.u.)
   Center  Symbol    Alpha    Beta     Spin     Total
       1     H     0.28127  0.28127  0.00000  0.43746
       2     O     4.37088  4.37088  0.00000 -0.74177
       3     C     3.00479  3.00479  0.00000 -0.00957
       4     C     2.99669  2.99669  0.00000  0.00663
       5     H     0.42228  0.42228  0.00000  0.15545
       6     H     0.40842  0.40842  0.00000  0.18317
       7     O     4.30877  4.30877  0.00000 -0.61754
       8     H     0.43696  0.43696  0.00000  0.12607
       9     H     0.42362  0.42362  0.00000  0.15277
      10     C     3.07876  3.07876  0.00000 -0.15752
      11     H     0.41188  0.41188  0.00000  0.17624
      12     H     0.42572  0.42572  0.00000  0.14856
      13     H     0.42997  0.42997  0.00000  0.14006

   Total alpha = 21.00000, Total beta = 21.00000, Total charge =  0.00000
