  ==> Input File <==

--------------------------------------------------------------------------
set {
	reference rhf
	basis 6-31G*
}

set_num_threads( 1 )
memory 2 gb

molecule MOL {
0 1

O	 3.811942	 -1.246000	 2.459977
C	 3.014090	 -1.127262	 1.586825
C	 1.517343	 -1.048823	 1.766779
O	 3.347903	 -1.046386	 0.304773
C	 1.084151	 -1.125195	 3.229184
H	 1.187416	 -0.130619	 1.292184
H	 1.079409	 -1.856927	 1.186366
C	 -0.435910	 -1.152554	 3.421949
H	 1.508893	 -0.286928	 3.773264
H	 1.514324	 -2.017473	 3.671014
C	 -1.161738	 0.131843	 3.011329
H	 -0.638707	 -1.345316	 4.472872
H	 -0.855675	 -1.995275	 2.874565
C	 -2.658854	 0.095402	 3.324883
H	 -0.707667	 0.978693	 3.523659
H	 -1.030321	 0.312530	 1.946879
C	 -3.395409	 1.371664	 2.914061
H	 -2.799058	 -0.071890	 4.391462
H	 -3.111538	 -0.757462	 2.821495
C	 -4.889205	 1.328687	 3.234103
H	 -2.943679	 2.225028	 3.415411
H	 -3.260058	 1.538223	 1.847422
H	 -5.383347	 2.246710	 2.931345
H	 -5.058306	 1.197932	 4.299234
H	 -5.376902	 0.505446	 2.719612
C	 4.728119	 -1.109107	 -0.004993
H	 4.882018	 -1.033965	 -1.071845
H	 5.068212	 -2.067527	 0.355250
H	 5.265056	 -0.311663	 0.488280

	symmetry c1
}
set optking {
	frozen_dihedral = ("
		21 17 14 11,
		17 14 11 15,
		15 11 8 5,
		6 3 5 9,
		11 8 5 9,
		1 2 4 26,
		6 3 2 1
	")
}

ee = energy('scf')
oeprop('DIPOLE', 'QUADRUPOLE', 'MULLIKEN_CHARGES')
f=open( 'psi4out.xyz', 'w' )
f.write( "29  " )
f.write( str(ee) + "\n" )
f.write( MOL.save_string_xyz() )
f.close()
--------------------------------------------------------------------------

    Molecular point group: c1

    Geometry (in Angstrom), charge = 0, multiplicity = 1:

       Center              X                  Y                   Z               Mass
    ------------   -----------------  -----------------  -----------------  -----------------
           O          3.322417707434    -0.795843186349     0.187669724949    15.994914619560
           C          2.524565707434    -0.677105186349    -0.685482275051    12.000000000000
           C          1.027818707434    -0.598666186349    -0.505528275051    12.000000000000
           O          2.858378707434    -0.596229186349    -1.967534275051    15.994914619560
           C          0.594626707434    -0.675038186349     0.956876724949    12.000000000000
           H          0.697891707434     0.319537813651    -0.980123275051     1.007825032070
           H          0.589884707434    -1.406770186349    -1.085941275051     1.007825032070
           C         -0.925434292566    -0.702397186349     1.149641724949    12.000000000000
           H          1.019368707434     0.163228813651     1.500956724949     1.007825032070
           H          1.024799707434    -1.567316186349     1.398706724949     1.007825032070
           C         -1.651262292566     0.581999813651     0.739021724949    12.000000000000
           H         -1.128231292566    -0.895159186349     2.200564724949     1.007825032070
           H         -1.345199292566    -1.545118186349     0.602257724949     1.007825032070
           C         -3.148378292566     0.545558813651     1.052575724949    12.000000000000
           H         -1.197191292566     1.428849813651     1.251351724949     1.007825032070
           H         -1.519845292566     0.762686813651    -0.325428275051     1.007825032070
           C         -3.884933292566     1.821820813651     0.641753724949    12.000000000000
           H         -3.288582292566     0.378266813651     2.119154724949     1.007825032070
           H         -3.601062292566    -0.307305186349     0.549187724949     1.007825032070
           C         -5.378729292566     1.778843813651     0.961795724949    12.000000000000
           H         -3.433203292566     2.675184813651     1.143103724949     1.007825032070
           H         -3.749582292566     1.988379813651    -0.424885275051     1.007825032070
           H         -5.872871292566     2.696866813651     0.659037724949     1.007825032070
           H         -5.547830292566     1.648088813651     2.026926724949     1.007825032070
           H         -5.866426292566     0.955602813651     0.447304724949     1.007825032070
           C          4.238594707434    -0.658950186349    -2.277300275051    12.000000000000
           H          4.392493707434    -0.583808186349    -3.344152275051     1.007825032070
           H          4.578687707434    -1.617370186349    -1.917057275051     1.007825032070
           H          4.775531707434     0.138493813651    -1.784027275051     1.007825032070

  Charge       = 0
  Multiplicity = 1
  Basis Set: 6-31G*
  Basis Set:

    Orbital Energies (a.u.)
    -----------------------

    Doubly Occupied:

       1A    -20.602413     2A    -20.545112     3A    -11.372392
       4A    -11.280675     5A    -11.234786     6A    -11.219120
       7A    -11.217660     8A    -11.215995     9A    -11.215848
      10A    -11.214450    11A    -11.209062    12A     -1.468925
      13A     -1.362320    14A     -1.098082    15A     -1.066805
      16A     -1.019393    17A     -0.976855    18A     -0.928399
      19A     -0.861587    20A     -0.799219    21A     -0.790442
      22A     -0.762873    23A     -0.700496    24A     -0.684017
      25A     -0.672322    26A     -0.651276    27A     -0.629193
      28A     -0.606184    29A     -0.595416    30A     -0.581805
      31A     -0.567195    32A     -0.548900    33A     -0.531898
      34A     -0.528794    35A     -0.513577    36A     -0.511437
      37A     -0.496381    38A     -0.477799    39A     -0.470158
      40A     -0.462382    41A     -0.458881    42A     -0.455064
      43A     -0.441170    44A     -0.435629

  @DF-RHF Final Energy:  -501.04246147047161

   => Energetics <=

    Nuclear Repulsion Energy =            610.2807534497646884
    One-Electron Energy =               -1891.6816173824067846
    Two-Electron Energy =                 780.3584024621690105
    DFT Exchange-Correlation Energy =       0.0000000000000000
    Empirical Dispersion Energy =           0.0000000000000000
    PCM Polarization Energy =               0.0000000000000000
    EFP Energy =                            0.0000000000000000
    Total Energy =                       -501.0424614704730857

  Mulliken Charges: (a.u.)
   Center  Symbol    Alpha    Beta     Spin     Total
       1     O     4.28585  4.28585  0.00000 -0.57170
       2     C     2.60474  2.60474  0.00000  0.79052
       3     C     3.20956  3.20956  0.00000 -0.41913
       4     O     4.30843  4.30843  0.00000 -0.61686
       5     C     3.15385  3.15385  0.00000 -0.30770
       6     H     0.39868  0.39868  0.00000  0.20263
       7     H     0.40127  0.40127  0.00000  0.19746
       8     C     3.15663  3.15663  0.00000 -0.31327
       9     H     0.41307  0.41307  0.00000  0.17386
      10     H     0.40875  0.40875  0.00000  0.18250
      11     C     3.15508  3.15508  0.00000 -0.31017
      12     H     0.41821  0.41821  0.00000  0.16358
      13     H     0.42385  0.42385  0.00000  0.15230
      14     C     3.15029  3.15029  0.00000 -0.30059
      15     H     0.42260  0.42260  0.00000  0.15479
      16     H     0.42358  0.42358  0.00000  0.15283
      17     C     3.15146  3.15146  0.00000 -0.30292
      18     H     0.42332  0.42332  0.00000  0.15336
      19     H     0.42397  0.42397  0.00000  0.15206
      20     C     3.23935  3.23935  0.00000 -0.47871
      21     H     0.42280  0.42280  0.00000  0.15440
      22     H     0.42342  0.42342  0.00000  0.15315
      23     H     0.41923  0.41923  0.00000  0.16154
      24     H     0.42154  0.42154  0.00000  0.15691
      25     H     0.42183  0.42183  0.00000  0.15635
      26     C     3.09291  3.09291  0.00000 -0.18582
      27     H     0.40735  0.40735  0.00000  0.18530
      28     H     0.40952  0.40952  0.00000  0.18095
      29     H     0.40881  0.40881  0.00000  0.18238

   Total alpha = 44.00000, Total beta = 44.00000, Total charge = -0.00000
