  ==> Input File <==

--------------------------------------------------------------------------
set {
	reference rhf
	basis cc-pvtz
}

set_num_threads( 4 )
memory 2 gb

molecule MOL {
0 1

O	 -0.694481	 1.313155	 -0.204815
C	 -0.862519	 0.151932	 -0.046791
C	 -2.171428	 -0.477048	 0.339095
O	 0.085519	 -0.757083	 -0.192238
H	 -2.467997	 -1.191667	 -0.417688
H	 -2.923379	 0.287970	 0.444097
H	 -2.053854	 -1.015120	 1.270901
C	 0.870762	 -0.743604	 -1.378699
C	 2.036272	 0.217237	 -1.267932
H	 0.241052	 -0.495860	 -2.218880
H	 1.219068	 -1.759740	 -1.487795
H	 2.647597	 0.151076	 -2.160880
H	 1.688867	 1.236488	 -1.168844
H	 2.654673	 -0.028303	 -0.413014

	symmetry c1
}
set optking {
	frozen_dihedral = ("
		8 4 2 1
	")
}

ee = optimize('scf')
oeprop('DIPOLE', 'QUADRUPOLE', 'MULLIKEN_CHARGES')
f=open( 'psi4out.xyz', 'w' )
f.write( "14  " )
f.write( str(ee) + "\n" )
f.write( MOL.save_string_xyz() )
f.close()
--------------------------------------------------------------------------

    Molecular point group: c1
  Charge       = 0
  Multiplicity = 1
  Basis Set: CC-PVTZ
  Basis Set:
  @DF-RHF Final Energy:  -305.97902823770772
    Total Energy =                       -305.9790282377074959
    Molecular point group: c1
  Basis Set: CC-PVTZ
  Basis Set:
  Basis Set: CC-PVTZ
  Basis Set:
  @DF-RHF Final Energy:  -305.97715501927621
    Total Energy =                       -305.9771550192763812
  Basis Set: CC-PVTZ
  Basis Set:
  Basis Set: CC-PVTZ
  Basis Set:
  @DF-RHF Final Energy:  -305.98020962032820
    Total Energy =                       -305.9802096203281394
  Basis Set: CC-PVTZ
  Basis Set:
  Basis Set: CC-PVTZ
  Basis Set:
  @DF-RHF Final Energy:  -305.98039845436028
    Total Energy =                       -305.9803984543602837
  Basis Set: CC-PVTZ
  Basis Set:
  @DF-RHF Final Energy:  -305.98050663566300
    Total Energy =                       -305.9805066356630618
  @DF-RHF Final Energy:  -305.98054418945742
    Total Energy =                       -305.9805441894576461
  @DF-RHF Final Energy:  -305.98055381551592
    Total Energy =                       -305.9805538155163731
  @DF-RHF Final Energy:  -305.98055577336720
    Total Energy =                       -305.9805557733670298
  @DF-RHF Final Energy:  -305.98055478617897
    Total Energy =                       -305.9805547861790274
  @DF-RHF Final Energy:  -305.98055341554704
    Total Energy =                       -305.9805534155471491
  @DF-RHF Final Energy:  -305.98055566882249
    Total Energy =                       -305.9805556688226034
  @DF-RHF Final Energy:  -305.98055413522366
    Total Energy =                       -305.9805541352237128
  @DF-RHF Final Energy:  -305.93602844104714
    Total Energy =                       -305.9360284410471422
  @DF-RHF Final Energy:  -305.94692014376039
    Total Energy =                       -305.9469201437607353
  @DF-RHF Final Energy:  -305.96447167579834
    Total Energy =                       -305.9644716757980518
  @DF-RHF Final Energy:  -305.97396343204559
    Total Energy =                       -305.9739634320456503
  @DF-RHF Final Energy:  -305.97866788713367
    Total Energy =                       -305.9786678871333834
  @DF-RHF Final Energy:  -305.97999772791241
    Total Energy =                       -305.9799977279122345
  @DF-RHF Final Energy:  -305.98049788371020
    Total Energy =                       -305.9804978837100293
  @DF-RHF Final Energy:  -305.98054962974095
    Total Energy =                       -305.9805496297411196
  @DF-RHF Final Energy:  -305.98160127377770
    Total Energy =                       -305.9816012737779261
  @DF-RHF Final Energy:  -305.98164109839263
    Total Energy =                       -305.9816410983927426
  @DF-RHF Final Energy:  -305.96631172670209
    Total Energy =                       -305.9663117267019743
  @DF-RHF Final Energy:  -305.98061333357919
    Total Energy =                       -305.9806133335791856
  @DF-RHF Final Energy:  -305.98172916142619
    Total Energy =                       -305.9817291614263013
  @DF-RHF Final Energy:  -305.98174072065535
    Total Energy =                       -305.9817407206555799
  @DF-RHF Final Energy:  -305.98174309621731
    Total Energy =                       -305.9817430962173148
  @DF-RHF Final Energy:  -305.98174274002213
    Total Energy =                       -305.9817427400221277
  @DF-RHF Final Energy:  -305.98174262494325
    Total Energy =                       -305.9817426249431946
  @DF-RHF Final Energy:  -305.97925308453671
    Total Energy =                       -305.9792530845365377
  @DF-RHF Final Energy:  -305.94548317742908
    Total Energy =                       -305.9454831774289687
  @DF-RHF Final Energy:  -305.94600077671009
    Total Energy =                       -305.9460007767102070
  @DF-RHF Final Energy:  -305.95968303295922
    Total Energy =                       -305.9596830329590489
  @DF-RHF Final Energy:  -305.97650381949319
    Total Energy =                       -305.9765038194933595
  @DF-RHF Final Energy:  -305.98047660281446
    Total Energy =                       -305.9804766028142922
  @DF-RHF Final Energy:  -305.98121042377716
    Total Energy =                       -305.9812104237771564
  Basis Set: CC-PVTZ
  Basis Set:
  @DF-RHF Final Energy:  -305.98140056547089
    Total Energy =                       -305.9814005654706648
  Basis Set: CC-PVTZ
  Basis Set:
  Basis Set: CC-PVTZ
  Basis Set:
  @DF-RHF Final Energy:  -305.98148672760806
    Total Energy =                       -305.9814867276082850
  Basis Set: CC-PVTZ
  Basis Set:
  Basis Set: CC-PVTZ
  Basis Set:
  @DF-RHF Final Energy:  -305.98156970794076
    Total Energy =                       -305.9815697079410484
  Basis Set: CC-PVTZ
  Basis Set:
  Charge       = 0
  Multiplicity = 1
  Basis Set: CC-PVTZ
  Basis Set:

    Orbital Energies (a.u.)
    -----------------------

    Doubly Occupied:

       1A    -20.583609     2A    -20.538932     3A    -11.368737
       4A    -11.287345     5A    -11.233087     6A    -11.221094
       7A     -1.465150     8A     -1.367375     9A     -1.055759
      10A     -1.003494    11A     -0.871757    12A     -0.781122
      13A     -0.698936    14A     -0.687382    15A     -0.657745
      16A     -0.622337    17A     -0.582515    18A     -0.572339
      19A     -0.554679    20A     -0.532546    21A     -0.517836
      22A     -0.502068    23A     -0.454258    24A     -0.440305

  @DF-RHF Final Energy:  -305.98162336366943

   => Energetics <=

    Nuclear Repulsion Energy =            245.4190766841463756
    One-Electron Energy =                -903.6005850390916976
    Two-Electron Energy =                 352.1998849912758942
    DFT Exchange-Correlation Energy =       0.0000000000000000
    Empirical Dispersion Energy =           0.0000000000000000
    PCM Polarization Energy =               0.0000000000000000
    EFP Energy =                            0.0000000000000000
    Total Energy =                       -305.9816233636694278
    Molecular point group: c1
  Basis Set: CC-PVTZ
  Basis Set:

  -Total Gradient:
     Atom            X                  Y                   Z
    ------   -----------------  -----------------  -----------------
       1        0.000829977577     0.005836314031     0.006964235835
       2        0.000308141669    -0.012555047262    -0.008648560657
       3       -0.000430275497    -0.000724923115    -0.001035799202
       4        0.001186308317     0.013655143383     0.001408456661
       5        0.000394398976     0.000289412631     0.000305301359
       6       -0.000058029790     0.000277644644     0.000309586363
       7       -0.000358958914     0.000225647387     0.000007310699
       8       -0.000595106342    -0.007545518672     0.000460253620
       9       -0.001097676704     0.000572468580     0.000172261376
      10        0.000077632718     0.000031469577     0.000152343869
      11       -0.000067835763    -0.000000179347    -0.000047001033
      12       -0.000125869042    -0.000006764986    -0.000026774542
      13        0.000022194515    -0.000027091453    -0.000007342268
      14       -0.000084901721    -0.000028575397    -0.000014272077

    Molecular point group: c1

    Geometry (in Angstrom), charge = 0, multiplicity = 1:

    O           -1.459751382140     0.871076264763    -0.565624060625
    C           -0.961264357389     0.142015164864     0.217905432737
    C           -1.719398452821    -0.660708805687     1.236730302822
    O            0.361825273286     0.021657063208     0.358402949300
    H           -1.460849051075    -1.708281831281     1.143152700567
    H           -2.779848075258    -0.520001296832     1.104086360159
    H           -1.424933334875    -0.342498260114     2.228813243079
    C            1.134332918915    -0.193665406190    -0.813642465868
    C            2.591634460392    -0.171363139639    -0.424287216413
    H            0.909964207694     0.575294951127    -1.538717416488
    H            0.860714128996    -1.154295174934    -1.236205555389
    H            3.207048968439    -0.352737301474    -1.297579014093
    H            2.860355849300     0.791140825416    -0.008070878784
    H            2.806168973125    -0.934618986983     0.312988123234

  Mulliken Charges: (a.u.)
   Center  Symbol    Alpha    Beta     Spin     Total
       1     O     4.18387  4.18387  0.00000 -0.36775
       2     C     2.80468  2.80468  0.00000  0.39064
       3     C     3.13708  3.13708  0.00000 -0.27416
       4     O     4.16499  4.16499  0.00000 -0.32998
       5     H     0.44922  0.44922  0.00000  0.10156
       6     H     0.43826  0.43826  0.00000  0.12349
       7     H     0.44438  0.44438  0.00000  0.11125
       8     C     2.97572  2.97572  0.00000  0.04856
       9     C     3.13464  3.13464  0.00000 -0.26929
      10     H     0.44648  0.44648  0.00000  0.10704
      11     H     0.46467  0.46467  0.00000  0.07065
      12     H     0.45617  0.45617  0.00000  0.08766
      13     H     0.44824  0.44824  0.00000  0.10353
      14     H     0.45160  0.45160  0.00000  0.09681

   Total alpha = 24.00000, Total beta = 24.00000, Total charge = -0.00000
