  ==> Input File <==

--------------------------------------------------------------------------
set {
	reference rhf
	basis 6-31G*
}

set_num_threads( 1 )
memory 2 gb

molecule MOL {
0 1

H	 -2.698709	 -0.000305	 0.034435
C	 -1.693833	 0.000034	 0.434417
O	 -0.828952	 -0.000968	 -0.659236
H	 -1.574200	 0.882896	 1.055746
H	 -1.574147	 -0.881698	 1.057355
C	 -0.579194	 1.216551	 -1.322389
C	 -1.832045	 1.793239	 -1.978676
C	 0.129920	 2.234073	 -0.430893
H	 0.106986	 0.931248	 -2.110926
H	 -2.336127	 1.030380	 -2.562197
H	 -1.561334	 2.607275	 -2.643730
H	 -2.533500	 2.187142	 -1.250002
H	 0.983337	 1.776173	 0.057436
H	 0.486352	 3.066848	 -1.029145
H	 -0.526071	 2.638823	 0.333105

	symmetry c1
}
set optking {
	frozen_dihedral = ("
		9 6 3 2
	")
}

ee = energy('scf')
oeprop('DIPOLE', 'QUADRUPOLE', 'MULLIKEN_CHARGES')
f=open( 'psi4out.xyz', 'w' )
f.write( "15  " )
f.write( str(ee) + "\n" )
f.write( MOL.save_string_xyz() )
f.close()
--------------------------------------------------------------------------

    Molecular point group: c1

    Geometry (in Angstrom), charge = 0, multiplicity = 1:

       Center              X                  Y                   Z               Mass
    ------------   -----------------  -----------------  -----------------  -----------------
           H         -1.722969561989    -1.043347806538     0.807023386822     1.007825032070
           C         -0.718093561989    -1.043008806538     1.207005386822    12.000000000000
           O          0.146787438011    -1.044010806538     0.113352386822    15.994914619560
           H         -0.598460561989    -0.160146806538     1.828334386822     1.007825032070
           H         -0.598407561989    -1.924740806538     1.829943386822     1.007825032070
           C          0.396545438011     0.173508193462    -0.549800613178    12.000000000000
           C         -0.856305561989     0.750196193462    -1.206087613178    12.000000000000
           C          1.105659438011     1.191030193462     0.341695386822    12.000000000000
           H          1.082725438011    -0.111794806538    -1.338337613178     1.007825032070
           H         -1.360387561989    -0.012662806538    -1.789608613178     1.007825032070
           H         -0.585594561989     1.564232193462    -1.871141613178     1.007825032070
           H         -1.557760561989     1.144099193462    -0.477413613178     1.007825032070
           H          1.959076438011     0.733130193462     0.830024386822     1.007825032070
           H          1.462091438011     2.023805193462    -0.256556613178     1.007825032070
           H          0.449668438011     1.595780193462     1.105693386822     1.007825032070

  Charge       = 0
  Multiplicity = 1
  Basis Set: 6-31G*
  Basis Set:

    Orbital Energies (a.u.)
    -----------------------

    Doubly Occupied:

       1A    -20.546130     2A    -11.275233     3A    -11.261082
       4A    -11.210803     5A    -11.210574     6A     -1.369601
       7A     -1.050359     8A     -0.939794     9A     -0.931237
      10A     -0.781338    11A     -0.674015    12A     -0.641140
      13A     -0.632853    14A     -0.575041    15A     -0.564865
      16A     -0.551145    17A     -0.534677    18A     -0.500410
      19A     -0.496539    20A     -0.441555    21A     -0.403652

  @DF-RHF Final Energy:  -232.13500433440748

   => Energetics <=

    Nuclear Repulsion Energy =            198.8779528690088227
    One-Electron Energy =                -708.8417406756134369
    Two-Electron Energy =                 277.8287834721970739
    DFT Exchange-Correlation Energy =       0.0000000000000000
    Empirical Dispersion Energy =           0.0000000000000000
    PCM Polarization Energy =               0.0000000000000000
    EFP Energy =                            0.0000000000000000
    Total Energy =                       -232.1350043344075402

  Mulliken Charges: (a.u.)
   Center  Symbol    Alpha    Beta     Spin     Total
       1     H     0.42709  0.42709  0.00000  0.14581
       2     C     3.08109  3.08109  0.00000 -0.16217
       3     O     4.31360  4.31360  0.00000 -0.62720
       4     H     0.43073  0.43073  0.00000  0.13854
       5     H     0.41336  0.41336  0.00000  0.17329
       6     C     2.90896  2.90896  0.00000  0.18207
       7     C     3.25335  3.25335  0.00000 -0.50670
       8     C     3.25313  3.25313  0.00000 -0.50626
       9     H     0.41478  0.41478  0.00000  0.17044
      10     H     0.41142  0.41142  0.00000  0.17716
      11     H     0.41939  0.41939  0.00000  0.16122
      12     H     0.42147  0.42147  0.00000  0.15707
      13     H     0.41113  0.41113  0.00000  0.17773
      14     H     0.41922  0.41922  0.00000  0.16157
      15     H     0.42128  0.42128  0.00000  0.15743

   Total alpha = 21.00000, Total beta = 21.00000, Total charge = -0.00000
