  ==> Input File <==

--------------------------------------------------------------------------
set {
	reference rhf
	basis cc-pvtz
}

set_num_threads( 4 )
memory 2 gb

molecule MOL {
0 1

H	 2.329664	 -2.054166	 0.253713
N	 1.348683	 -1.879324	 0.257782
C	 0.899787	 -1.449294	 -1.051190
C	 1.004849	 -0.914136	 1.282493
H	 1.152253	 -2.210045	 -1.779799
H	 1.370237	 -0.515343	 -1.364291
C	 -0.604844	 -1.250300	 -1.027473
H	 1.333446	 -1.287098	 2.244924
H	 1.481937	 0.053627	 1.116836
C	 -0.499919	 -0.715843	 1.303152
H	 -1.088966	 -2.218238	 -0.868376
H	 -0.934703	 -0.872321	 -1.987912
N	 -0.976577	 -0.298712	 -0.000000
H	 -0.753912	 0.048582	 2.027901
H	 -0.976814	 -1.646961	 1.622810
C	 -2.391156	 -0.021003	 -0.000000
H	 -2.853954	 -0.458728	 -0.875714
H	 -2.853954	 -0.458728	 0.875714
H	 -2.614037	 1.049773	 -0.000000

	symmetry c1
}
set optking {
	frozen_dihedral = ("
		7 13 16 19
	")
}

ee = optimize('scf')
oeprop('DIPOLE', 'QUADRUPOLE', 'MULLIKEN_CHARGES')
f=open( 'psi4out.xyz', 'w' )
f.write( "19  " )
f.write( str(ee) + "\n" )
f.write( MOL.save_string_xyz() )
f.close()
--------------------------------------------------------------------------

    Molecular point group: c1
  Charge       = 0
  Multiplicity = 1
  Basis Set: CC-PVTZ
  Basis Set:
  @DF-RHF Final Energy:  -305.30293690641037
    Total Energy =                       -305.3029369064099683
    Molecular point group: c1
  Basis Set: CC-PVTZ
  Basis Set:
  Basis Set: CC-PVTZ
  Basis Set:
  @DF-RHF Final Energy:  -305.30378426138924
    Total Energy =                       -305.3037842613891257
  Basis Set: CC-PVTZ
  Basis Set:
  Basis Set: CC-PVTZ
  Basis Set:
  @DF-RHF Final Energy:  -305.30392488275112
    Total Energy =                       -305.3039248827507208
  Basis Set: CC-PVTZ
  Basis Set:
  Basis Set: CC-PVTZ
  Basis Set:
  @DF-RHF Final Energy:  -305.30393616133978
    Total Energy =                       -305.3039361613396068
  Basis Set: CC-PVTZ
  Basis Set:
  Charge       = 0
  Multiplicity = 1
  Basis Set: CC-PVTZ
  Basis Set:

    Orbital Energies (a.u.)
    -----------------------

    Doubly Occupied:

       1A    -15.532420     2A    -15.530761     3A    -11.236588
       4A    -11.236569     5A    -11.235790     6A    -11.235643
       7A    -11.232964     8A     -1.246427     9A     -1.185306
      10A     -1.023878    11A     -0.965222    12A     -0.861704
      13A     -0.858788    14A     -0.756022    15A     -0.691928
      16A     -0.633044    17A     -0.624761    18A     -0.606997
      19A     -0.604701    20A     -0.582474    21A     -0.544087
      22A     -0.534836    23A     -0.511707    24A     -0.488558
      25A     -0.468285    26A     -0.457813    27A     -0.365628
      28A     -0.339702

  @DF-RHF Final Energy:  -305.30393701109369

   => Energetics <=

    Nuclear Repulsion Energy =            339.7492392693029615
    One-Electron Energy =               -1086.9211453671630352
    Two-Electron Energy =                 441.8679690867664362
    DFT Exchange-Correlation Energy =       0.0000000000000000
    Empirical Dispersion Energy =           0.0000000000000000
    PCM Polarization Energy =               0.0000000000000000
    EFP Energy =                            0.0000000000000000
    Total Energy =                       -305.3039370110936375
    Molecular point group: c1
  Basis Set: CC-PVTZ
  Basis Set:

  -Total Gradient:
     Atom            X                  Y                   Z
    ------   -----------------  -----------------  -----------------
       1        0.000008321464    -0.000005629706    -0.000004977702
       2       -0.000010647477    -0.000004150485    -0.000004221638
       3        0.000007462917     0.000001215765    -0.000005510915
       4       -0.000004409163     0.000002316326     0.000012450384
       5        0.000007765706    -0.000003439831    -0.000000432933
       6       -0.000007713842     0.000001055031    -0.000003336416
       7        0.000498273308     0.002129977703    -0.001751763523
       8        0.000004820551    -0.000001967766     0.000000054012
       9       -0.000006863186     0.000001911894     0.000003733158
      10       -0.000010194620     0.000017966624     0.000035543785
      11        0.000001598389     0.000016626094     0.000007976505
      12        0.000003317903    -0.000003133560     0.000001368708
      13       -0.000656567640    -0.002995509193     0.001449515033
      14       -0.000001024234    -0.000002439920     0.000004768142
      15        0.000000390715     0.000005853814    -0.000011853439
      16        0.000081929557     0.000763048548     0.003965238810
      17       -0.000007271955    -0.000008292102    -0.000013539843
      18        0.000026509451    -0.000016464836    -0.000025929024
      19        0.000064302156     0.000101055600    -0.003659083104

  **** Optimization is complete! (in 5 steps) ****
    Final optimized geometry and variables:
    Molecular point group: c1

    Geometry (in Angstrom), charge = 0, multiplicity = 1:

    H            2.527853169093    -1.092738421565     0.138893670986
    N            1.544911014804    -0.928958873631     0.146300905049
    C            1.086506675060    -0.509661797994    -1.162753807799
    C            1.194758167957     0.037460122633     1.167508874709
    H            1.356283300558    -1.264454489392    -1.891545021807
    H            1.536585747239     0.434873655258    -1.474872136508
    C           -0.422526559167    -0.342725833235    -1.141632195874
    H            1.538459075338    -0.322673694539     2.129692826176
    H            1.654439352881     1.011679906324     0.989775805870
    C           -0.312969690656     0.210551836641     1.200002336566
    H           -0.884233082737    -1.325214903979    -1.003441610089
    H           -0.751932891290     0.043864003309    -2.098107076278
    N           -0.811705632729     0.587316332428    -0.103638197103
    H           -0.570626361812     0.987836657202     1.910236464831
    H           -0.770110327775    -0.720005267179     1.549718374157
    C           -2.219003324121     0.933153217354    -0.103867258491
    H           -2.691947319055     0.588731894165    -1.015645020420
    H           -2.758520112672     0.481717665248     0.725791645934
    H           -2.357572341898     2.008586221063    -0.068159910298

  Mulliken Charges: (a.u.)
   Center  Symbol    Alpha    Beta     Spin     Total
       1     H     0.43993  0.43993  0.00000  0.12015
       2     N     3.64275  3.64275  0.00000 -0.28550
       3     C     3.04187  3.04187  0.00000 -0.08374
       4     C     3.04177  3.04177  0.00000 -0.08354
       5     H     0.45271  0.45271  0.00000  0.09458
       6     H     0.46631  0.46631  0.00000  0.06739
       7     C     3.03311  3.03311  0.00000 -0.06622
       8     H     0.45273  0.45273  0.00000  0.09453
       9     H     0.46619  0.46619  0.00000  0.06761
      10     C     3.03408  3.03408  0.00000 -0.06817
      11     H     0.46952  0.46952  0.00000  0.06096
      12     H     0.45419  0.45419  0.00000  0.09162
      13     N     3.61624  3.61624  0.00000 -0.23248
      14     H     0.45392  0.45392  0.00000  0.09215
      15     H     0.46910  0.46910  0.00000  0.06181
      16     C     3.09265  3.09265  0.00000 -0.18529
      17     H     0.45846  0.45846  0.00000  0.08307
      18     H     0.46391  0.46391  0.00000  0.07219
      19     H     0.45056  0.45056  0.00000  0.09888

   Total alpha = 28.00000, Total beta = 28.00000, Total charge =  0.00000
