                              Psi4 1.0.54 Driver

  ==> Input File <==

--------------------------------------------------------------------------
set {
	reference rhf
	basis cc-pvtz
}

set_num_threads( 4 )
memory 2 gb

molecule MOL {
0 1

H	 -3.258660	 -0.290394	 1.471450
C	 -3.307964	 -0.275695	 0.374072
C	 -2.653809	 0.914422	 -0.273689
O	 -3.855140	 -1.148880	 -0.205112
C	 -1.216901	 1.136108	 0.207794
H	 -2.700131	 0.790676	 -1.347875
H	 -3.256452	 1.781007	 -0.010713
C	 -0.247837	 0.040196	 -0.230469
H	 -0.872882	 2.093195	 -0.169002
H	 -1.209325	 1.218376	 1.291938
C	 1.181757	 0.280428	 0.247371
H	 -0.259600	 -0.030819	 -1.314870
H	 -0.591284	 -0.923375	 0.136958
C	 2.151032	 -0.811012	 -0.202643
H	 1.515939	 1.247397	 -0.115449
H	 1.191514	 0.341223	 1.333422
C	 3.580021	 -0.656538	 0.320835
H	 2.170545	 -0.847575	 -1.289412
H	 1.766632	 -1.772905	 0.124928
C	 3.895568	 -1.478408	 1.568251
H	 3.751032	 0.392067	 0.543487
H	 4.280883	 -0.915741	 -0.468413
H	 3.205786	 -1.244936	 2.373041
H	 3.834873	 -2.543442	 1.379296
H	 4.898106	 -1.268447	 1.922929

	symmetry c1
}
set optking {
	frozen_dihedral = ("
		20 17 14 18
	")
}

ee,wfn = optimize('scf', return_wfn=True)
oeprop( wfn, 'DIPOLE', 'QUADRUPOLE', 'MULLIKEN_CHARGES')
f=open( 'psi4out.xyz', 'w' )
f.write( "25  " )
f.write( str(ee) + "\n" )
f.write( MOL.save_string_xyz() )
f.close()
--------------------------------------------------------------------------

    Molecular point group: c1
  Charge       = 0
  Multiplicity = 1
  Basis Set: CC-PVTZ
  Basis Set:
  @DF-RHF Final Energy:  -387.25761653409342
    Total Energy =                       -387.2576165340935859
    Molecular point group: c1
  Basis Set: CC-PVTZ
  Basis Set:
  Basis Set: CC-PVTZ
  Basis Set:
  @DF-RHF Final Energy:  -387.25799277269755
    Total Energy =                       -387.2579927726974347
  Basis Set: CC-PVTZ
  Basis Set:
  Basis Set: CC-PVTZ
  Basis Set:
  @DF-RHF Final Energy:  -387.25803320379970
    Total Energy =                       -387.2580332037993003
  Basis Set: CC-PVTZ
  Basis Set:
  Basis Set: CC-PVTZ
  Basis Set:
  @DF-RHF Final Energy:  -387.25776663941451
    Total Energy =                       -387.2577666394143989
  Basis Set: CC-PVTZ
  Basis Set:
  Basis Set: CC-PVTZ
  Basis Set:
  @DF-RHF Final Energy:  -387.25803814655785
    Total Energy =                       -387.2580381465573964
  Basis Set: CC-PVTZ
  Basis Set:
  Charge       = 0
  Multiplicity = 1
  Basis Set: CC-PVTZ
  Basis Set:

    Orbital Energies (a.u.)
    -----------------------

    Doubly Occupied:

       1A    -20.551418     2A    -11.321032     3A    -11.233867
       4A    -11.232957     5A    -11.221721     6A    -11.218628
       7A    -11.215735     8A    -11.214498     9A    -11.209077
      10A     -1.406421    11A     -1.105175    12A     -1.070298
      13A     -1.015378    14A     -0.943843    15A     -0.871757
      16A     -0.818449    17A     -0.790998    18A     -0.787238
      19A     -0.667794    20A     -0.663749    21A     -0.632449
      22A     -0.626193    23A     -0.607231    24A     -0.595666
      25A     -0.568136    26A     -0.559579    27A     -0.532542
      28A     -0.521940    29A     -0.515887    30A     -0.499465
      31A     -0.486007    32A     -0.482449    33A     -0.467157
      34A     -0.457683    35A     -0.441848    36A     -0.411920

  @DF-RHF Final Energy:  -387.25803759736328

   => Energetics <=

    Nuclear Repulsion Energy =            438.7574016842517608
    One-Electron Energy =               -1394.0985101472915630
    Two-Electron Energy =                 568.0830708656762909
    DFT Exchange-Correlation Energy =       0.0000000000000000
    Empirical Dispersion Energy =           0.0000000000000000
    PCM Polarization Energy =               0.0000000000000000
    EFP Energy =                            0.0000000000000000
    Total Energy =                       -387.2580375973634546
    Molecular point group: c1
  Basis Set: CC-PVTZ
  Basis Set:

  -Total Gradient:
     Atom            X                  Y                   Z
    ------   -----------------  -----------------  -----------------
       1       -0.000043520676     0.000033997599     0.000021524026
       2        0.000172749509    -0.000078078683    -0.000020895874
       3       -0.000055517201     0.000000737287     0.000038884211
       4       -0.000062019080    -0.000008317708    -0.000027969141
       5        0.000028106725     0.000017949892    -0.000056831262
       6       -0.000005644802     0.000018564246    -0.000013299042
       7       -0.000015447418     0.000009388873     0.000024769955
       8       -0.000019813940    -0.000028928096     0.000014796515
       9        0.000021061888    -0.000005548856    -0.000011795895
      10        0.000002609692     0.000023623141     0.000007310554
      11        0.000004810717    -0.000002712408    -0.000003858552
      12        0.000002811157     0.000016777193     0.000005525322
      13       -0.000020823356    -0.000003770216     0.000000571939
      14       -0.000132049621     0.003440414670    -0.000695178335
      15       -0.000004142867    -0.000007790372    -0.000005840341
      16        0.000015350891    -0.000006051331    -0.000000421841
      17       -0.000994959413     0.001834621817     0.002017961894
      18        0.000349334316    -0.003340673777     0.000117349052
      19       -0.000001939236    -0.000007947871     0.000013014934
      20        0.000767430126    -0.001895489296    -0.001427793068
      21       -0.000020559636     0.000000667255    -0.000006887940
      22        0.000015651888    -0.000004765486     0.000005337227
      23       -0.000000209405     0.000017591590    -0.000009989376
      24       -0.000009584961    -0.000008560512     0.000012314243
      25        0.000006314705    -0.000015698953     0.000001400794

  **** Optimization is complete! (in 6 steps) ****
    Final optimized geometry and variables:
    Molecular point group: c1

    Geometry (in Angstrom), charge = 0, multiplicity = 1:

    H           -3.190982397649    -0.054047338468     1.285315685404
    C           -3.252673419139    -0.024231239887     0.188830584984
    C           -2.596968735111     1.169563288218    -0.450603299169
    O           -3.814061831808    -0.884787462065    -0.395658773080
    C           -1.153437274740     1.374745676743     0.017906473524
    H           -2.655863069053     1.060139163585    -1.525759152706
    H           -3.190593625689     2.036858073103    -0.169926511002
    C           -0.199521311951     0.271953345938    -0.436114457332
    H           -0.803721446816     2.330597231106    -0.356761742274
    H           -1.134469526257     1.450587068086     1.102390580967
    C            1.236706292504     0.496176963191     0.027025937292
    H           -0.223494881932     0.206159904722    -1.520677687134
    H           -0.547767151080    -0.690213930286    -0.069437241820
    C            2.200445187200    -0.590362758388    -0.442032307486
    H            1.584066983598     1.460722426750    -0.334830448747
    H            1.258905896044     0.553664035395     1.112828046933
    C            3.635326728007    -0.418939463356     0.083637868952
    H            2.206338741973    -0.633334075918    -1.526686818776
    H            1.822014699938    -1.558483555365    -0.123395116905
    C            3.928609710053    -1.243263088405     1.334573606847
    H            3.829588986007     0.630713158198     0.282149404148
    H            4.338964448558    -0.711799410293    -0.688519064425
    H            3.247747405572    -0.996804122873     2.143077026734
    H            3.825551145068    -2.303177577683     1.129778815227
    H            4.937706787326    -1.070582445459     1.691268427817

  Mulliken Charges: (a.u.)
   Center  Symbol    Alpha    Beta     Spin     Total
       1     H     0.46412  0.46412  0.00000  0.07177
       2     C     2.90479  2.90479  0.00000  0.19042
       3     C     3.08915  3.08915  0.00000 -0.17830
       4     O     4.16627  4.16627  0.00000 -0.33255
       5     C     3.11606  3.11606  0.00000 -0.23212
       6     H     0.44286  0.44286  0.00000  0.11428
       7     H     0.44047  0.44047  0.00000  0.11906
       8     C     3.09137  3.09137  0.00000 -0.18275
       9     H     0.44307  0.44307  0.00000  0.11386
      10     H     0.44993  0.44993  0.00000  0.10015
      11     C     3.09048  3.09048  0.00000 -0.18095
      12     H     0.44974  0.44974  0.00000  0.10053
      13     H     0.44775  0.44775  0.00000  0.10449
      14     C     3.09599  3.09599  0.00000 -0.19198
      15     H     0.45263  0.45263  0.00000  0.09474
      16     H     0.45349  0.45349  0.00000  0.09302
      17     C     3.09143  3.09143  0.00000 -0.18287
      18     H     0.44670  0.44670  0.00000  0.10660
      19     H     0.45463  0.45463  0.00000  0.09074
      20     C     3.14717  3.14717  0.00000 -0.29434
      21     H     0.45509  0.45509  0.00000  0.08982
      22     H     0.44812  0.44812  0.00000  0.10375
      23     H     0.45604  0.45604  0.00000  0.08792
      24     H     0.45410  0.45410  0.00000  0.09180
      25     H     0.44855  0.44855  0.00000  0.10291

   Total alpha = 36.00000, Total beta = 36.00000, Total charge = -0.00000

*** Psi4 exiting successfully. Buy a developer a beer!
