  ==> Input File <==

--------------------------------------------------------------------------
set {
	reference rhf
	basis cc-pvtz
}

set_num_threads( 4 )
memory 2 gb

molecule MOL {
0 1

H	 -2.816458	 -0.841657	 -0.064679
N	 -1.878861	 -0.711874	 0.250184
C	 -1.341419	 0.551458	 -0.220231
H	 -1.333674	 -1.468530	 -0.105118
C	 0.082190	 0.731516	 0.254705
H	 -1.357065	 0.652078	 -1.304747
H	 -1.939897	 1.357530	 0.189797
O	 0.881195	 -0.248324	 -0.336237
H	 0.440901	 1.722476	 -0.020063
H	 0.119896	 0.643586	 1.338114
C	 2.083354	 -0.483491	 0.318537
H	 2.613692	 -1.251494	 -0.225796
H	 2.700830	 0.411734	 0.349993
H	 1.920896	 -0.825098	 1.338084

	symmetry c1
}
set optking {
	frozen_dihedral = ("
		11 8 5 3
	")
}

ee = optimize('scf')
oeprop('DIPOLE', 'QUADRUPOLE', 'MULLIKEN_CHARGES')
f=open( 'psi4out.xyz', 'w' )
f.write( "14  " )
f.write( str(ee) + "\n" )
f.write( MOL.save_string_xyz() )
f.close()
--------------------------------------------------------------------------

    Molecular point group: c1
  Charge       = 0
  Multiplicity = 1
  Basis Set: CC-PVTZ
  Basis Set:
  @DF-RHF Final Energy:  -248.22551831074261
    Total Energy =                       -248.2255183107423022
    Molecular point group: c1
  Basis Set: CC-PVTZ
  Basis Set:
  Basis Set: CC-PVTZ
  Basis Set:
  @DF-RHF Final Energy:  -248.22554955937989
    Total Energy =                       -248.2255495593799424
  Basis Set: CC-PVTZ
  Basis Set:
  Basis Set: CC-PVTZ
  Basis Set:
  @DF-RHF Final Energy:  -248.22555517090026
    Total Energy =                       -248.2255551709000656
  Basis Set: CC-PVTZ
  Basis Set:
  Charge       = 0
  Multiplicity = 1
  Basis Set: CC-PVTZ
  Basis Set:

    Orbital Energies (a.u.)
    -----------------------

    Doubly Occupied:

       1A    -20.549878     2A    -15.524177     3A    -11.263588
       4A    -11.263224     5A    -11.239862     6A     -1.383234
       7A     -1.176496     8A     -1.000532     9A     -0.907299
      10A     -0.815653    11A     -0.686276    12A     -0.674041
      13A     -0.647185    14A     -0.614304    15A     -0.605610
      16A     -0.541693    17A     -0.530516    18A     -0.498512
      19A     -0.474036    20A     -0.419422    21A     -0.384234

  @DF-RHF Final Energy:  -248.22555545636067

   => Energetics <=

    Nuclear Repulsion Energy =            195.0372474250106052
    One-Electron Energy =                -724.1260577591242509
    Two-Electron Energy =                 280.8632548777528655
    DFT Exchange-Correlation Energy =       0.0000000000000000
    Empirical Dispersion Energy =           0.0000000000000000
    PCM Polarization Energy =               0.0000000000000000
    EFP Energy =                            0.0000000000000000
    Total Energy =                       -248.2255554563607802
    Molecular point group: c1
  Basis Set: CC-PVTZ
  Basis Set:

  -Total Gradient:
     Atom            X                  Y                   Z
    ------   -----------------  -----------------  -----------------
       1       -0.000005702868    -0.000013642355    -0.000009420137
       2        0.000014546842     0.000017116459    -0.000000576359
       3       -0.000274744588    -0.000919364939     0.001195047646
       4        0.000003023652    -0.000026316597    -0.000010116831
       5        0.000066831885     0.000758483756    -0.001202146714
       6       -0.000004045343    -0.000005590457     0.000000898869
       7        0.000010685588     0.000023686110    -0.000000717692
       8        0.000973496502     0.001374334726    -0.000937257843
       9        0.000002599673    -0.000007872818     0.000003946972
      10       -0.000009185401    -0.000007027526     0.000002845654
      11       -0.000761291798    -0.001204097013     0.000973054894
      12        0.000001343652     0.000001941506    -0.000008497888
      13       -0.000016933447    -0.000000213591    -0.000008283776
      14       -0.000000624347     0.000008562739     0.000001223205

  **** Optimization is complete! (in 4 steps) ****
    Final optimized geometry and variables:
    Molecular point group: c1

    Geometry (in Angstrom), charge = 0, multiplicity = 1:

    H           -2.793781444914    -0.785962996775    -0.100305530060
    N           -1.850432520032    -0.660535969735     0.198778446021
    C           -1.317902920137     0.603655806550    -0.274670427635
    H           -1.314319610369    -1.415950293930    -0.172562881175
    C            0.105895372661     0.786757167925     0.200147385832
    H           -1.336956243068     0.701866722626    -1.359484758878
    H           -1.917677886880     1.409508727612     0.134058804567
    O            0.908664876675    -0.196050903196    -0.383946676005
    H            0.469851607713     1.776451661266    -0.069795551603
    H            0.132190871579     0.697503754877     1.283104712379
    C            2.112755524756    -0.431569322588     0.268429205022
    H            2.641698711876    -1.198058876293    -0.279609594893
    H            2.732519113139     0.462199515775     0.300594590106
    H            1.950809614822    -0.775157079929     1.286807760039

  Mulliken Charges: (a.u.)
   Center  Symbol    Alpha    Beta     Spin     Total
       1     H     0.42997  0.42997  0.00000  0.14006
       2     N     3.69503  3.69503  0.00000 -0.39006
       3     C     3.02325  3.02325  0.00000 -0.04650
       4     H     0.42253  0.42253  0.00000  0.15494
       5     C     2.96967  2.96967  0.00000  0.06066
       6     H     0.46407  0.46407  0.00000  0.07186
       7     H     0.45823  0.45823  0.00000  0.08354
       8     O     4.18262  4.18262  0.00000 -0.36524
       9     H     0.46545  0.46545  0.00000  0.06910
      10     H     0.46978  0.46978  0.00000  0.06043
      11     C     3.03276  3.03276  0.00000 -0.06552
      12     H     0.44836  0.44836  0.00000  0.10329
      13     H     0.47021  0.47021  0.00000  0.05958
      14     H     0.46808  0.46808  0.00000  0.06384

   Total alpha = 21.00000, Total beta = 21.00000, Total charge =  0.00000
