                              Psi4 1.0.54 Driver

  ==> Input File <==

--------------------------------------------------------------------------
set {
	reference rhf
	basis cc-pvtz
}

set_num_threads( 4 )
memory 2 gb

molecule MOL {
0 1

H	 -2.816458	 -0.841657	 -0.064679
N	 -1.878861	 -0.711874	 0.250184
C	 -1.341419	 0.551458	 -0.220231
H	 -1.333674	 -1.468530	 -0.105118
C	 -0.536373	 1.223210	 0.868483
H	 -0.710388	 0.452258	 -1.102559
H	 -2.167054	 1.203790	 -0.482607
O	 0.579374	 0.435204	 1.154599
H	 -0.221175	 2.212066	 0.538353
H	 -1.151127	 1.340644	 1.757986
C	 1.369844	 0.911081	 2.192828
H	 2.197270	 0.228133	 2.320631
H	 1.764734	 1.900256	 1.970814
H	 0.812348	 0.964701	 3.124968

	symmetry c1
}
set optking {
	frozen_dihedral = ("
		6 3 2 4
	")
}

ee,wfn = optimize('scf', return_wfn=True)
oeprop( wfn, 'DIPOLE', 'QUADRUPOLE', 'MULLIKEN_CHARGES')
f=open( 'psi4out.xyz', 'w' )
f.write( "14  " )
f.write( str(ee) + "\n" )
f.write( MOL.save_string_xyz() )
f.close()
--------------------------------------------------------------------------

    Molecular point group: c1
  Charge       = 0
  Multiplicity = 1
  Basis Set: CC-PVTZ
  Basis Set:
  @DF-RHF Final Energy:  -248.22217129565448
    Total Energy =                       -248.2221712956545048
    Molecular point group: c1
  Basis Set: CC-PVTZ
  Basis Set:
  Basis Set: CC-PVTZ
  Basis Set:
  @DF-RHF Final Energy:  -248.21959259295889
    Total Energy =                       -248.2195925929588611
  Basis Set: CC-PVTZ
  Basis Set:
  Basis Set: CC-PVTZ
  Basis Set:
  @DF-RHF Final Energy:  -248.22264753739671
    Total Energy =                       -248.2226475373967105
  Basis Set: CC-PVTZ
  Basis Set:
  Basis Set: CC-PVTZ
  Basis Set:
  @DF-RHF Final Energy:  -248.22267070166799
    Total Energy =                       -248.2226707016682212
  Basis Set: CC-PVTZ
  Basis Set:
  Basis Set: CC-PVTZ
  Basis Set:
  @DF-RHF Final Energy:  -248.22267225538715
    Total Energy =                       -248.2226722553871809
  Basis Set: CC-PVTZ
  Basis Set:
  Charge       = 0
  Multiplicity = 1
  Basis Set: CC-PVTZ
  Basis Set:

    Orbital Energies (a.u.)
    -----------------------

    Doubly Occupied:

       1A    -20.544270     2A    -15.526023     3A    -11.258792
       4A    -11.258159     5A    -11.241216     6A     -1.378927
       7A     -1.175743     8A     -0.999116     9A     -0.903378
      10A     -0.813601    11A     -0.682278    12A     -0.674103
      13A     -0.638267    14A     -0.623889    15A     -0.603302
      16A     -0.531316    17A     -0.521640    18A     -0.504675
      19A     -0.471556    20A     -0.414196    21A     -0.384880

  @DF-RHF Final Energy:  -248.22267233489012

   => Energetics <=

    Nuclear Repulsion Energy =            193.8319106093038329
    One-Electron Energy =                -721.8105167426481330
    Two-Electron Energy =                 279.7559337984541799
    DFT Exchange-Correlation Energy =       0.0000000000000000
    Empirical Dispersion Energy =           0.0000000000000000
    PCM Polarization Energy =               0.0000000000000000
    EFP Energy =                            0.0000000000000000
    Total Energy =                       -248.2226723348901487
    Molecular point group: c1
  Basis Set: CC-PVTZ
  Basis Set:

  -Total Gradient:
     Atom            X                  Y                   Z
    ------   -----------------  -----------------  -----------------
       1        0.000002668899     0.000008570475     0.000009057426
       2        0.003453006730    -0.000884501309     0.004431050637
       3       -0.003970581077     0.001434877808    -0.003383567505
       4       -0.002147743501     0.000488232769    -0.003096098717
       5       -0.000029880995    -0.000013306063     0.000013687408
       6        0.002673406779    -0.001037375690     0.002028908909
       7       -0.000002237458     0.000002730864    -0.000003586431
       8        0.000000424049     0.000008686369    -0.000012785831
       9        0.000004349145    -0.000012901676    -0.000005615732
      10        0.000000177018     0.000007284157     0.000007711135
      11        0.000018899652     0.000001619874     0.000017675851
      12        0.000004314072    -0.000003267137     0.000001330970
      13       -0.000002483862    -0.000000082031    -0.000002726481
      14       -0.000004319451    -0.000000568410    -0.000005041639

  **** Optimization is complete! (in 6 steps) ****
    Final optimized geometry and variables:
    Molecular point group: c1

    Geometry (in Angstrom), charge = 0, multiplicity = 1:

    H           -2.620369162094    -0.873472846370    -1.074368260064
    N           -1.690452708815    -0.903152310501    -0.716358480104
    C           -0.983128223689     0.336272531571    -1.012950785971
    H           -1.246273246054    -1.684207982142    -1.147259008587
    C           -0.092458353406     0.751152057880     0.139275160797
    H           -0.347680519849     0.248662144448    -1.889814166671
    H           -1.698932368735     1.129139468360    -1.195190239916
    O            0.958948416365    -0.157603500578     0.241872914274
    H            0.298474273807     1.754266806736    -0.036036470058
    H           -0.671383324719     0.767222252431     1.059746073167
    C            1.788779685979     0.041968793536     1.336281346814
    H            2.564931436711    -0.709297989910     1.306606346514
    H            2.254469479517     1.025460829254     1.310643536410
    H            1.243430054431    -0.055269738553     2.272142081420

  Mulliken Charges: (a.u.)
   Center  Symbol    Alpha    Beta     Spin     Total
       1     H     0.42860  0.42860  0.00000  0.14279
       2     N     3.68897  3.68897  0.00000 -0.37795
       3     C     3.03897  3.03897  0.00000 -0.07795
       4     H     0.42599  0.42599  0.00000  0.14803
       5     C     2.95397  2.95397  0.00000  0.09205
       6     H     0.45846  0.45846  0.00000  0.08309
       7     H     0.45607  0.45607  0.00000  0.08785
       8     O     4.17686  4.17686  0.00000 -0.35371
       9     H     0.47506  0.47506  0.00000  0.04989
      10     H     0.47416  0.47416  0.00000  0.05168
      11     C     3.03033  3.03033  0.00000 -0.06067
      12     H     0.44852  0.44852  0.00000  0.10296
      13     H     0.47374  0.47374  0.00000  0.05252
      14     H     0.47029  0.47029  0.00000  0.05941

   Total alpha = 21.00000, Total beta = 21.00000, Total charge = -0.00000

*** Psi4 exiting successfully. Buy a developer a beer!
