  ==> Input File <==

--------------------------------------------------------------------------
set {
	reference rhf
	basis cc-pvtz
}

set_num_threads( 4 )
memory 2 gb

molecule MOL {
0 1

H	 -2.617446	 -0.462717	 1.593418
C	 -2.567943	 -0.636411	 0.520915
O	 -1.271010	 -0.503124	 0.043692
H	 -2.893205	 -1.646114	 0.316972
H	 -3.248467	 0.056053	 0.028711
C	 -0.718530	 0.758693	 0.228682
C	 0.718529	 0.758687	 -0.228709
H	 -1.271933	 1.500940	 -0.346457
H	 -0.760175	 1.047268	 1.276738
O	 1.401606	 -0.295166	 0.366636
H	 0.748705	 0.673477	 -1.312803
H	 1.176496	 1.708671	 0.046552
C	 2.714315	 -0.441627	 -0.061017
H	 2.765292	 -0.641548	 -1.128869
H	 3.305661	 0.447341	 0.150952
H	 3.143725	 -1.278506	 0.470147

	symmetry c1
}
set optking {
	frozen_dihedral = ("
		3 6 7 11
	")
}

ee = optimize('scf')
oeprop('DIPOLE', 'QUADRUPOLE', 'MULLIKEN_CHARGES')
f=open( 'psi4out.xyz', 'w' )
f.write( "16  " )
f.write( str(ee) + "\n" )
f.write( MOL.save_string_xyz() )
f.close()
--------------------------------------------------------------------------

    Molecular point group: c1
  Charge       = 0
  Multiplicity = 1
  Basis Set: CC-PVTZ
  Basis Set:
  @DF-RHF Final Energy:  -307.09548106890412
    Total Energy =                       -307.0954810689041210
    Molecular point group: c1
  Basis Set: CC-PVTZ
  Basis Set:
  Basis Set: CC-PVTZ
  Basis Set:
  @DF-RHF Final Energy:  -307.09588435947705
    Total Energy =                       -307.0958843594770542
  Basis Set: CC-PVTZ
  Basis Set:
  Basis Set: CC-PVTZ
  Basis Set:
  @DF-RHF Final Energy:  -307.09594388170012
    Total Energy =                       -307.0959438817001228
  Basis Set: CC-PVTZ
  Basis Set:
  Charge       = 0
  Multiplicity = 1
  Basis Set: CC-PVTZ
  Basis Set:

    Orbital Energies (a.u.)
    -----------------------

    Doubly Occupied:

       1A    -20.548137     2A    -20.546742     3A    -11.268464
       4A    -11.267792     5A    -11.261794     6A    -11.261116
       7A     -1.393158     8A     -1.374251     9A     -1.031637
      10A     -0.936547    11A     -0.895540    12A     -0.821570
      13A     -0.688158    14A     -0.680626    15A     -0.660697
      16A     -0.642394    17A     -0.627707    18A     -0.597219
      19A     -0.560648    20A     -0.527138    21A     -0.509811
      22A     -0.478145    23A     -0.466707    24A     -0.416862
      25A     -0.416719

  @DF-RHF Final Energy:  -307.09594629441068

   => Energetics <=

    Nuclear Repulsion Energy =            259.6068094816429834
    One-Electron Energy =                -933.6463526356496914
    Two-Electron Energy =                 366.9435968595962549
    DFT Exchange-Correlation Energy =       0.0000000000000000
    Empirical Dispersion Energy =           0.0000000000000000
    PCM Polarization Energy =               0.0000000000000000
    EFP Energy =                            0.0000000000000000
    Total Energy =                       -307.0959462944103961
    Molecular point group: c1
  Basis Set: CC-PVTZ
  Basis Set:

  -Total Gradient:
     Atom            X                  Y                   Z
    ------   -----------------  -----------------  -----------------
       1       -0.000013291084    -0.000004086813     0.000008426904
       2        0.000010093372     0.000045298374     0.000012218439
       3        0.001367674715    -0.001226645959     0.004001082237
       4        0.000008514522     0.000002837769    -0.000007584585
       5       -0.000015545067    -0.000012469017     0.000000907593
       6       -0.001760699510     0.003049312624    -0.005364523422
       7        0.000343139344    -0.007395901974     0.001655927816
       8       -0.000011890949    -0.000053448566    -0.000015024413
       9       -0.000004053306    -0.000008250971     0.000006874411
      10        0.000012684369    -0.000009415567    -0.000023080624
      11        0.000009121477     0.005616566694    -0.000301311419
      12        0.000033050236    -0.000012720705     0.000010243611
      13       -0.000050421325     0.000019388092     0.000021684203
      14       -0.000002339420    -0.000002045910     0.000005511506
      15        0.000033049211     0.000002336228    -0.000007074377
      16        0.000040913417    -0.000010754299    -0.000004277881

  **** Optimization is complete! (in 4 steps) ****
    Final optimized geometry and variables:
    Molecular point group: c1

    Geometry (in Angstrom), charge = 0, multiplicity = 1:

    H           -2.707396957640    -0.341155944980     1.444547434097
    C           -2.653545020174    -0.530705686056     0.374618641597
    O           -1.349098171193    -0.442229956339    -0.091502981027
    H           -3.005956181824    -1.533323463978     0.181427171413
    H           -3.309818227969     0.174307104357    -0.132460821569
    C           -0.758695006458     0.798850261973     0.097725900335
    C            0.670116818144     0.783430196893    -0.392437426313
    H           -1.300544725493     1.577294513536    -0.439064329652
    H           -0.770571028761     1.056307707119     1.155945533715
    O            1.382053133492    -0.242286835381     0.205109749413
    H            0.692724553705     0.718284677675    -1.479296555220
    H            1.111699827538     1.749392465481    -0.138963899170
    C            2.705897370851    -0.332431285300    -0.203695063613
    H            2.780324053535    -0.516597182828    -1.273072734306
    H            3.259232451537     0.575789673387     0.028165524427
    H            3.158621911524    -1.159239628345     0.323672709443

  Mulliken Charges: (a.u.)
   Center  Symbol    Alpha    Beta     Spin     Total
       1     H     0.47139  0.47139  0.00000  0.05723
       2     C     3.03160  3.03160  0.00000 -0.06319
       3     O     4.16592  4.16592  0.00000 -0.33184
       4     H     0.44592  0.44592  0.00000  0.10816
       5     H     0.47360  0.47360  0.00000  0.05280
       6     C     2.96267  2.96267  0.00000  0.07466
       7     C     2.96181  2.96181  0.00000  0.07637
       8     H     0.47588  0.47588  0.00000  0.04824
       9     H     0.47333  0.47333  0.00000  0.05333
      10     O     4.16470  4.16470  0.00000 -0.32940
      11     H     0.47297  0.47297  0.00000  0.05407
      12     H     0.47836  0.47836  0.00000  0.04327
      13     C     3.03204  3.03204  0.00000 -0.06407
      14     H     0.47061  0.47061  0.00000  0.05878
      15     H     0.47339  0.47339  0.00000  0.05322
      16     H     0.44581  0.44581  0.00000  0.10838

   Total alpha = 25.00000, Total beta = 25.00000, Total charge = -0.00000
