  ==> Input File <==

--------------------------------------------------------------------------
set {
	reference rhf
	basis cc-pvtz
}

set_num_threads( 4 )
memory 2 gb

molecule MOL {
0 1

H	 -2.266619	 1.169943	 0.000098
O	 -1.438073	 1.611259	 0.000041
C	 -0.408657	 0.734701	 0.000005
C	 0.580804	 0.933423	 -0.944921
C	 -0.334782	 -0.321108	 0.901072
H	 0.487419	 1.759438	 -1.622349
C	 1.660206	 0.077522	 -1.002299
C	 0.760877	 -1.165241	 0.820452
C	 -1.415366	 -0.536602	 1.931655
H	 2.424515	 0.237999	 -1.738545
C	 1.756481	 -0.979215	 -0.117727
H	 0.832663	 -1.985985	 1.509796
H	 -2.383863	 -0.708440	 1.470346
H	 -1.193149	 -1.399389	 2.542932
H	 -1.511964	 0.315519	 2.598650
H	 2.593247	 -1.649060	 -0.156462

	symmetry c1
}
set optking {
	frozen_dihedral = ("
		4 3 2 1
	")
}

ee = optimize('scf')
oeprop('DIPOLE', 'QUADRUPOLE', 'MULLIKEN_CHARGES')
f=open( 'psi4out.xyz', 'w' )
f.write( "16  " )
f.write( str(ee) + "\n" )
f.write( MOL.save_string_xyz() )
f.close()
--------------------------------------------------------------------------

    Molecular point group: c1
  Charge       = 0
  Multiplicity = 1
  Basis Set: CC-PVTZ
  Basis Set:
  @DF-RHF Final Energy:  -344.71705640409721
    Total Energy =                       -344.7170564040971499
    Molecular point group: c1
  Basis Set: CC-PVTZ
  Basis Set:
  Basis Set: CC-PVTZ
  Basis Set:
  @DF-RHF Final Energy:  -344.71738839331277
    Total Energy =                       -344.7173883933131151
  Basis Set: CC-PVTZ
  Basis Set:
  Basis Set: CC-PVTZ
  Basis Set:
  @DF-RHF Final Energy:  -344.71743822255536
    Total Energy =                       -344.7174382225553018
  Basis Set: CC-PVTZ
  Basis Set:
  Basis Set: CC-PVTZ
  Basis Set:
  @DF-RHF Final Energy:  -344.71744753719656
    Total Energy =                       -344.7174475371964490
  Basis Set: CC-PVTZ
  Basis Set:
  Basis Set: CC-PVTZ
  Basis Set:
  @DF-RHF Final Energy:  -344.71744896693338
    Total Energy =                       -344.7174489669334889
  Basis Set: CC-PVTZ
  Basis Set:
  Charge       = 0
  Multiplicity = 1
  Basis Set: CC-PVTZ
  Basis Set:

    Orbital Energies (a.u.)
    -----------------------

    Doubly Occupied:

       1A    -20.574701     2A    -11.285911     3A    -11.234052
       4A    -11.227504     5A    -11.227007     6A    -11.226121
       7A    -11.220638     8A    -11.220208     9A     -1.402494
      10A     -1.153694    11A     -1.050212    12A     -1.007599
      13A     -0.940090    14A     -0.828922    15A     -0.817633
      16A     -0.731911    17A     -0.676746    18A     -0.651801
      19A     -0.623705    20A     -0.597178    21A     -0.575368
      22A     -0.572407    23A     -0.551665    24A     -0.533518
      25A     -0.504185    26A     -0.487823    27A     -0.472021
      28A     -0.333331    29A     -0.317386

  @DF-RHF Final Energy:  -344.71744912506909

   => Energetics <=

    Nuclear Repulsion Energy =            350.7424242224262230
    One-Electron Energy =               -1162.8280844271816932
    Two-Electron Energy =                 467.3682110796860343
    DFT Exchange-Correlation Energy =       0.0000000000000000
    Empirical Dispersion Energy =           0.0000000000000000
    PCM Polarization Energy =               0.0000000000000000
    EFP Energy =                            0.0000000000000000
    Total Energy =                       -344.7174491250693791
    Molecular point group: c1
  Basis Set: CC-PVTZ
  Basis Set:

  -Total Gradient:
     Atom            X                  Y                   Z
    ------   -----------------  -----------------  -----------------
       1       -0.000025329224     0.000068864167    -0.001914460564
       2       -0.000333145174    -0.000425880232     0.001964908780
       3        0.001075300713     0.001101880674     0.000859937550
       4       -0.000720201167    -0.000736643602    -0.000915566167
       5       -0.000012575858     0.000006680205     0.000008621362
       6        0.000000148995    -0.000008472389     0.000007515015
       7        0.000010425517    -0.000018660645     0.000005497979
       8       -0.000016777250     0.000026114146     0.000014168527
       9       -0.000004974323    -0.000006835011    -0.000024279375
      10        0.000005652583    -0.000001762738    -0.000002905052
      11        0.000012731088     0.000001905924    -0.000015475793
      12        0.000000011710    -0.000005338632     0.000002932785
      13        0.000003374573     0.000002739152    -0.000002121374
      14        0.000003999990    -0.000001032677     0.000010270071
      15        0.000007430782    -0.000003105456     0.000002973922
      16       -0.000006072962    -0.000000452882    -0.000002017668

  **** Optimization is complete! (in 6 steps) ****
    Final optimized geometry and variables:
    Molecular point group: c1

    Geometry (in Angstrom), charge = 0, multiplicity = 1:

    H           -2.330838279048     1.102681107218    -0.181775370222
    O           -1.501193459827     1.545740710598    -0.179014971495
    C           -0.470861547840     0.654491338761    -0.223449180184
    C            0.516297715852     0.856098019756    -1.165617100370
    C           -0.403139416066    -0.406068408391     0.672584423496
    H            0.424360289835     1.686026889784    -1.838495123012
    C            1.600521201052     0.001847984955    -1.223596704701
    C            0.686812548574    -1.255451784543     0.587354071096
    C           -1.484291012616    -0.610764979360     1.702497491039
    H            2.368707155783     0.165276501576    -1.954977586269
    C            1.686394837443    -1.060650188396    -0.347720896428
    H            0.757645216026    -2.080740527627     1.271182976068
    H           -2.435131899324    -0.867388338315     1.243026975993
    H           -1.224858686691    -1.416188286609     2.375260534636
    H           -1.639666696332     0.286279492893     2.289625306684
    H            2.522617072869    -1.731615622468    -0.387184258419

  Mulliken Charges: (a.u.)
   Center  Symbol    Alpha    Beta     Spin     Total
       1     H     0.38560  0.38560  0.00000  0.22880
       2     O     4.18518  4.18518  0.00000 -0.37037
       3     C     2.88146  2.88146  0.00000  0.23708
       4     C     3.10950  3.10950  0.00000 -0.21899
       5     C     3.00178  3.00178  0.00000 -0.00356
       6     H     0.41786  0.41786  0.00000  0.16428
       7     C     3.07161  3.07161  0.00000 -0.14322
       8     C     3.08991  3.08991  0.00000 -0.17983
       9     C     3.15480  3.15480  0.00000 -0.30959
      10     H     0.42229  0.42229  0.00000  0.15541
      11     C     3.08373  3.08373  0.00000 -0.16745
      12     H     0.42509  0.42509  0.00000  0.14982
      13     H     0.45751  0.45751  0.00000  0.08498
      14     H     0.44914  0.44914  0.00000  0.10171
      15     H     0.44014  0.44014  0.00000  0.11973
      16     H     0.42440  0.42440  0.00000  0.15120

   Total alpha = 29.00000, Total beta = 29.00000, Total charge = -0.00000
