  ==> Input File <==

--------------------------------------------------------------------------
set {
	reference rhf
	basis 6-31G*
}

set_num_threads( 4 )
memory 2 gb

molecule MOL {
0 1

H	 -1.198486	 -2.156254	 -0.970972
N	 -0.492239	 -1.451784	 -1.062709
C	 -0.563778	 -0.502042	 0.037919
H	 -0.656101	 -0.989478	 -1.936882
C	 0.575259	 0.508231	 -0.048326
H	 -0.475388	 -1.062117	 0.964039
H	 -1.516712	 0.031323	 0.084644
C	 1.954651	 -0.143624	 0.035137
H	 0.475158	 1.060484	 -0.977307
H	 0.469181	 1.234488	 0.755973
H	 2.103292	 -0.853109	 -0.774172
H	 2.742821	 0.599562	 -0.030094
H	 2.083613	 -0.679371	 0.971560

	symmetry c1
}
set optking {
	frozen_dihedral = ("
		6 3 5 9
	")
}

ee = optimize('scf')
oeprop('DIPOLE', 'QUADRUPOLE', 'MULLIKEN_CHARGES')
f=open( 'psi4out.xyz', 'w' )
f.write( "13  " )
f.write( str(ee) + "\n" )
f.write( MOL.save_string_xyz() )
f.close()
--------------------------------------------------------------------------

    Molecular point group: c1
  Charge       = 0
  Multiplicity = 1
  Basis Set: 6-31G*
  Basis Set:
  @DF-RHF Final Energy:  -173.28197402703384
    Total Energy =                       -173.2819740270338116
    Molecular point group: c1
  Basis Set: 6-31G*
  Basis Set:
  Basis Set: 6-31G*
  Basis Set:
  @DF-RHF Final Energy:  -173.28212293029017
    Total Energy =                       -173.2821229302901997
  Basis Set: 6-31G*
  Basis Set:
  Basis Set: 6-31G*
  Basis Set:
  @DF-RHF Final Energy:  -173.28214889428318
    Total Energy =                       -173.2821488942832389
  Basis Set: 6-31G*
  Basis Set:
  Basis Set: 6-31G*
  Basis Set:
  @DF-RHF Final Energy:  -173.28215071654134
    Total Energy =                       -173.2821507165412527
  Basis Set: 6-31G*
  Basis Set:
  Charge       = 0
  Multiplicity = 1
  Basis Set: 6-31G*
  Basis Set:

    Orbital Energies (a.u.)
    -----------------------

    Doubly Occupied:

       1A    -15.533571     2A    -11.240704     3A    -11.212461
       4A    -11.198236     5A     -1.177652     6A     -1.028326
       7A     -0.901231     8A     -0.791247     9A     -0.663763
      10A     -0.626304    11A     -0.603157    12A     -0.557007
      13A     -0.528935    14A     -0.489662    15A     -0.472364
      16A     -0.466589    17A     -0.380748

  @DF-RHF Final Energy:  -173.28215106458489

   => Energetics <=

    Nuclear Repulsion Energy =            133.7143668925798750
    One-Electron Energy =                -498.2491226055556695
    Two-Electron Energy =                 191.2526046483909568
    DFT Exchange-Correlation Energy =       0.0000000000000000
    Empirical Dispersion Energy =           0.0000000000000000
    PCM Polarization Energy =               0.0000000000000000
    EFP Energy =                            0.0000000000000000
    Total Energy =                       -173.2821510645848093
    Molecular point group: c1
  Basis Set: 6-31G*
  Basis Set:

  -Total Gradient:
     Atom            X                  Y                   Z
    ------   -----------------  -----------------  -----------------
       1       -0.000007744862    -0.000003979210    -0.000006348103
       2       -0.000005093954     0.000019772980     0.000013886973
       3        0.000278343854    -0.000323219997    -0.000212263364
       4        0.000000260581    -0.000006900634    -0.000014371392
       5        0.000250882052    -0.000306901919    -0.000232769566
       6       -0.000261940127     0.000315253559     0.000226598231
       7       -0.000004237629    -0.000012594485    -0.000017843173
       8       -0.000003972330     0.000020492565     0.000031171139
       9       -0.000268505642     0.000313946248     0.000220484736
      10        0.000014518304     0.000011747009     0.000009635333
      11        0.000000914994    -0.000008766253    -0.000012743572
      12       -0.000008538536    -0.000012611023    -0.000005582506
      13        0.000015113295    -0.000006238840     0.000000145263

  **** Optimization is complete! (in 5 steps) ****
    Final optimized geometry and variables:
    Molecular point group: c1

    Geometry (in Angstrom), charge = 0, multiplicity = 1:

    H           -1.563868611203    -1.741393172780    -0.683721909219
    N           -0.865253506705    -1.031959732412    -0.792326874695
    C           -0.912987188253    -0.085941435732     0.313683478221
    H           -1.055771201498    -0.566624670835    -1.659695373844
    C            0.232494301334     0.921176564760     0.233562598128
    H           -0.829112423515    -0.650344210526     1.237754222099
    H           -1.858425127940     0.458517506212     0.365624316028
    C            1.618367318892     0.284995263681     0.322539541125
    H            0.144555002575     1.484789656610    -0.694259354361
    H            0.108433667550     1.644087080923     1.036781385882
    H            1.770068192622    -0.431214496128    -0.474972897336
    H            2.395772181560     1.040582935353     0.258267184185
    H            1.743373424602    -0.238382016122     1.266701211786

  Mulliken Charges: (a.u.)
   Center  Symbol    Alpha    Beta     Spin     Total
       1     H     0.33173  0.33173  0.00000  0.33655
       2     N     3.92027  3.92027  0.00000 -0.84053
       3     C     3.06398  3.06398  0.00000 -0.12795
       4     H     0.33530  0.33530  0.00000  0.32941
       5     C     3.15369  3.15369  0.00000 -0.30738
       6     H     0.42109  0.42109  0.00000  0.15782
       7     H     0.43225  0.43225  0.00000  0.13550
       8     C     3.23701  3.23701  0.00000 -0.47402
       9     H     0.42667  0.42667  0.00000  0.14666
      10     H     0.42291  0.42291  0.00000  0.15418
      11     H     0.40656  0.40656  0.00000  0.18687
      12     H     0.42378  0.42378  0.00000  0.15244
      13     H     0.42476  0.42476  0.00000  0.15047

   Total alpha = 17.00000, Total beta = 17.00000, Total charge = -0.00000
