  ==> Input File <==

--------------------------------------------------------------------------
set {
	reference rhf
	basis 6-31G*
}

set_num_threads( 4 )
memory 2 gb

molecule MOL {
0 1

O	 -2.596298	 -0.570549	 0.926264
C	 -1.913440	 -1.179503	 0.159900
C	 -0.889235	 -0.467034	 -0.705952
C	 -2.007918	 -2.683747	 0.034598
C	 0.379448	 -0.143569	 0.099626
H	 -1.339788	 0.454936	 -1.057060
H	 -0.635012	 -1.070787	 -1.572485
C	 1.631333	 -0.777471	 -0.511575
H	 0.482768	 0.934507	 0.149241
H	 0.263088	 -0.495696	 1.123449
C	 2.915987	 -0.544314	 0.291766
H	 1.766672	 -0.399098	 -1.523130
H	 1.471257	 -1.849544	 -0.605828
C	 3.373361	 0.914346	 0.347591
H	 3.708709	 -1.142521	 -0.150311
H	 2.780642	 -0.921148	 1.303579
H	 3.506512	 1.320010	 -0.651625
H	 4.322697	 0.999599	 0.867103
H	 2.660624	 1.545032	 0.868198
H	 -2.387565	 -2.945167	 -0.949674
H	 -2.671863	 -3.077370	 0.791580
H	 -1.026855	 -3.139902	 0.130726

	symmetry c1
}
set optking {
	frozen_dihedral = ("
		6 3 5 8
	")
}

ee = optimize('scf')
oeprop('DIPOLE', 'QUADRUPOLE', 'MULLIKEN_CHARGES')
f=open( 'psi4out.xyz', 'w' )
f.write( "22  " )
f.write( str(ee) + "\n" )
f.write( MOL.save_string_xyz() )
f.close()
--------------------------------------------------------------------------

    Molecular point group: c1
  Charge       = 0
  Multiplicity = 1
  Basis Set: 6-31G*
  Basis Set:
  @DF-RHF Final Energy:  -348.09208254360726
    Total Energy =                       -348.0920825436075461
    Molecular point group: c1
  Basis Set: 6-31G*
  Basis Set:
  Basis Set: 6-31G*
  Basis Set:
  @DF-RHF Final Energy:  -348.09245969624766
    Total Energy =                       -348.0924596962477722
  Basis Set: 6-31G*
  Basis Set:
  Basis Set: 6-31G*
  Basis Set:
  @DF-RHF Final Energy:  -348.09234067914508
    Total Energy =                       -348.0923406791448542
  Basis Set: 6-31G*
  Basis Set:
  Basis Set: 6-31G*
  Basis Set:
  @DF-RHF Final Energy:  -348.09276230633037
    Total Energy =                       -348.0927623063304281
  Basis Set: 6-31G*
  Basis Set:
  @DF-RHF Final Energy:  -348.09267529734836
    Total Energy =                       -348.0926752973477960
  @DF-RHF Final Energy:  -348.09288116425807
    Total Energy =                       -348.0928811642583014
  Basis Set: 6-31G*
  Basis Set:
  @DF-RHF Final Energy:  -348.09290144128931
    Total Energy =                       -348.0929014412893139
  Basis Set: 6-31G*
  Basis Set:
  Basis Set: 6-31G*
  Basis Set:
  @DF-RHF Final Energy:  -348.09293393405324
    Total Energy =                       -348.0929339340531214
  Basis Set: 6-31G*
  Basis Set:
  Basis Set: 6-31G*
  Basis Set:
  @DF-RHF Final Energy:  -348.09293607387934
    Total Energy =                       -348.0929360738790592
  Basis Set: 6-31G*
  Basis Set:
  Charge       = 0
  Multiplicity = 1
  Basis Set: 6-31G*
  Basis Set:

    Orbital Energies (a.u.)
    -----------------------

    Doubly Occupied:

       1A    -20.547194     2A    -11.323960     3A    -11.232707
       4A    -11.229012     5A    -11.227718     6A    -11.226251
       7A    -11.223540     8A    -11.214506     9A     -1.392693
      10A     -1.097340    11A     -1.045183    12A     -0.996869
      13A     -0.941210    14A     -0.862302    15A     -0.790413
      16A     -0.733856    17A     -0.658204    18A     -0.647579
      19A     -0.627056    20A     -0.620900    21A     -0.596475
      22A     -0.577409    23A     -0.568686    24A     -0.547773
      25A     -0.535828    26A     -0.514429    27A     -0.508231
      28A     -0.489826    29A     -0.473156    30A     -0.465818
      31A     -0.457415    32A     -0.396698

  @DF-RHF Final Energy:  -348.09293707054047

   => Energetics <=

    Nuclear Repulsion Energy =            374.7391298834363056
    One-Electron Energy =               -1214.1236621456050671
    Two-Electron Energy =                 491.2915951916283461
    DFT Exchange-Correlation Energy =       0.0000000000000000
    Empirical Dispersion Energy =           0.0000000000000000
    PCM Polarization Energy =               0.0000000000000000
    EFP Energy =                            0.0000000000000000
    Total Energy =                       -348.0929370705403585
    Molecular point group: c1
  Basis Set: 6-31G*
  Basis Set:

  -Total Gradient:
     Atom            X                  Y                   Z
    ------   -----------------  -----------------  -----------------
       1        0.000011804074     0.000014921942    -0.000029946319
       2        0.000052438881    -0.000018547752     0.000121348427
       3        0.000229333271    -0.000059523821    -0.000300199061
       4       -0.000078290407    -0.000025718616    -0.000066505099
       5       -0.000010969630     0.000266834516    -0.000105864154
       6       -0.000183300203     0.000018405421     0.000275370708
       7        0.000014592259     0.000003128771    -0.000006826606
       8       -0.000035577654    -0.000219431785     0.000089196607
       9       -0.000013972358     0.000001539954    -0.000015006972
      10       -0.000016565507    -0.000001606908     0.000006455469
      11       -0.000016785226     0.000004853907     0.000017862054
      12        0.000004217778    -0.000009750625    -0.000006257129
      13       -0.000017144101     0.000003945457     0.000003215136
      14        0.000001780909    -0.000001851982     0.000002198356
      15        0.000004709757     0.000009765276    -0.000002847953
      16        0.000004338442    -0.000007562744    -0.000006195554
      17        0.000000288604     0.000000741168    -0.000001103230
      18       -0.000002335038     0.000005993767    -0.000000371803
      19       -0.000000678746    -0.000003605025     0.000002395484
      20        0.000029285778    -0.000008213759     0.000011080688
      21       -0.000002852345     0.000003146926    -0.000006719551
      22        0.000025681470     0.000022535910     0.000018720502

  **** Optimization is complete! (in 10 steps) ****
    Final optimized geometry and variables:
    Molecular point group: c1

    Geometry (in Angstrom), charge = 0, multiplicity = 1:

    O           -3.003108103044     0.090815689848     0.509674031912
    C           -2.066251837901    -0.460147625700     0.017520564740
    C           -1.019181353167     0.305707670695    -0.769284364152
    C           -1.869927810438    -1.955852702629     0.154988691881
    C            0.281531708820     0.525974074102     0.050359454936
    H           -1.461704748804     1.253088785376    -1.047289938655
    H           -0.792766888604    -0.236864747832    -1.683297136168
    C            1.522704973135    -0.083608450048    -0.608186516434
    H            0.421557131555     1.590568529654     0.192625012184
    H            0.171277126483     0.108755616072     1.049015938626
    C            2.812959618243     0.065532778539     0.205130952259
    H            1.661976977310     0.364392343144    -1.590690371558
    H            1.342869600797    -1.142785385597    -0.782126627745
    C            3.297209126244     1.507293594197     0.370600389334
    H            3.593965613435    -0.510769381318    -0.284311429808
    H            2.674141901670    -0.384634852261     1.186036475204
    H            3.430451226739     1.987389911808    -0.595099608009
    H            4.251832940972     1.534623730428     0.886443671881
    H            2.600752388653     2.107831961308     0.946078390907
    H           -2.023566999838    -2.429786583354    -0.810915870558
    H           -2.581757642970    -2.355466624502     0.863849654951
    H           -0.860358765408    -2.195306927769     0.473300863236

  Mulliken Charges: (a.u.)
   Center  Symbol    Alpha    Beta     Spin     Total
       1     O     4.26033  4.26033  0.00000 -0.52067
       2     C     2.74016  2.74016  0.00000  0.51969
       3     C     3.20372  3.20372  0.00000 -0.40743
       4     C     3.28946  3.28946  0.00000 -0.57892
       5     C     3.16527  3.16527  0.00000 -0.33053
       6     H     0.39764  0.39764  0.00000  0.20473
       7     H     0.41282  0.41282  0.00000  0.17437
       8     C     3.15586  3.15586  0.00000 -0.31172
       9     H     0.40764  0.40764  0.00000  0.18471
      10     H     0.41582  0.41582  0.00000  0.16837
      11     C     3.15400  3.15400  0.00000 -0.30800
      12     H     0.42070  0.42070  0.00000  0.15859
      13     H     0.42241  0.42241  0.00000  0.15518
      14     C     3.24209  3.24209  0.00000 -0.48419
      15     H     0.41906  0.41906  0.00000  0.16188
      16     H     0.42218  0.42218  0.00000  0.15564
      17     H     0.42122  0.42122  0.00000  0.15755
      18     H     0.41731  0.41731  0.00000  0.16537
      19     H     0.41903  0.41903  0.00000  0.16193
      20     H     0.40696  0.40696  0.00000  0.18609
      21     H     0.39680  0.39680  0.00000  0.20640
      22     H     0.40952  0.40952  0.00000  0.18096

   Total alpha = 32.00000, Total beta = 32.00000, Total charge =  0.00000
