                              Psi4 1.0.54 Driver

  ==> Input File <==

--------------------------------------------------------------------------
set {
	reference rhf
	basis cc-pvtz
}

set_num_threads( 4 )
memory 2 gb

molecule MOL {
0 1

H	 3.283589	 -1.473549	 2.602870
C	 2.977515	 -1.361989	 1.569438
C	 1.683394	 -0.562770	 1.463831
H	 3.785577	 -0.870735	 1.037702
H	 2.863302	 -2.356077	 1.150201
C	 1.215950	 -0.382441	 0.027187
H	 1.811952	 0.416035	 1.912359
H	 0.903744	 -1.063592	 2.032953
N	 0.000002	 0.398953	 -0.040851
H	 1.983346	 0.139674	 -0.536433
H	 1.102637	 -1.363934	 -0.442829
C	 -1.215959	 -0.382435	 0.027143
H	 -0.000012	 1.086078	 0.683841
C	 -2.451944	 0.502410	 -0.038737
H	 -1.221867	 -1.069392	 -0.813828
H	 -1.259993	 -0.999709	 0.929424
C	 -3.752217	 -0.292550	 0.005776
H	 -2.407325	 1.093801	 -0.946480
H	 -2.431979	 1.206234	 0.790023
H	 -3.817783	 -0.982946	 -0.828547
H	 -4.612613	 0.364348	 -0.042306
H	 -3.830160	 -0.871666	 0.919868

	symmetry c1
}
set optking {
	frozen_dihedral = ("
		10 6 9 12
	")
}

ee,wfn = optimize('scf', return_wfn=True)
oeprop( wfn, 'DIPOLE', 'QUADRUPOLE', 'MULLIKEN_CHARGES')
f=open( 'psi4out.xyz', 'w' )
f.write( "22  " )
f.write( str(ee) + "\n" )
f.write( MOL.save_string_xyz() )
f.close()
--------------------------------------------------------------------------

    Molecular point group: c1
  Charge       = 0
  Multiplicity = 1
  Basis Set: CC-PVTZ
  Basis Set:
  @DF-RHF Final Energy:  -290.48491167363028
    Total Energy =                       -290.4849116736305064
    Molecular point group: c1
  Basis Set: CC-PVTZ
  Basis Set:
  Basis Set: CC-PVTZ
  Basis Set:
  @DF-RHF Final Energy:  -290.48639517616124
    Total Energy =                       -290.4863951761611816
  Basis Set: CC-PVTZ
  Basis Set:
  Basis Set: CC-PVTZ
  Basis Set:
  @DF-RHF Final Energy:  -290.48663534886606
    Total Energy =                       -290.4866353488658319
  Basis Set: CC-PVTZ
  Basis Set:
  Basis Set: CC-PVTZ
  Basis Set:
  @DF-RHF Final Energy:  -290.48665053348122
    Total Energy =                       -290.4866505334809403
  Basis Set: CC-PVTZ
  Basis Set:
  Basis Set: CC-PVTZ
  Basis Set:
  @DF-RHF Final Energy:  -290.48665232362180
    Total Energy =                       -290.4866523236217404
  Basis Set: CC-PVTZ
  Basis Set:
  Charge       = 0
  Multiplicity = 1
  Basis Set: CC-PVTZ
  Basis Set:

    Orbital Energies (a.u.)
    -----------------------

    Doubly Occupied:

       1A    -15.525109     2A    -11.236116     3A    -11.235798
       4A    -11.213050     5A    -11.211323     6A    -11.208897
       7A    -11.207262     8A     -1.203514     9A     -1.059038
      10A     -1.027519    11A     -0.929340    12A     -0.870918
      13A     -0.806644    14A     -0.804296    15A     -0.658099
      16A     -0.640691    17A     -0.616181    18A     -0.602853
      19A     -0.578018    20A     -0.552787    21A     -0.547096
      22A     -0.519920    23A     -0.512983    24A     -0.490151
      25A     -0.485257    26A     -0.474344    27A     -0.470198
      28A     -0.458593    29A     -0.351856

  @DF-RHF Final Energy:  -290.48665244631457

   => Energetics <=

    Nuclear Repulsion Energy =            316.3343661383621566
    One-Electron Energy =               -1018.6463285808167711
    Two-Electron Energy =                 411.8253099961398220
    DFT Exchange-Correlation Energy =       0.0000000000000000
    Empirical Dispersion Energy =           0.0000000000000000
    PCM Polarization Energy =               0.0000000000000000
    EFP Energy =                            0.0000000000000000
    Total Energy =                       -290.4866524463147925
    Molecular point group: c1
  Basis Set: CC-PVTZ
  Basis Set:

  -Total Gradient:
     Atom            X                  Y                   Z
    ------   -----------------  -----------------  -----------------
       1       -0.000005826771     0.000000991076    -0.000004694518
       2        0.000006151608    -0.000007552208     0.000001093247
       3       -0.000017002849     0.000018900349    -0.000012760571
       4        0.000001892661     0.000006498954    -0.000000636353
       5       -0.000002313910    -0.000007813729    -0.000001656836
       6        0.000731692264     0.001411055879     0.001516448713
       7        0.000002838247    -0.000000501424     0.000006245768
       8        0.000000933916    -0.000002785416     0.000012480219
       9       -0.000147384444     0.000041754903     0.002131011690
      10       -0.000586201677    -0.001211725245    -0.001847339530
      11        0.000000363633    -0.000007224006    -0.000010622801
      12       -0.000002003519    -0.000251626269    -0.001789676215
      13        0.000002399920     0.000002912940     0.000002797651
      14        0.000007576779     0.000008172438    -0.000005624809
      15       -0.000002228951     0.000000198921    -0.000002405197
      16        0.000000446968     0.000001793640     0.000000248145
      17        0.000006704347    -0.000005285010     0.000006140616
      18        0.000002011630     0.000000510262    -0.000004050472
      19       -0.000002580158     0.000000433924     0.000001376893
      20        0.000001003285     0.000001117313    -0.000001306015
      21        0.000003240499     0.000003745610     0.000001070556
      22       -0.000001713483    -0.000003572906     0.000001859820

  **** Optimization is complete! (in 6 steps) ****
    Final optimized geometry and variables:
    Molecular point group: c1

    Geometry (in Angstrom), charge = 0, multiplicity = 1:

    H            3.590775598559    -1.238432131161     2.098489645627
    C            3.241948601790    -1.097990163178     1.082205248214
    C            1.947041065601    -0.293183579046     1.047887184345
    H            4.029306853511    -0.596764878635     0.529071439634
    H            3.104292082747    -2.079998001063     0.641825733144
    C            1.438209080769    -0.055040222989    -0.372754696210
    H            2.106939876969     0.668265500434     1.530114114691
    H            1.184547848784    -0.805291264643     1.626786562216
    N            0.202346137992     0.696568874673    -0.475868279044
    H            2.205531512247     0.450536648111    -0.952028747643
    H            1.286486324734    -1.011346727689    -0.863425263700
    C           -1.021518998598    -0.070865920621    -0.383592938858
    H            0.193907549984     1.455319004774     0.171542733840
    C           -2.243769906913     0.827456123205    -0.504898020202
    H           -1.027001373093    -0.790447532783    -1.196239684620
    H           -1.095687620220    -0.647940789682     0.541931821770
    C           -3.555698679013     0.052403771211    -0.453600265031
    H           -2.174574140120     1.382990730041    -1.433586071261
    H           -2.228461502300     1.561743028447     0.297113827922
    H           -3.616284526824    -0.668685048871    -1.261925214409
    H           -4.405625109901     0.718643371517    -0.542617430063
    H           -3.658211016374    -0.489694567893     0.480558000510

  Mulliken Charges: (a.u.)
   Center  Symbol    Alpha    Beta     Spin     Total
       1     H     0.44777  0.44777  0.00000  0.10446
       2     C     3.15216  3.15216  0.00000 -0.30432
       3     C     3.08650  3.08650  0.00000 -0.17300
       4     H     0.45441  0.45441  0.00000  0.09118
       5     H     0.45443  0.45443  0.00000  0.09114
       6     C     3.03830  3.03830  0.00000 -0.07659
       7     H     0.45887  0.45887  0.00000  0.08227
       8     H     0.45329  0.45329  0.00000  0.09341
       9     N     3.64373  3.64373  0.00000 -0.28746
      10     H     0.44842  0.44842  0.00000  0.10316
      11     H     0.45970  0.45970  0.00000  0.08061
      12     C     3.01944  3.01944  0.00000 -0.03889
      13     H     0.44556  0.44556  0.00000  0.10888
      14     C     3.08133  3.08133  0.00000 -0.16265
      15     H     0.45907  0.45907  0.00000  0.08185
      16     H     0.47642  0.47642  0.00000  0.04716
      17     C     3.15327  3.15327  0.00000 -0.30654
      18     H     0.44899  0.44899  0.00000  0.10201
      19     H     0.45961  0.45961  0.00000  0.08078
      20     H     0.45483  0.45483  0.00000  0.09034
      21     H     0.44776  0.44776  0.00000  0.10448
      22     H     0.45613  0.45613  0.00000  0.08773

   Total alpha = 29.00000, Total beta = 29.00000, Total charge =  0.00000

*** Psi4 exiting successfully. Buy a developer a beer!
