                              Psi4 1.0.54 Driver

  ==> Input File <==

--------------------------------------------------------------------------
set {
	reference rhf
	basis cc-pvtz
}

set_num_threads( 4 )
memory 2 gb

molecule MOL {
0 1

H	 -3.547847	 0.322501	 0.497368
O	 -3.097602	 -0.291129	 -0.054985
C	 -1.770543	 -0.100993	 -0.015462
C	 -1.190304	 0.893518	 0.762166
C	 -0.980709	 -0.938712	 -0.785249
H	 -1.809688	 1.539517	 1.356705
C	 0.175969	 1.045095	 0.765999
H	 -1.448243	 -1.699213	 -1.377762
C	 0.385890	 -0.773761	 -0.770287
H	 0.635828	 1.808533	 1.361652
C	 0.981121	 0.213562	 0.000000
H	 0.999617	 -1.423111	 -1.367113
C	 2.447402	 0.371303	 0.000000
O	 3.227427	 -0.521847	 0.000000
H	 2.796538	 1.409525	 0.000000

	symmetry c1
}
set optking {
	frozen_dihedral = ("
		7 11 13 14
	")
}

ee,wfn = optimize('scf', return_wfn=True)
oeprop( wfn, 'DIPOLE', 'QUADRUPOLE', 'MULLIKEN_CHARGES')
f=open( 'psi4out.xyz', 'w' )
f.write( "15  " )
f.write( str(ee) + "\n" )
f.write( MOL.save_string_xyz() )
f.close()
--------------------------------------------------------------------------

    Molecular point group: c1
  Charge       = 0
  Multiplicity = 1
  Basis Set: CC-PVTZ
  Basis Set:
  @DF-RHF Final Energy:  -418.43605167598213
    Total Energy =                       -418.4360516759819575
    Molecular point group: c1
  Basis Set: CC-PVTZ
  Basis Set:
  Basis Set: CC-PVTZ
  Basis Set:
  @DF-RHF Final Energy:  -418.43494397798594
    Total Energy =                       -418.4349439779858812
  Basis Set: CC-PVTZ
  Basis Set:
  Basis Set: CC-PVTZ
  Basis Set:
  @DF-RHF Final Energy:  -418.43676946279305
    Total Energy =                       -418.4367694627931087
  Basis Set: CC-PVTZ
  Basis Set:
  Basis Set: CC-PVTZ
  Basis Set:
  @DF-RHF Final Energy:  -418.43715239801014
    Total Energy =                       -418.4371523980103120
  Basis Set: CC-PVTZ
  Basis Set:
  Basis Set: CC-PVTZ
  Basis Set:
  @DF-RHF Final Energy:  -418.43718391582024
    Total Energy =                       -418.4371839158201283
  Basis Set: CC-PVTZ
  Basis Set:
  Charge       = 0
  Multiplicity = 1
  Basis Set: CC-PVTZ
  Basis Set:

    Orbital Energies (a.u.)
    -----------------------

    Doubly Occupied:

       1A    -20.602246     2A    -20.550716     3A    -11.325228
       4A    -11.319119     5A    -11.258715     6A    -11.251407
       7A    -11.241804     8A    -11.238498     9A    -11.235300
      10A     -1.435002    11A     -1.406235    12A     -1.174324
      13A     -1.045199    14A     -1.039453    15A     -0.895585
      16A     -0.861228    17A     -0.806027    18A     -0.760152
      19A     -0.700738    20A     -0.690019    21A     -0.645875
      22A     -0.630820    23A     -0.612841    24A     -0.610401
      25A     -0.591480    26A     -0.562665    27A     -0.546859
      28A     -0.508259    29A     -0.492299    30A     -0.423226
      31A     -0.360394    32A     -0.330665

  @DF-RHF Final Energy:  -418.43718659943613

   => Energetics <=

    Nuclear Repulsion Energy =            402.2534031297046795
    One-Electron Energy =               -1367.0756236676934350
    Two-Electron Energy =                 546.3850339385522830
    DFT Exchange-Correlation Energy =       0.0000000000000000
    Empirical Dispersion Energy =           0.0000000000000000
    PCM Polarization Energy =               0.0000000000000000
    EFP Energy =                            0.0000000000000000
    Total Energy =                       -418.4371865994364725
    Molecular point group: c1
  Basis Set: CC-PVTZ
  Basis Set:

  -Total Gradient:
     Atom            X                  Y                   Z
    ------   -----------------  -----------------  -----------------
       1        0.000006787887    -0.000001262572    -0.000005240723
       2       -0.000020484938     0.000042015184     0.000026014351
       3        0.000062241045    -0.000322017401    -0.000213158511
       4        0.000268071200     0.000187329865     0.000077450867
       5       -0.000316655633     0.000116286807     0.000116218170
       6       -0.000025583150    -0.000011636663    -0.000008655932
       7       -0.000203641211    -0.004224880212     0.004741012034
       8        0.000031787501    -0.000008372760    -0.000011993782
       9        0.000255342497     0.000207916058     0.000118009301
      10        0.000008158758    -0.000005044436    -0.000015432764
      11       -0.000276631289     0.005782023547    -0.003444040516
      12       -0.000013231357    -0.000011512884    -0.000012326388
      13        0.000658582287    -0.001274466710    -0.009125815278
      14       -0.000417300933    -0.000460752746     0.007741439972
      15       -0.000017442648    -0.000015625081     0.000016519198

  **** Optimization is complete! (in 6 steps) ****
    Final optimized geometry and variables:
    Molecular point group: c1

    Geometry (in Angstrom), charge = 0, multiplicity = 1:

    H           -3.544116851714     0.316183172634     0.553273242552
    O           -3.095218808174    -0.291068653189    -0.007184111134
    C           -1.769313249765    -0.080672574425     0.009047777259
    C           -1.186769520268     0.918242391272     0.767668439237
    C           -0.981173496516    -0.915736535137    -0.773101932149
    H           -1.795602801572     1.554653395068     1.382870808335
    C            0.183214465828     1.090282694891     0.727719853892
    H           -1.453001965053    -1.687596639338    -1.347776882312
    C            0.381030880670    -0.748843943292    -0.782024278693
    H            0.630867094098     1.871896987692     1.313822423656
    C            0.978388293798     0.273256319095    -0.051918330830
    H            0.999297468033    -1.409308482879    -1.357892665103
    C            2.453062324038     0.388350512278     0.030398229921
    O            3.198103398865    -0.531987382568     0.015544894054
    H            2.833872470575     1.404293936387     0.182806353788

  Mulliken Charges: (a.u.)
   Center  Symbol    Alpha    Beta     Spin     Total
       1     H     0.38602  0.38602  0.00000  0.22796
       2     O     4.16726  4.16726  0.00000 -0.33451
       3     C     2.84806  2.84806  0.00000  0.30387
       4     C     3.13305  3.13305  0.00000 -0.26610
       5     C     3.10208  3.10208  0.00000 -0.20415
       6     H     0.43217  0.43217  0.00000  0.13567
       7     C     3.07781  3.07781  0.00000 -0.15561
       8     H     0.41613  0.41613  0.00000  0.16774
       9     C     3.06536  3.06536  0.00000 -0.13072
      10     H     0.42190  0.42190  0.00000  0.15620
      11     C     2.98596  2.98596  0.00000  0.02809
      12     H     0.41206  0.41206  0.00000  0.17589
      13     C     2.92355  2.92355  0.00000  0.15290
      14     O     4.16925  4.16925  0.00000 -0.33850
      15     H     0.45936  0.45936  0.00000  0.08128

   Total alpha = 32.00000, Total beta = 32.00000, Total charge = -0.00000

*** Psi4 exiting successfully. Buy a developer a beer!
