                              Psi4 1.0.54 Driver

  ==> Input File <==

--------------------------------------------------------------------------
set {
	reference rhf
	basis cc-pvtz
}

set_num_threads( 4 )
memory 2 gb

molecule MOL {
0 1

O	 0.766937	 2.014457	 0.361822
C	 -0.184877	 2.189352	 1.043382
C	 -1.444966	 1.362983	 1.015921
O	 -0.265318	 3.158755	 1.940134
C	 -1.413045	 0.229353	 0.001137
H	 -1.603415	 0.986310	 2.021154
H	 -2.269259	 2.041385	 0.821568
C	 -2.702562	 -0.586401	 0.000228
H	 -0.569330	 -0.417664	 0.213400
H	 -1.236470	 0.638342	 -0.987344
C	 -3.953810	 0.284959	 -0.000782
H	 -2.717793	 -1.238567	 -0.869075
H	 -2.719108	 -1.238472	 0.869576
H	 -3.983727	 0.924403	 -0.876454
H	 -4.852989	 -0.320147	 -0.001515
H	 -3.985140	 0.924399	 0.874841
C	 0.851658	 4.014384	 2.072736
H	 1.728497	 3.454657	 2.362714
H	 0.592814	 4.724818	 2.840949
H	 1.052062	 4.526662	 1.143418

	symmetry c1
}
set optking {
	frozen_dihedral = ("
		9 5 8 12
	")
}

ee,wfn = optimize('scf', return_wfn=True)
oeprop( wfn, 'DIPOLE', 'QUADRUPOLE', 'MULLIKEN_CHARGES')
f=open( 'psi4out.xyz', 'w' )
f.write( "20  " )
f.write( str(ee) + "\n" )
f.write( MOL.save_string_xyz() )
f.close()
--------------------------------------------------------------------------

    Molecular point group: c1
  Charge       = 0
  Multiplicity = 1
  Basis Set: CC-PVTZ
  Basis Set:
  @DF-RHF Final Energy:  -384.07839830558197
    Total Energy =                       -384.0783983055823683
    Molecular point group: c1
  Basis Set: CC-PVTZ
  Basis Set:
  Basis Set: CC-PVTZ
  Basis Set:
  @DF-RHF Final Energy:  -384.06333458671548
    Total Energy =                       -384.0633345867157118
  Basis Set: CC-PVTZ
  Basis Set:
  Basis Set: CC-PVTZ
  Basis Set:
  @DF-RHF Final Energy:  -384.07977084707790
    Total Energy =                       -384.0797708470779526
  Basis Set: CC-PVTZ
  Basis Set:
  Basis Set: CC-PVTZ
  Basis Set:
  @DF-RHF Final Energy:  -384.08024662706680
    Total Energy =                       -384.0802466270663444
  Basis Set: CC-PVTZ
  Basis Set:
  Basis Set: CC-PVTZ
  Basis Set:
  @DF-RHF Final Energy:  -384.07903859495212
    Total Energy =                       -384.0790385949519532
  Basis Set: CC-PVTZ
  Basis Set:
  Basis Set: CC-PVTZ
  Basis Set:
  @DF-RHF Final Energy:  -384.08029225984910
    Total Energy =                       -384.0802922598496707
  Basis Set: CC-PVTZ
  Basis Set:
  Basis Set: CC-PVTZ
  Basis Set:
  @DF-RHF Final Energy:  -384.08031955446762
    Total Energy =                       -384.0803195544677919
  Basis Set: CC-PVTZ
  Basis Set:
  Charge       = 0
  Multiplicity = 1
  Basis Set: CC-PVTZ
  Basis Set:

    Orbital Energies (a.u.)
    -----------------------

    Doubly Occupied:

       1A    -20.596119     2A    -20.534034     3A    -11.364439
       4A    -11.278372     5A    -11.233156     6A    -11.218843
       7A    -11.217673     8A    -11.210947     9A     -1.472092
      10A     -1.365646    11A     -1.089596    12A     -1.023016
      13A     -0.968245    14A     -0.897109    15A     -0.799548
      16A     -0.764416    17A     -0.703613    18A     -0.686138
      19A     -0.675479    20A     -0.640045    21A     -0.609891
      22A     -0.595197    23A     -0.568939    24A     -0.549782
      25A     -0.538174    26A     -0.524044    27A     -0.510806
      28A     -0.474507    29A     -0.470674    30A     -0.468554
      31A     -0.458888    32A     -0.440959

  @DF-RHF Final Energy:  -384.08032010761735

   => Energetics <=

    Nuclear Repulsion Energy =            386.0429770873225834
    One-Electron Energy =               -1288.3487105168737799
    Two-Electron Energy =                 518.2254133219339565
    DFT Exchange-Correlation Energy =       0.0000000000000000
    Empirical Dispersion Energy =           0.0000000000000000
    PCM Polarization Energy =               0.0000000000000000
    EFP Energy =                            0.0000000000000000
    Total Energy =                       -384.0803201076172400
    Molecular point group: c1
  Basis Set: CC-PVTZ
  Basis Set:

  -Total Gradient:
     Atom            X                  Y                   Z
    ------   -----------------  -----------------  -----------------
       1       -0.000046199971     0.000067995776     0.000058234074
       2       -0.000029975913    -0.000045174479     0.000009517637
       3        0.000031439269    -0.000019337467    -0.000031503901
       4        0.000083751607    -0.000056732547    -0.000074021734
       5        0.001038999874    -0.000204380415    -0.005215828398
       6       -0.000006614526     0.000002755505    -0.000009283165
       7       -0.000005693045    -0.000003478420     0.000001080565
       8        0.002040876382    -0.002918080504     0.003892362071
       9       -0.001225798230     0.000612306917     0.003804584837
      10        0.000008183058     0.000003056150     0.000009032837
      11        0.000016012481    -0.000005333040     0.000001548681
      12       -0.001922179715     0.002513831737    -0.002471239246
      13        0.000003088420    -0.000012422797     0.000003450105
      14       -0.000011299996     0.000006743024    -0.000000907147
      15        0.000013589550     0.000005146381    -0.000001445235
      16        0.000002926511    -0.000010097467    -0.000011613393
      17       -0.000001954904     0.000047908077     0.000033647423
      18       -0.000026091342     0.000011755533    -0.000018721729
      19        0.000035957899     0.000016525577     0.000001939016
      20        0.000000982595    -0.000012987541     0.000019166705

  **** Optimization is complete! (in 8 steps) ****
    Final optimized geometry and variables:
    Molecular point group: c1

    Geometry (in Angstrom), charge = 0, multiplicity = 1:

    O            1.791810142469     0.612627175948    -0.105827358479
    C            0.714310492309     0.686517706031     0.378454991214
    C           -0.439438451882    -0.243265861229     0.100193754444
    O            0.375601937852     1.623182715068     1.249592756682
    C           -0.100056965077    -1.344227859296    -0.898880826532
    H           -0.750483891635    -0.659913952781     1.053278296675
    H           -1.263807921035     0.373313272105    -0.236586977740
    C           -1.213526953016    -2.379426533257    -1.086059621136
    H            0.787138092971    -1.847666965133    -0.535305096812
    H            0.157094083441    -0.895652679873    -1.851104090662
    C           -2.598262911759    -1.798845346756    -1.372480150896
    H           -0.944392110599    -3.005414837169    -1.930434941415
    H           -1.266710074699    -3.023414482350    -0.213557192112
    H           -2.571311182806    -1.121370476283    -2.220325708142
    H           -3.300008195510    -2.590407519977    -1.607978908206
    H           -2.998284659627    -1.254063626705    -0.525725519656
    C            1.364574655462     2.568645436019     1.603410617322
    H            2.215669692460     2.079839403141     2.053815988633
    H            0.900008259239     3.234711879493     2.312226800403
    H            1.693764436825     3.119427893933     0.734818211356

  Mulliken Charges: (a.u.)
   Center  Symbol    Alpha    Beta     Spin     Total
       1     O     4.19657  4.19657  0.00000 -0.39314
       2     C     2.80797  2.80797  0.00000  0.38407
       3     C     3.10211  3.10211  0.00000 -0.20423
       4     O     4.14688  4.14688  0.00000 -0.29376
       5     C     3.08949  3.08949  0.00000 -0.17899
       6     H     0.43965  0.43965  0.00000  0.12071
       7     H     0.43786  0.43786  0.00000  0.12429
       8     C     3.09306  3.09306  0.00000 -0.18612
       9     H     0.44178  0.44178  0.00000  0.11645
      10     H     0.44521  0.44521  0.00000  0.10959
      11     C     3.15750  3.15750  0.00000 -0.31499
      12     H     0.44725  0.44725  0.00000  0.10549
      13     H     0.45202  0.45202  0.00000  0.09595
      14     H     0.45295  0.45295  0.00000  0.09409
      15     H     0.44441  0.44441  0.00000  0.11118
      16     H     0.45343  0.45343  0.00000  0.09315
      17     C     3.03798  3.03798  0.00000 -0.07595
      18     H     0.45428  0.45428  0.00000  0.09143
      19     H     0.44522  0.44522  0.00000  0.10957
      20     H     0.45439  0.45439  0.00000  0.09121

   Total alpha = 32.00000, Total beta = 32.00000, Total charge = -0.00000

*** Psi4 exiting successfully. Buy a developer a beer!
