  ==> Input File <==

--------------------------------------------------------------------------
set {
	reference rhf
	basis cc-pvtz
}

set_num_threads( 4 )
memory 2 gb

molecule MOL {
0 1

H	 -2.752000	 0.820000	 0.298000
N	 -2.325000	 -0.000000	 -0.076000
C	 -0.929000	 0.000000	 -0.014000
H	 -2.752000	 -0.820000	 0.298000
C	 -0.220000	 -1.198000	 -0.008000
C	 -0.220000	 1.198000	 -0.008000
H	 -0.754000	 -2.133000	 -0.020000
C	 1.163000	 -1.192000	 0.004000
H	 -0.754000	 2.133000	 -0.020000
C	 1.163000	 1.192000	 0.004000
H	 1.692000	 -2.130000	 0.009000
C	 1.869000	 0.000000	 0.011000
H	 1.692000	 2.130000	 0.009000
H	 2.944000	 -0.000000	 0.022000

	symmetry c1
}
ee = optimize('scf')
oeprop('DIPOLE', 'QUADRUPOLE', 'MULLIKEN_CHARGES')
f=open( 'psi4out.xyz', 'w' )
f.write( "14  " )
f.write( str(ee) + "\n" )
f.write( MOL.save_string_xyz() )
f.close()
--------------------------------------------------------------------------

    Molecular point group: c1
  Charge       = 0
  Multiplicity = 1
  Basis Set: CC-PVTZ
  Basis Set:
  @DF-RHF Final Energy:  -285.83360375566701
    Total Energy =                       -285.8336037556670703
    Molecular point group: c1
  Basis Set: CC-PVTZ
  Basis Set:
  Basis Set: CC-PVTZ
  Basis Set:
  @DF-RHF Final Energy:  -285.83372300233134
    Total Energy =                       -285.8337230023314532
  Basis Set: CC-PVTZ
  Basis Set:
  Basis Set: CC-PVTZ
  Basis Set:
  @DF-RHF Final Energy:  -285.83373000769052
    Total Energy =                       -285.8337300076908605
  Basis Set: CC-PVTZ
  Basis Set:
  Basis Set: CC-PVTZ
  Basis Set:
  @DF-RHF Final Energy:  -285.83373150549096
    Total Energy =                       -285.8337315054910732
  Basis Set: CC-PVTZ
  Basis Set:
  Charge       = 0
  Multiplicity = 1
  Basis Set: CC-PVTZ
  Basis Set:

    Orbital Energies (a.u.)
    -----------------------

    Doubly Occupied:

       1A    -15.556186     2A    -11.271041     3A    -11.227162
       4A    -11.227124     5A    -11.215532     6A    -11.215512
       7A    -11.210931     8A     -1.227269     9A     -1.130606
      10A     -1.013468    11A     -0.987942    12A     -0.832972
      13A     -0.813644    14A     -0.708253    15A     -0.687946
      16A     -0.654976    17A     -0.598796    18A     -0.594444
      19A     -0.581580    20A     -0.535701    21A     -0.506475
      22A     -0.487277    23A     -0.449132    24A     -0.336287
      25A     -0.294415

  @DF-RHF Final Energy:  -285.83373170618120

   => Energetics <=

    Nuclear Repulsion Energy =            273.7490876361212031
    One-Electron Energy =                -928.4363001814065228
    Two-Electron Energy =                 368.8534808391042361
    DFT Exchange-Correlation Energy =       0.0000000000000000
    Empirical Dispersion Energy =           0.0000000000000000
    PCM Polarization Energy =               0.0000000000000000
    EFP Energy =                            0.0000000000000000
    Total Energy =                       -285.8337317061810836
    Molecular point group: c1
  Basis Set: CC-PVTZ
  Basis Set:

  -Total Gradient:
     Atom            X                  Y                   Z
    ------   -----------------  -----------------  -----------------
       1       -0.000019235041    -0.000007304050     0.000002963783
       2        0.000005755629     0.000018485158    -0.000000001663
       3       -0.000023238269    -0.000018330808    -0.000000005422
       4       -0.000019235669    -0.000007304221    -0.000002962739
       5        0.000026406213     0.000003459531     0.000010892436
       6        0.000026391916     0.000003460222    -0.000010887029
       7        0.000002228193    -0.000001282398    -0.000008257814
       8       -0.000003138911     0.000015602043    -0.000001172833
       9        0.000002225389    -0.000001282254     0.000008253139
      10       -0.000003127761     0.000015601603     0.000001179048
      11        0.000000721788    -0.000001975357    -0.000001834752
      12        0.000012958813    -0.000016761560     0.000000001057
      13        0.000000722380    -0.000001975412     0.000001832984
      14       -0.000009434673    -0.000000392496    -0.000000000192

  **** Optimization is complete! (in 5 steps) ****
    Final optimized geometry and variables:
    Molecular point group: c1

    Geometry (in Angstrom), charge = 0, multiplicity = 1:

    H            2.755332538764     0.295716700052     0.820018615227
    N            2.326826151538    -0.066186445038    -0.000000000440
    C            0.934676308542    -0.005420526115    -0.000000004340
    H            2.755332544239     0.295716737683    -0.820018595697
    C            0.226436293188    -0.001076736597    -1.195128951005
    C            0.226436287167    -0.001076730998     1.195128946209
    H            0.759090733597    -0.011439249669    -2.128122885888
    C           -1.153390846744     0.009141035495    -1.189027681717
    H            0.759090732482    -0.011439238036     2.128122876884
    C           -1.153390841159     0.009141036641     1.189027687227
    H           -1.680904321649     0.012964250720    -2.124348413469
    C           -1.857875543269     0.014674836955     0.000000002502
    H           -1.680904312766     0.012964252462     2.124348420256
    H           -2.930222210123     0.022904172239     0.000000002203

  Mulliken Charges: (a.u.)
   Center  Symbol    Alpha    Beta     Spin     Total
       1     H     0.42249  0.42249  0.00000  0.15502
       2     N     3.66723  3.66723  0.00000 -0.33447
       3     C     2.88931  2.88931  0.00000  0.22137
       4     H     0.42249  0.42249  0.00000  0.15502
       5     C     3.11730  3.11730  0.00000 -0.23461
       6     C     3.11730  3.11730  0.00000 -0.23461
       7     H     0.43403  0.43403  0.00000  0.13195
       8     C     3.05790  3.05790  0.00000 -0.11580
       9     H     0.43403  0.43403  0.00000  0.13195
      10     C     3.05790  3.05790  0.00000 -0.11580
      11     H     0.42473  0.42473  0.00000  0.15054
      12     C     3.10517  3.10517  0.00000 -0.21033
      13     H     0.42473  0.42473  0.00000  0.15054
      14     H     0.42538  0.42538  0.00000  0.14924

   Total alpha = 25.00000, Total beta = 25.00000, Total charge =  0.00000
