  ==> Input File <==

--------------------------------------------------------------------------
set {
	reference rhf
	basis cc-pvtz
}

set_num_threads( 4 )
memory 2 gb

molecule MOL {
0 1

H	 -0.366580	 2.045936	 -0.305741
C	 0.351829	 1.335402	 0.083179
N	 -0.000018	 0.000080	 -0.334836
H	 1.327156	 1.599860	 -0.305475
H	 0.380566	 1.445403	 1.171445
C	 0.786388	 -1.002384	 0.342669
C	 -1.415821	 -0.249332	 -0.210192
H	 0.546264	 -1.984508	 -0.044455
H	 1.840345	 -0.824108	 0.170686
H	 0.617696	 -1.014625	 1.423624
H	 -1.971886	 0.479315	 -0.786427
H	 -1.653587	 -1.232367	 -0.596501
H	 -1.765770	 -0.199294	 0.825251

	symmetry c1
}
set optking {
	frozen_dihedral = ("
		6 3 2 1
	")
}

ee = optimize('scf')
oeprop('DIPOLE', 'QUADRUPOLE', 'MULLIKEN_CHARGES')
f=open( 'psi4out.xyz', 'w' )
f.write( "13  " )
f.write( str(ee) + "\n" )
f.write( MOL.save_string_xyz() )
f.close()
--------------------------------------------------------------------------

    Molecular point group: c1
  Charge       = 0
  Multiplicity = 1
  Basis Set: CC-PVTZ
  Basis Set:
  @DF-RHF Final Energy:  -173.33314917476153
    Total Energy =                       -173.3331491747616155
    Molecular point group: c1
  Basis Set: CC-PVTZ
  Basis Set:
  Basis Set: CC-PVTZ
  Basis Set:
  @DF-RHF Final Energy:  -173.33325746292459
    Total Energy =                       -173.3332574629245073
  Basis Set: CC-PVTZ
  Basis Set:
  Basis Set: CC-PVTZ
  Basis Set:
  @DF-RHF Final Energy:  -173.33326913289028
    Total Energy =                       -173.3332691328902797
  Basis Set: CC-PVTZ
  Basis Set:
  Charge       = 0
  Multiplicity = 1
  Basis Set: CC-PVTZ
  Basis Set:

    Orbital Energies (a.u.)
    -----------------------

    Doubly Occupied:

       1A    -15.539889     2A    -11.234338     3A    -11.234312
       4A    -11.234188     5A     -1.227045     6A     -0.952222
       7A     -0.951787     8A     -0.807471     9A     -0.643208
      10A     -0.631707    11A     -0.630744    12A     -0.545530
      13A     -0.543479    14A     -0.517032    15A     -0.501839
      16A     -0.501338    17A     -0.350318

  @DF-RHF Final Energy:  -173.33326960449000

   => Energetics <=

    Nuclear Repulsion Energy =            139.4863052758914250
    One-Electron Energy =                -509.5462580583969725
    Two-Electron Energy =                 196.7266831780155201
    DFT Exchange-Correlation Energy =       0.0000000000000000
    Empirical Dispersion Energy =           0.0000000000000000
    PCM Polarization Energy =               0.0000000000000000
    EFP Energy =                            0.0000000000000000
    Total Energy =                       -173.3332696044900274
    Molecular point group: c1
  Basis Set: CC-PVTZ
  Basis Set:

  -Total Gradient:
     Atom            X                  Y                   Z
    ------   -----------------  -----------------  -----------------
       1       -0.001759840123    -0.000343997202     0.002576505270
       2        0.001624946792     0.000371597518    -0.002636351794
       3        0.001743271447     0.000091659971    -0.001644161527
       4       -0.000001166200    -0.000009914681     0.000006718620
       5       -0.000003193873     0.000019544192     0.000021251889
       6       -0.001667451999    -0.000072192142     0.001675055066
       7        0.000062858174    -0.000038165999    -0.000040121132
       8        0.000006767568    -0.000009478846     0.000003194015
       9        0.000004076613    -0.000001433459     0.000001299189
      10        0.000005837905    -0.000008076045     0.000019613032
      11        0.000011242995     0.000005516500     0.000008205491
      12       -0.000033089744    -0.000015328916     0.000000414872
      13        0.000005740448     0.000010269110     0.000008377009

  **** Optimization is complete! (in 4 steps) ****
    Final optimized geometry and variables:
    Molecular point group: c1

    Geometry (in Angstrom), charge = 0, multiplicity = 1:

    H           -0.279733320856     2.028917771962    -0.297114297057
    C            0.432073401010     1.312069133156     0.090617119888
    N            0.072933688142    -0.021356073830    -0.334843783034
    H            1.420025627101     1.570831085495    -0.269303466936
    H            0.430284065488     1.417945707724     1.179891175297
    C            0.856823172110    -1.023203558333     0.347323479983
    C           -1.341923502811    -0.272849896666    -0.190098051936
    H            0.630100436356    -2.005647970879    -0.047165249769
    H            1.912410499126    -0.837056101702     0.191327361659
    H            0.673615871769    -1.038947600187     1.425830334697
    H           -1.907694512374     0.442450926274    -0.773122775662
    H           -1.578889451405    -1.263584949618    -0.557077248830
    H           -1.682102857153    -0.208876034992     0.848152214455

  Mulliken Charges: (a.u.)
   Center  Symbol    Alpha    Beta     Spin     Total
       1     H     0.45382  0.45382  0.00000  0.09236
       2     C     3.08891  3.08891  0.00000 -0.17782
       3     N     3.59605  3.59605  0.00000 -0.19209
       4     H     0.45081  0.45081  0.00000  0.09838
       5     H     0.47379  0.47379  0.00000  0.05241
       6     C     3.08980  3.08980  0.00000 -0.17961
       7     C     3.08915  3.08915  0.00000 -0.17830
       8     H     0.45257  0.45257  0.00000  0.09486
       9     H     0.45276  0.45276  0.00000  0.09448
      10     H     0.47331  0.47331  0.00000  0.05339
      11     H     0.45221  0.45221  0.00000  0.09558
      12     H     0.45260  0.45260  0.00000  0.09480
      13     H     0.47422  0.47422  0.00000  0.05156

   Total alpha = 17.00000, Total beta = 17.00000, Total charge = -0.00000
