  ==> Input File <==

--------------------------------------------------------------------------
set {
	reference rhf
	basis 6-31G*
}

set_num_threads( 1 )
memory 2 gb

molecule MOL {
0 1

H	 1.928526	 4.860429	 0.072753
C	 2.459543	 4.559528	 0.984402
C	 1.632259	 3.782773	 1.976805
O	 3.602290	 4.848995	 1.133024
C	 0.929563	 2.575586	 1.340273
H	 2.274139	 3.483374	 2.797207
H	 0.881933	 4.466373	 2.372226
C	 1.895373	 1.483963	 0.872439
H	 0.237751	 2.158372	 2.065954
H	 0.321853	 2.912130	 0.501712
C	 1.180775	 0.282413	 0.250794
H	 2.494550	 1.152624	 1.718044
H	 2.597056	 1.896794	 0.150116
C	 2.148627	 -0.814315	 -0.201312
H	 0.474161	 -0.119141	 0.972724
H	 0.591383	 0.615365	 -0.602520
C	 3.580890	 -0.659131	 0.322722
H	 2.166869	 -0.852443	 -1.289387
H	 1.762857	 -1.776509	 0.128956
C	 4.324889	 0.564933	 -0.213704
H	 4.142010	 -1.551473	 0.056605
H	 3.564836	 -0.624694	 1.410140
H	 4.342616	 0.565491	 -1.300421
H	 3.866655	 1.493402	 0.110242
H	 5.353900	 0.572371	 0.132816

	symmetry c1
}
set optking {
	frozen_dihedral = ("
		6 3 5 8,
		6 3 2 4,
		3 5 8 12,
		12 8 11 14,
		20 17 14 18
	")
}

ee = energy('scf')
oeprop('DIPOLE', 'QUADRUPOLE', 'MULLIKEN_CHARGES')
f=open( 'psi4out.xyz', 'w' )
f.write( "25  " )
f.write( str(ee) + "\n" )
f.write( MOL.save_string_xyz() )
f.close()
--------------------------------------------------------------------------

    Molecular point group: c1

    Geometry (in Angstrom), charge = 0, multiplicity = 1:

       Center              X                  Y                   Z               Mass
    ------------   -----------------  -----------------  -----------------  -----------------
           H         -0.512402018337     3.000679054217    -0.641276703120     1.007825032070
           C          0.018614981663     2.699778054217     0.270372296880    12.000000000000
           C         -0.808669018337     1.923023054217     1.262775296880    12.000000000000
           O          1.161361981663     2.989245054217     0.418994296880    15.994914619560
           C         -1.511365018337     0.715836054217     0.626243296880    12.000000000000
           H         -0.166789018337     1.623624054217     2.083177296880     1.007825032070
           H         -1.558995018337     2.606623054217     1.658196296880     1.007825032070
           C         -0.545555018337    -0.375786945783     0.158409296880    12.000000000000
           H         -2.203177018337     0.298622054217     1.351924296880     1.007825032070
           H         -2.119075018337     1.052380054217    -0.212317703120     1.007825032070
           C         -1.260153018337    -1.577336945783    -0.463235703120    12.000000000000
           H          0.053621981663    -0.707125945783     1.004014296880     1.007825032070
           H          0.156127981663     0.037044054217    -0.563913703120     1.007825032070
           C         -0.292301018337    -2.674064945783    -0.915341703120    12.000000000000
           H         -1.966767018337    -1.978890945783     0.258694296880     1.007825032070
           H         -1.849545018337    -1.244384945783    -1.316549703120     1.007825032070
           C          1.139961981663    -2.518880945783    -0.391307703120    12.000000000000
           H         -0.274059018337    -2.712192945783    -2.003416703120     1.007825032070
           H         -0.678071018337    -3.636258945783    -0.585073703120     1.007825032070
           C          1.883960981663    -1.294816945783    -0.927733703120    12.000000000000
           H          1.701081981663    -3.411222945783    -0.657424703120     1.007825032070
           H          1.123907981663    -2.484443945783     0.696110296880     1.007825032070
           H          1.901687981663    -1.294258945783    -2.014450703120     1.007825032070
           H          1.425726981663    -0.366347945783    -0.603787703120     1.007825032070
           H          2.912971981663    -1.287378945783    -0.581213703120     1.007825032070

  Charge       = 0
  Multiplicity = 1
  Basis Set: 6-31G*
  Basis Set:

    Orbital Energies (a.u.)
    -----------------------

    Doubly Occupied:

       1A    -20.563050     2A    -11.326833     3A    -11.234570
       4A    -11.232724     5A    -11.219264     6A    -11.218390
       7A    -11.216089     8A    -11.215351     9A    -11.199535
      10A     -1.403041    11A     -1.109068    12A     -1.068211
      13A     -1.003405    14A     -0.953502    15A     -0.877277
      16A     -0.823204    17A     -0.789315    18A     -0.775956
      19A     -0.668399    20A     -0.661769    21A     -0.632249
      22A     -0.631474    23A     -0.609377    24A     -0.593393
      25A     -0.567814    26A     -0.553398    27A     -0.542741
      28A     -0.522796    29A     -0.511661    30A     -0.497711
      31A     -0.489615    32A     -0.479227    33A     -0.451701
      34A     -0.445429    35A     -0.429328    36A     -0.409011

  @DF-RHF Final Energy:  -387.08220566822320

   => Energetics <=

    Nuclear Repulsion Energy =            463.5780997203280549
    One-Electron Energy =               -1443.4686003508134036
    Two-Electron Energy =                 592.8082949622654496
    DFT Exchange-Correlation Energy =       0.0000000000000000
    Empirical Dispersion Energy =           0.0000000000000000
    PCM Polarization Energy =               0.0000000000000000
    EFP Energy =                            0.0000000000000000
    Total Energy =                       -387.0822056682198991

  Mulliken Charges: (a.u.)
   Center  Symbol    Alpha    Beta     Spin     Total
       1     H     0.43196  0.43196  0.00000  0.13608
       2     C     2.83251  2.83251  0.00000  0.33498
       3     C     3.20810  3.20810  0.00000 -0.41621
       4     O     4.23783  4.23783  0.00000 -0.47567
       5     C     3.16244  3.16244  0.00000 -0.32489
       6     H     0.40026  0.40026  0.00000  0.19948
       7     H     0.40653  0.40653  0.00000  0.18693
       8     C     3.16856  3.16856  0.00000 -0.33711
       9     H     0.41443  0.41443  0.00000  0.17113
      10     H     0.42060  0.42060  0.00000  0.15879
      11     C     3.15194  3.15194  0.00000 -0.30388
      12     H     0.41470  0.41470  0.00000  0.17060
      13     H     0.41514  0.41514  0.00000  0.16972
      14     C     3.15632  3.15632  0.00000 -0.31263
      15     H     0.42022  0.42022  0.00000  0.15957
      16     H     0.42042  0.42042  0.00000  0.15916
      17     C     3.16109  3.16109  0.00000 -0.32218
      18     H     0.42102  0.42102  0.00000  0.15796
      19     H     0.41890  0.41890  0.00000  0.16221
      20     C     3.24425  3.24425  0.00000 -0.48850
      21     H     0.41749  0.41749  0.00000  0.16503
      22     H     0.42163  0.42163  0.00000  0.15674
      23     H     0.42347  0.42347  0.00000  0.15307
      24     H     0.41208  0.41208  0.00000  0.17584
      25     H     0.41811  0.41811  0.00000  0.16378

   Total alpha = 36.00000, Total beta = 36.00000, Total charge =  0.00000
