  ==> Input File <==

--------------------------------------------------------------------------
set {
	reference rhf
	basis cc-pvtz
}

set_num_threads( 4 )
memory 2 gb

molecule MOL {
0 1

H	 -3.105267	 0.264341	 0.100007
O	 -2.346257	 -0.289210	 0.080372
C	 -1.183935	 0.486039	 -0.009831
C	 0.062853	 -0.375310	 0.027457
H	 -1.178881	 1.094526	 -0.908634
H	 -1.184406	 1.155156	 0.838676
O	 1.172093	 0.457955	 -0.054438
H	 0.052476	 -1.081302	 -0.804627
H	 0.076323	 -0.955658	 0.947560
C	 2.395478	 -0.199028	 -0.000366
H	 2.505946	 -0.901710	 -0.823354
H	 3.174616	 0.545641	 -0.071768
H	 2.513730	 -0.742241	 0.934223

	symmetry c1
}
set optking {
	frozen_dihedral = ("
		1 2 3 5
	")
}

ee = optimize('scf')
oeprop('DIPOLE', 'QUADRUPOLE', 'MULLIKEN_CHARGES')
f=open( 'psi4out.xyz', 'w' )
f.write( "13  " )
f.write( str(ee) + "\n" )
f.write( MOL.save_string_xyz() )
f.close()
--------------------------------------------------------------------------

    Molecular point group: c1
  Charge       = 0
  Multiplicity = 1
  Basis Set: CC-PVTZ
  Basis Set:
  @DF-RHF Final Energy:  -268.06125878035459
    Total Energy =                       -268.0612587803545352
    Molecular point group: c1
  Basis Set: CC-PVTZ
  Basis Set:
  Basis Set: CC-PVTZ
  Basis Set:
  @DF-RHF Final Energy:  -268.06254359942875
    Total Energy =                       -268.0625435994286931
  Basis Set: CC-PVTZ
  Basis Set:
  Basis Set: CC-PVTZ
  Basis Set:
  @DF-RHF Final Energy:  -268.06282692435082
    Total Energy =                       -268.0628269243508157
  Basis Set: CC-PVTZ
  Basis Set:
  Basis Set: CC-PVTZ
  Basis Set:
  @DF-RHF Final Energy:  -268.06283410457769
    Total Energy =                       -268.0628341045774619
  Basis Set: CC-PVTZ
  Basis Set:
  Charge       = 0
  Multiplicity = 1
  Basis Set: CC-PVTZ
  Basis Set:

    Orbital Energies (a.u.)
    -----------------------

    Doubly Occupied:

       1A    -20.552524     2A    -20.551989     3A    -11.267348
       4A    -11.265193     5A    -11.264725     6A     -1.388750
       7A     -1.368383     8A     -1.019695     9A     -0.911779
      10A     -0.831720    11A     -0.711895    12A     -0.686624
      13A     -0.644083    14A     -0.633648    15A     -0.623131
      16A     -0.555459    17A     -0.538560    18A     -0.497658
      19A     -0.471053    20A     -0.445102    21A     -0.421093

  @DF-RHF Final Energy:  -268.06283496870617

   => Energetics <=

    Nuclear Repulsion Energy =            190.7294277047724051
    One-Electron Energy =                -744.2837007629440222
    Two-Electron Energy =                 285.4914380894651913
    DFT Exchange-Correlation Energy =       0.0000000000000000
    Empirical Dispersion Energy =           0.0000000000000000
    PCM Polarization Energy =               0.0000000000000000
    EFP Energy =                            0.0000000000000000
    Total Energy =                       -268.0628349687063974
    Molecular point group: c1
  Basis Set: CC-PVTZ
  Basis Set:

  -Total Gradient:
     Atom            X                  Y                   Z
    ------   -----------------  -----------------  -----------------
       1       -0.000004113155    -0.000010779369    -0.000022255717
       2        0.000019775297     0.000051846279     0.000016456346
       3       -0.000014181119    -0.000063750050     0.000019773049
       4       -0.000010461956    -0.000007063561     0.000006391170
       5       -0.000000287586    -0.000002224263     0.000011733520
       6        0.000003918431    -0.000005952277    -0.000006157246
       7        0.000025084926     0.000014690988    -0.000017039478
       8       -0.000001524755     0.000002759828    -0.000008404116
       9       -0.000021997017     0.000009674568    -0.000002001371
      10        0.000006725549     0.000013489849     0.000004626402
      11       -0.000005367280     0.000001440853     0.000001895180
      12        0.000008158735    -0.000002939552    -0.000002677740
      13       -0.000005730068    -0.000001193295    -0.000002340000

  **** Optimization is complete! (in 5 steps) ****
    Final optimized geometry and variables:
    Molecular point group: c1

    Geometry (in Angstrom), charge = 0, multiplicity = 1:

    H           -3.085304802520     0.167018991249     0.035516449385
    O           -2.294875981388    -0.338916755995     0.061535457586
    C           -1.178646714822     0.504135620330    -0.013890934064
    C            0.053094409993    -0.370819838932     0.023815503350
    H           -1.180055018595     1.081524173271    -0.933263986281
    H           -1.150380873585     1.199005218323     0.819776751099
    O            1.171421085744     0.453138245487    -0.050145547370
    H            0.028804257045    -1.069538571808    -0.809643673840
    H            0.058221002443    -0.952346642714     0.943180120002
    C            2.385429183077    -0.221993154462    -0.024988737591
    H            2.476809017188    -0.907002603883    -0.864822192042
    H            3.174605219298     0.513001748201    -0.087644093355
    H            2.506207511877    -0.788573950181     0.895500955726

  Mulliken Charges: (a.u.)
   Center  Symbol    Alpha    Beta     Spin     Total
       1     H     0.39476  0.39476  0.00000  0.21049
       2     O     4.19757  4.19757  0.00000 -0.39514
       3     C     2.96449  2.96449  0.00000  0.07103
       4     C     2.96511  2.96511  0.00000  0.06978
       5     H     0.47075  0.47075  0.00000  0.05851
       6     H     0.47073  0.47073  0.00000  0.05854
       7     O     4.17632  4.17632  0.00000 -0.35264
       8     H     0.47046  0.47046  0.00000  0.05909
       9     H     0.47044  0.47044  0.00000  0.05912
      10     C     3.03133  3.03133  0.00000 -0.06265
      11     H     0.47055  0.47055  0.00000  0.05891
      12     H     0.44698  0.44698  0.00000  0.10605
      13     H     0.47053  0.47053  0.00000  0.05893

   Total alpha = 21.00000, Total beta = 21.00000, Total charge =  0.00000
