  ==> Input File <==

--------------------------------------------------------------------------
set {
	reference rhf
	basis 6-31G*
}

set_num_threads( 4 )
memory 2 gb

molecule MOL {
0 1

O	 3.830938	 -0.480687	 2.389658
C	 3.024291	 -0.718328	 1.549475
C	 1.526379	 -0.692605	 1.734916
O	 3.347903	 -1.046386	 0.304773
C	 1.103751	 -0.307257	 3.150899
H	 1.125262	 -0.011997	 0.991230
H	 1.151002	 -1.677541	 1.469040
C	 -0.409184	 -0.378370	 3.384279
H	 1.463557	 0.692939	 3.372860
H	 1.602730	 -0.967203	 3.852265
C	 -1.233219	 0.639163	 2.590112
H	 -0.594040	 -0.223193	 4.444690
H	 -0.763690	 -1.383497	 3.160547
C	 -2.722297	 0.601514	 2.939725
H	 -0.844909	 1.638942	 2.778467
H	 -1.118624	 0.462966	 1.522969
C	 -3.556398	 1.610560	 2.148376
H	 -2.846685	 0.790377	 4.004663
H	 -3.108738	 -0.400828	 2.761761
C	 -5.041645	 1.569174	 2.506186
H	 -3.170952	 2.612624	 2.324279
H	 -3.436793	 1.420639	 1.083761
H	 -5.606077	 2.295142	 1.929130
H	 -5.197676	 1.789805	 3.558409
H	 -5.465313	 0.588435	 2.308879
C	 4.728119	 -1.109107	 -0.004993
H	 4.882018	 -1.033965	 -1.071845
H	 5.068212	 -2.067527	 0.355250
H	 5.265056	 -0.311663	 0.488280

	symmetry c1
}
set optking {
	frozen_dihedral = ("
		2 4 26 27
	")
}

ee = optimize('scf')
oeprop('DIPOLE', 'QUADRUPOLE', 'MULLIKEN_CHARGES')
f=open( 'psi4out.xyz', 'w' )
f.write( "29  " )
f.write( str(ee) + "\n" )
f.write( MOL.save_string_xyz() )
f.close()
--------------------------------------------------------------------------

    Molecular point group: c1
  Charge       = 0
  Multiplicity = 1
  Basis Set: 6-31G*
  Basis Set:
  @DF-RHF Final Energy:  -501.04203271407164
    Total Energy =                       -501.0420327140715244
    Molecular point group: c1
  Basis Set: 6-31G*
  Basis Set:
  Basis Set: 6-31G*
  Basis Set:
  @DF-RHF Final Energy:  -501.04316121252771
    Total Energy =                       -501.0431612125280481
  Basis Set: 6-31G*
  Basis Set:
  Basis Set: 6-31G*
  Basis Set:
  @DF-RHF Final Energy:  -501.04254467367639
    Total Energy =                       -501.0425446736762751
  Basis Set: 6-31G*
  Basis Set:
  Basis Set: 6-31G*
  Basis Set:
  @DF-RHF Final Energy:  -501.04348904357892
    Total Energy =                       -501.0434890435785746
  Basis Set: 6-31G*
  Basis Set:
  Basis Set: 6-31G*
  Basis Set:
  @DF-RHF Final Energy:  -501.04349804897674
    Total Energy =                       -501.0434980489760619
  Basis Set: 6-31G*
  Basis Set:
  Charge       = 0
  Multiplicity = 1
  Basis Set: 6-31G*
  Basis Set:

    Orbital Energies (a.u.)
    -----------------------

    Doubly Occupied:

       1A    -20.603060     2A    -20.544963     3A    -11.372366
       4A    -11.280316     5A    -11.234535     6A    -11.218914
       7A    -11.217517     8A    -11.215926     9A    -11.215803
      10A    -11.214395    11A    -11.209035    12A     -1.468203
      13A     -1.362658    14A     -1.097928    15A     -1.066725
      16A     -1.019534    17A     -0.977439    18A     -0.928533
      19A     -0.861457    20A     -0.799185    21A     -0.790397
      22A     -0.763621    23A     -0.700840    24A     -0.681881
      25A     -0.672044    26A     -0.650792    27A     -0.628775
      28A     -0.604628    29A     -0.595443    30A     -0.580722
      31A     -0.567126    32A     -0.549477    33A     -0.533158
      34A     -0.528355    35A     -0.515992    36A     -0.511561
      37A     -0.496374    38A     -0.477741    39A     -0.470088
      40A     -0.462360    41A     -0.458892    42A     -0.454674
      43A     -0.441303    44A     -0.435129

  @DF-RHF Final Energy:  -501.04349726166367

   => Energetics <=

    Nuclear Repulsion Energy =            609.9566761644617827
    One-Electron Energy =               -1891.0406155745190517
    Two-Electron Energy =                 780.0404421483933675
    DFT Exchange-Correlation Energy =       0.0000000000000000
    Empirical Dispersion Energy =           0.0000000000000000
    PCM Polarization Energy =               0.0000000000000000
    EFP Energy =                            0.0000000000000000
    Total Energy =                       -501.0434972616637879
    Molecular point group: c1
  Basis Set: 6-31G*
  Basis Set:

  -Total Gradient:
     Atom            X                  Y                   Z
    ------   -----------------  -----------------  -----------------
       1       -0.000019133723    -0.000011104138     0.000012752349
       2       -0.000076933117     0.001318774855    -0.000337081662
       3        0.000022536375     0.000009534423    -0.000012007788
       4        0.000117721395    -0.001607918164     0.000588702457
       5       -0.000004965370     0.000047286055    -0.000007644547
       6        0.000051498758    -0.000028878075     0.000020289050
       7        0.000008410090    -0.000019224295    -0.000006322998
       8        0.000001437576    -0.000022198340    -0.000048403930
       9       -0.000007380476     0.000018345572    -0.000023851206
      10       -0.000006025215     0.000017482996     0.000027710899
      11       -0.000024191132    -0.000003010685     0.000010234009
      12        0.000006601313    -0.000030048590     0.000004888294
      13        0.000012202018    -0.000000289419    -0.000040423823
      14        0.000007906191     0.000016641718     0.000023544729
      15        0.000013115656     0.000011582535    -0.000010272995
      16       -0.000051669024     0.000000486359     0.000041151928
      17        0.000001934093     0.000005862371     0.000005361803
      18       -0.000004840334     0.000000536775     0.000003374655
      19        0.000005043325     0.000003611058     0.000000257690
      20       -0.000000585100    -0.000004148063    -0.000003672472
      21       -0.000002168525     0.000000628587     0.000001974076
      22        0.000002365158     0.000001233259    -0.000000670034
      23        0.000000195255    -0.000001471987    -0.000001391198
      24        0.000001370256     0.000000955181    -0.000001122319
      25       -0.000001204388    -0.000000667060     0.000001257375
      26       -0.000102453311    -0.001239807321    -0.000401450007
      27        0.000086976947     0.001531564469     0.000075958949
      28       -0.000029607745     0.000025407045     0.000033367064
      29       -0.000008156964    -0.000041167114     0.000043489652

  **** Optimization is complete! (in 6 steps) ****
    Final optimized geometry and variables:
    Molecular point group: c1

    Geometry (in Angstrom), charge = 0, multiplicity = 1:

    O            3.372534940982    -0.447842381687     0.365139279250
    C            2.571741985014    -0.690869860274    -0.478945593010
    C            1.072792053762    -0.663806430837    -0.301255076987
    O            2.897990026130    -1.029388316755    -1.720524754502
    C            0.642912885591    -0.271807039221     1.110694044776
    H            0.675401193981     0.012918412597    -1.050388892416
    H            0.699055392023    -1.650183102323    -0.564124653740
    C           -0.871052154149    -0.343333113520     1.337206219611
    H            1.000658850696     0.729810649457     1.329568889794
    H            1.139093798479    -0.927835131984     1.817688273108
    C           -1.691521293839     0.677454757019     0.543489508425
    H           -1.060357658761    -0.192001897927     2.397390992704
    H           -1.224899179227    -1.347524358510     1.108284933321
    C           -3.181178643860     0.642815799705     0.890943018514
    H           -1.301107842618     1.676001603450     0.734041394179
    H           -1.575859179201     0.502733800414    -0.523763178027
    C           -4.011853627722     1.654649402647     0.099560940240
    H           -3.306675640213     0.830719772154     1.955918096429
    H           -3.569625126626    -0.358438634886     0.711261223865
    C           -5.497948446753     1.615147031147     0.454064558950
    H           -3.625103405701     2.655756780199     0.278029797870
    H           -3.890264341746     1.466363964892    -0.965120572433
    H           -6.059949178518     2.342828848973    -0.123213044635
    H           -5.655920942939     1.834553498546     1.506250358081
    H           -5.922755136994     0.635365963739     0.254462923066
    C            4.274360472781    -1.068855763264    -2.052502336371
    H            4.324975419509    -1.002609765981    -3.128438748465
    H            4.713695405753    -1.996503105559    -1.711723864709
    H            4.799338311432    -0.239426019818    -1.604858861323

  Mulliken Charges: (a.u.)
   Center  Symbol    Alpha    Beta     Spin     Total
       1     O     4.28578  4.28578  0.00000 -0.57157
       2     C     2.60476  2.60476  0.00000  0.79048
       3     C     3.20973  3.20973  0.00000 -0.41945
       4     O     4.30812  4.30812  0.00000 -0.61624
       5     C     3.15381  3.15381  0.00000 -0.30762
       6     H     0.39899  0.39899  0.00000  0.20202
       7     H     0.40116  0.40116  0.00000  0.19768
       8     C     3.15666  3.15666  0.00000 -0.31331
       9     H     0.41315  0.41315  0.00000  0.17369
      10     H     0.40872  0.40872  0.00000  0.18256
      11     C     3.15497  3.15497  0.00000 -0.30994
      12     H     0.41826  0.41826  0.00000  0.16348
      13     H     0.42387  0.42387  0.00000  0.15227
      14     C     3.15031  3.15031  0.00000 -0.30062
      15     H     0.42264  0.42264  0.00000  0.15473
      16     H     0.42364  0.42364  0.00000  0.15271
      17     C     3.15145  3.15145  0.00000 -0.30290
      18     H     0.42332  0.42332  0.00000  0.15336
      19     H     0.42398  0.42398  0.00000  0.15205
      20     C     3.23935  3.23935  0.00000 -0.47869
      21     H     0.42281  0.42281  0.00000  0.15438
      22     H     0.42345  0.42345  0.00000  0.15311
      23     H     0.41924  0.41924  0.00000  0.16151
      24     H     0.42155  0.42155  0.00000  0.15691
      25     H     0.42183  0.42183  0.00000  0.15634
      26     C     3.09369  3.09369  0.00000 -0.18739
      27     H     0.40914  0.40914  0.00000  0.18172
      28     H     0.41233  0.41233  0.00000  0.17534
      29     H     0.40330  0.40330  0.00000  0.19340

   Total alpha = 44.00000, Total beta = 44.00000, Total charge =  0.00000
