  ==> Input File <==

--------------------------------------------------------------------------
set {
	reference rhf
	basis cc-pvtz
}

set_num_threads( 4 )
memory 2 gb

molecule MOL {
0 1

H	 -3.144994	 -1.202467	 -0.018751
O	 -2.321472	 -0.864941	 -0.318626
C	 -2.021813	 0.336996	 0.342658
C	 -0.669613	 0.837286	 -0.127252
H	 -2.780861	 1.084746	 0.127159
H	 -2.006390	 0.184138	 1.420053
C	 0.490865	 -0.082543	 0.241244
H	 -0.708709	 0.967192	 -1.204587
H	 -0.507562	 1.822272	 0.303070
C	 1.846395	 0.458358	 -0.204370
H	 0.326360	 -1.058416	 -0.201096
H	 0.501357	 -0.230229	 1.319298
C	 3.007533	 -0.456589	 0.170352
H	 1.836994	 0.604121	 -1.281109
H	 2.006353	 1.440197	 0.233917
H	 2.894318	 -1.436034	 -0.282178
H	 3.954737	 -0.046370	 -0.161054
H	 3.065433	 -0.595526	 1.244964

	symmetry c1
}
set optking {
	frozen_dihedral = ("
		10 7 4 8
	")
}

ee = optimize('scf')
oeprop('DIPOLE', 'QUADRUPOLE', 'MULLIKEN_CHARGES')
f=open( 'psi4out.xyz', 'w' )
f.write( "18  " )
f.write( str(ee) + "\n" )
f.write( MOL.save_string_xyz() )
f.close()
--------------------------------------------------------------------------

    Molecular point group: c1
  Charge       = 0
  Multiplicity = 1
  Basis Set: CC-PVTZ
  Basis Set:
  @DF-RHF Final Energy:  -271.28690881222309
    Total Energy =                       -271.2869088122231460
    Molecular point group: c1
  Basis Set: CC-PVTZ
  Basis Set:
  Basis Set: CC-PVTZ
  Basis Set:
  @DF-RHF Final Energy:  -271.28691055307524
    Total Energy =                       -271.2869105530751881
  Basis Set: CC-PVTZ
  Basis Set:
  Basis Set: CC-PVTZ
  Basis Set:
  @DF-RHF Final Energy:  -271.28691192632891
    Total Energy =                       -271.2869119263287985
  Basis Set: CC-PVTZ
  Basis Set:
  Charge       = 0
  Multiplicity = 1
  Basis Set: CC-PVTZ
  Basis Set:

    Orbital Energies (a.u.)
    -----------------------

    Doubly Occupied:

       1A    -20.546235     2A    -11.265916     3A    -11.210453
       4A    -11.209161     5A    -11.204998     6A    -11.202807
       7A     -1.364133     8A     -1.076606     9A     -1.010270
      10A     -0.914462    11A     -0.818445    12A     -0.784758
      13A     -0.708236    14A     -0.643864    15A     -0.626922
      16A     -0.582115    17A     -0.572220    18A     -0.559372
      19A     -0.524424    20A     -0.502374    21A     -0.488754
      22A     -0.468518    23A     -0.459287    24A     -0.449733
      25A     -0.431353

  @DF-RHF Final Energy:  -271.28691195030422

   => Energetics <=

    Nuclear Repulsion Energy =            249.2900491188056549
    One-Electron Energy =                -861.9030883696223100
    Two-Electron Energy =                 341.3261273005125531
    DFT Exchange-Correlation Energy =       0.0000000000000000
    Empirical Dispersion Energy =           0.0000000000000000
    PCM Polarization Energy =               0.0000000000000000
    EFP Energy =                            0.0000000000000000
    Total Energy =                       -271.2869119503041020
    Molecular point group: c1
  Basis Set: CC-PVTZ
  Basis Set:

  -Total Gradient:
     Atom            X                  Y                   Z
    ------   -----------------  -----------------  -----------------
       1        0.000002430665     0.000000425705    -0.000000422578
       2       -0.000007667413    -0.000000955474    -0.000000844619
       3        0.000003963311    -0.000000757532     0.000006304631
       4        0.000341971992     0.000484281836     0.000129657067
       5       -0.000000149705     0.000000895814     0.000000624518
       6       -0.000003561073    -0.000001662872     0.000001654235
       7       -0.000106508986    -0.000289766267    -0.000389980899
       8       -0.000263913341    -0.000342577255    -0.000038025907
       9        0.000001387816    -0.000009190488     0.000002524406
      10        0.000031530756     0.000158363982     0.000287923930
      11       -0.000003115593     0.000008435478     0.000003978409
      12        0.000003770418    -0.000002021317     0.000004626061
      13       -0.000000361710    -0.000005186898    -0.000008712945
      14        0.000002939214     0.000001287719     0.000000138712
      15       -0.000003024773    -0.000000871084     0.000001163222
      16        0.000001693106    -0.000002738625     0.000002762262
      17       -0.000000089176    -0.000001559860    -0.000002247957
      18       -0.000001295511     0.000003597137    -0.000001122549

  **** Optimization is complete! (in 4 steps) ****
    Final optimized geometry and variables:
    Molecular point group: c1

    Geometry (in Angstrom), charge = 0, multiplicity = 1:

    H           -3.142696753552    -1.215990978154    -0.036307076006
    O           -2.318583377592    -0.877957260011    -0.333731464802
    C           -2.025067860073     0.327892716007     0.323102874667
    C           -0.672437760425     0.829832239825    -0.144007787255
    H           -2.785461910991     1.072472639492     0.101347763734
    H           -2.013198473081     0.179937873891     1.401193228697
    C            0.487788276258    -0.089169979937     0.227289561274
    H           -0.710834881210     0.956687184665    -1.221736077997
    H           -0.512800729896     1.815234127611     0.285978022982
    C            1.843492709108     0.450433485354    -0.219292757317
    H            0.322501429049    -1.067037606177    -0.210071335004
    H            0.499049244410    -0.232054315289     1.306003958419
    C            3.003458251790    -0.468335766080     0.149528208413
    H            1.832659007578     0.600607150287    -1.295471774145
    H            2.006010913299     1.430093569422     0.222688310156
    H            2.887179942838    -1.445902358870    -0.306209743604
    H            3.950818163607    -0.058961817878    -0.182435606799
    H            3.063285932405    -0.611208282170     1.223502999339

  Mulliken Charges: (a.u.)
   Center  Symbol    Alpha    Beta     Spin     Total
       1     H     0.39573  0.39573  0.00000  0.20854
       2     O     4.19883  4.19883  0.00000 -0.39767
       3     C     2.97379  2.97379  0.00000  0.05242
       4     C     3.09119  3.09119  0.00000 -0.18237
       5     H     0.46547  0.46547  0.00000  0.06906
       6     H     0.47372  0.47372  0.00000  0.05255
       7     C     3.08635  3.08635  0.00000 -0.17269
       8     H     0.45203  0.45203  0.00000  0.09593
       9     H     0.45443  0.45443  0.00000  0.09115
      10     C     3.08361  3.08361  0.00000 -0.16721
      11     H     0.44428  0.44428  0.00000  0.11143
      12     H     0.45973  0.45973  0.00000  0.08055
      13     C     3.14980  3.14980  0.00000 -0.29960
      14     H     0.45446  0.45446  0.00000  0.09107
      15     H     0.45677  0.45677  0.00000  0.08645
      16     H     0.45442  0.45442  0.00000  0.09117
      17     H     0.44937  0.44937  0.00000  0.10125
      18     H     0.45602  0.45602  0.00000  0.08797

   Total alpha = 25.00000, Total beta = 25.00000, Total charge = -0.00000
