  ==> Input File <==

--------------------------------------------------------------------------
set {
	reference rhf
	basis cc-pvtz
}

set_num_threads( 4 )
memory 2 gb

molecule MOL {
0 1

H	 1.470291	 -0.189007	 -1.278164
O	 1.675515	 -0.612943	 -0.465627
C	 1.135873	 0.113391	 0.608264
C	 0.027642	 1.012027	 0.090274
H	 1.902972	 0.727968	 1.072615
H	 0.756163	 -0.561896	 1.370018
C	 -1.138737	 0.285728	 -0.581921
H	 0.464661	 1.708096	 -0.618252
H	 -0.340737	 1.603071	 0.925246
C	 -1.933983	 -0.631436	 0.343653
H	 -0.763151	 -0.285569	 -1.422081
H	 -1.808359	 1.035291	 -0.992333
H	 -2.789188	 -1.049673	 -0.174718
H	 -1.335629	 -1.461368	 0.700418
H	 -2.305435	 -0.092167	 1.209725

	symmetry c1
}
set optking {
	frozen_dihedral = ("
		1 2 3 4
	")
}

ee = optimize('scf')
oeprop('DIPOLE', 'QUADRUPOLE', 'MULLIKEN_CHARGES')
f=open( 'psi4out.xyz', 'w' )
f.write( "15  " )
f.write( str(ee) + "\n" )
f.write( MOL.save_string_xyz() )
f.close()
--------------------------------------------------------------------------

    Molecular point group: c1
  Charge       = 0
  Multiplicity = 1
  Basis Set: CC-PVTZ
  Basis Set:
  @DF-RHF Final Energy:  -232.23361670247351
    Total Energy =                       -232.2336167024736824
    Molecular point group: c1
  Basis Set: CC-PVTZ
  Basis Set:
  Basis Set: CC-PVTZ
  Basis Set:
  @DF-RHF Final Energy:  -232.23499504734102
    Total Energy =                       -232.2349950473408171
  Basis Set: CC-PVTZ
  Basis Set:
  Basis Set: CC-PVTZ
  Basis Set:
  @DF-RHF Final Energy:  -232.23539038250445
    Total Energy =                       -232.2353903825043062
  Basis Set: CC-PVTZ
  Basis Set:
  Basis Set: CC-PVTZ
  Basis Set:
  @DF-RHF Final Energy:  -232.23539382621078
    Total Energy =                       -232.2353938262107818
  Basis Set: CC-PVTZ
  Basis Set:
  Basis Set: CC-PVTZ
  Basis Set:
  @DF-RHF Final Energy:  -232.23539630141542
    Total Energy =                       -232.2353963014155624
  Basis Set: CC-PVTZ
  Basis Set:
  Basis Set: CC-PVTZ
  Basis Set:
  @DF-RHF Final Energy:  -232.23539787912102
    Total Energy =                       -232.2353978791208533
  Basis Set: CC-PVTZ
  Basis Set:
  Charge       = 0
  Multiplicity = 1
  Basis Set: CC-PVTZ
  Basis Set:

    Orbital Energies (a.u.)
    -----------------------

    Doubly Occupied:

       1A    -20.544135     2A    -11.264570     3A    -11.222054
       4A    -11.220522     5A    -11.209846     6A     -1.362323
       7A     -1.073154     8A     -0.975722     9A     -0.881964
      10A     -0.793980    11A     -0.667019    12A     -0.652208
      13A     -0.637729    14A     -0.586691    15A     -0.574118
      16A     -0.546504    17A     -0.507192    18A     -0.484633
      19A     -0.478529    20A     -0.457902    21A     -0.432093

  @DF-RHF Final Energy:  -232.23539789533700

   => Energetics <=

    Nuclear Repulsion Energy =            191.6831113941147180
    One-Electron Energy =                -694.6912433954237258
    Two-Electron Energy =                 270.7727341059718356
    DFT Exchange-Correlation Energy =       0.0000000000000000
    Empirical Dispersion Energy =           0.0000000000000000
    PCM Polarization Energy =               0.0000000000000000
    EFP Energy =                            0.0000000000000000
    Total Energy =                       -232.2353978953372007
    Molecular point group: c1
  Basis Set: CC-PVTZ
  Basis Set:

  -Total Gradient:
     Atom            X                  Y                   Z
    ------   -----------------  -----------------  -----------------
       1       -0.001763658574    -0.001187719881    -0.000199212357
       2        0.002554895887     0.001883268443     0.000157754628
       3       -0.001667212646    -0.001693955578     0.000234551088
       4        0.000878406275     0.001000545873    -0.000194788025
       5       -0.000005734829     0.000003848954     0.000011816646
       6        0.000001076735    -0.000004914069    -0.000007840058
       7       -0.000005339185    -0.000000914202    -0.000002368075
       8        0.000000176983     0.000002706890    -0.000000835512
       9        0.000000969961    -0.000003922217    -0.000001732331
      10        0.000003948015    -0.000001869168     0.000001625278
      11       -0.000002038919    -0.000000519414    -0.000000833552
      12        0.000003227435     0.000003899939    -0.000001073227
      13        0.000001931069     0.000000606066    -0.000001175380
      14        0.000002246181    -0.000000926948     0.000003614613
      15       -0.000002894384    -0.000000134689     0.000000496262

  **** Optimization is complete! (in 7 steps) ****
    Final optimized geometry and variables:
    Molecular point group: c1

    Geometry (in Angstrom), charge = 0, multiplicity = 1:

    H            1.593507123081    -0.259824191485    -1.258846370792
    O            1.757783502824    -0.644584107593    -0.418361590580
    C            1.139668984263     0.105917698574     0.595765166227
    C            0.016498425518     1.002736994795     0.095629101785
    H            1.885378074719     0.724142625446     1.087280675286
    H            0.773276715186    -0.597467820376     1.332111046036
    C           -1.160170135385     0.283374168392    -0.569325148071
    H            0.437445241172     1.720627183092    -0.605599028505
    H           -0.346397905300     1.583597031678     0.939094580511
    C           -1.941045036553    -0.640979383434     0.360632234423
    H           -0.809225318749    -0.287222648219    -1.423622208168
    H           -1.833617105210     1.035835972515    -0.967218536659
    H           -2.802051590806    -1.057358892818    -0.149022439726
    H           -1.335063211170    -1.469816619265     0.705045258704
    H           -2.301201319189    -0.105112561324     1.233036731543

  Mulliken Charges: (a.u.)
   Center  Symbol    Alpha    Beta     Spin     Total
       1     H     0.39217  0.39217  0.00000  0.21566
       2     O     4.20835  4.20835  0.00000 -0.41670
       3     C     2.96052  2.96052  0.00000  0.07897
       4     C     3.12027  3.12027  0.00000 -0.24054
       5     H     0.46332  0.46332  0.00000  0.07336
       6     H     0.46528  0.46528  0.00000  0.06944
       7     C     3.08311  3.08311  0.00000 -0.16622
       8     H     0.44776  0.44776  0.00000  0.10447
       9     H     0.45030  0.45030  0.00000  0.09940
      10     C     3.15355  3.15355  0.00000 -0.30709
      11     H     0.45679  0.45679  0.00000  0.08642
      12     H     0.44793  0.44793  0.00000  0.10415
      13     H     0.44606  0.44606  0.00000  0.10789
      14     H     0.44943  0.44943  0.00000  0.10114
      15     H     0.45518  0.45518  0.00000  0.08964

   Total alpha = 21.00000, Total beta = 21.00000, Total charge = -0.00000
