  ==> Input File <==

--------------------------------------------------------------------------
set {
	reference rhf
	basis cc-pvtz
}

set_num_threads( 4 )
memory 2 gb

molecule MOL {
0 1

O	 -0.294688	 1.318815	 -0.000872
C	 -0.448732	 0.145721	 -0.000187
C	 -1.780748	 -0.548101	 0.000195
O	 0.550743	 -0.719877	 0.000412
H	 -1.859389	 -1.183260	 -0.872613
H	 -2.570236	 0.185547	 -0.001342
H	 -1.860233	 -1.180337	 0.875064
C	 0.327916	 -1.966340	 0.629494
H	 0.091944	 -1.828594	 1.674182
H	 1.246346	 -2.520604	 0.524802
H	 -0.483495	 -2.494415	 0.151194

	symmetry c1
}
set optking {
	frozen_dihedral = ("
		8 4 2 1
	")
}

ee = optimize('scf')
oeprop('DIPOLE', 'QUADRUPOLE', 'MULLIKEN_CHARGES')
f=open( 'psi4out.xyz', 'w' )
f.write( "11  " )
f.write( str(ee) + "\n" )
f.write( MOL.save_string_xyz() )
f.close()
--------------------------------------------------------------------------

    Molecular point group: c1
  Charge       = 0
  Multiplicity = 1
  Basis Set: CC-PVTZ
  Basis Set:
  @DF-RHF Final Energy:  -266.91617770464308
    Total Energy =                       -266.9161777046432462
    Molecular point group: c1
  Basis Set: CC-PVTZ
  Basis Set:
  Basis Set: CC-PVTZ
  Basis Set:
  @DF-RHF Final Energy:  -266.91674923041336
    Total Energy =                       -266.9167492304134157
  Basis Set: CC-PVTZ
  Basis Set:
  Basis Set: CC-PVTZ
  Basis Set:
  @DF-RHF Final Energy:  -266.92209114800119
    Total Energy =                       -266.9220911480012433
  Basis Set: CC-PVTZ
  Basis Set:
  Basis Set: CC-PVTZ
  Basis Set:
  @DF-RHF Final Energy:  -266.92295586512961
    Total Energy =                       -266.9229558651295520
  Basis Set: CC-PVTZ
  Basis Set:
  @DF-RHF Final Energy:  -266.92283542839050
    Total Energy =                       -266.9228354283904423
  Basis Set: CC-PVTZ
  Basis Set:
  @DF-RHF Final Energy:  -266.92356189476618
    Total Energy =                       -266.9235618947661237
  Basis Set: CC-PVTZ
  Basis Set:
  Basis Set: CC-PVTZ
  Basis Set:
  @DF-RHF Final Energy:  -266.92357565171471
    Total Energy =                       -266.9235756517144864
  Basis Set: CC-PVTZ
  Basis Set:
  Basis Set: CC-PVTZ
  Basis Set:
  @DF-RHF Final Energy:  -266.92357716085291
    Total Energy =                       -266.9235771608529149
  Basis Set: CC-PVTZ
  Basis Set:
  Charge       = 0
  Multiplicity = 1
  Basis Set: CC-PVTZ
  Basis Set:

    Orbital Energies (a.u.)
    -----------------------

    Doubly Occupied:

       1A    -20.593965     2A    -20.533845     3A    -11.371045
       4A    -11.295280     5A    -11.242154     6A     -1.467353
       7A     -1.371210     8A     -1.023409     9A     -0.983142
      10A     -0.784752    11A     -0.699996    12A     -0.688110
      13A     -0.681170    14A     -0.609176    15A     -0.594026
      16A     -0.578685    17A     -0.548105    18A     -0.512258
      19A     -0.456834    20A     -0.440671

  @DF-RHF Final Energy:  -266.92357755702619

   => Energetics <=

    Nuclear Repulsion Energy =            183.2220327827996584
    One-Electron Energy =                -727.3408514307068344
    Two-Electron Energy =                 277.1952410908809270
    DFT Exchange-Correlation Energy =       0.0000000000000000
    Empirical Dispersion Energy =           0.0000000000000000
    PCM Polarization Energy =               0.0000000000000000
    EFP Energy =                            0.0000000000000000
    Total Energy =                       -266.9235775570261922
    Molecular point group: c1
  Basis Set: CC-PVTZ
  Basis Set:

  -Total Gradient:
     Atom            X                  Y                   Z
    ------   -----------------  -----------------  -----------------
       1       -0.000028502206     0.000028853466     0.003266376695
       2        0.000483612372     0.000620431540    -0.003379645747
       3       -0.000030200195     0.000033922874     0.000037350873
       4       -0.001359122146    -0.001710586210    -0.002360950445
       5        0.000015617051     0.000014177040    -0.000008239543
       6       -0.000002693408    -0.000003355650    -0.000003101808
       7       -0.000016479604    -0.000004673842    -0.000017637500
       8        0.000919156451     0.001039046226     0.002460753806
       9        0.000004755343    -0.000017133037     0.000002669555
      10       -0.000005364744    -0.000000180028    -0.000000747005
      11        0.000019221086    -0.000000502379     0.000003171118

  **** Optimization is complete! (in 9 steps) ****
    Final optimized geometry and variables:
    Molecular point group: c1

    Geometry (in Angstrom), charge = 0, multiplicity = 1:

    O            0.054428485873     1.661730223689    -0.127260222417
    C           -0.156439884816     0.503373069113    -0.124023954170
    C           -1.548147606404    -0.078156058817    -0.152194722443
    O            0.865832679357    -0.354535937350    -0.119096198667
    H           -1.647631240515    -0.788007584852    -0.963653620947
    H           -2.250054728130     0.728441461119    -0.282124615382
    H           -1.768533590115    -0.595603839985     0.773145661016
    C            0.762238186935    -1.620614385583     0.483456269865
    H            0.489328131099    -1.535113749343     1.527797529280
    H            1.741226841360    -2.065564523423     0.413737414084
    H            0.050843803355    -2.256881938763    -0.026589708680

  Mulliken Charges: (a.u.)
   Center  Symbol    Alpha    Beta     Spin     Total
       1     O     4.17543  4.17543  0.00000 -0.35086
       2     C     2.81087  2.81087  0.00000  0.37826
       3     C     3.16452  3.16452  0.00000 -0.32903
       4     O     4.13331  4.13331  0.00000 -0.26661
       5     H     0.44394  0.44394  0.00000  0.11213
       6     H     0.42718  0.42718  0.00000  0.14563
       7     H     0.44827  0.44827  0.00000  0.10347
       8     C     3.04275  3.04275  0.00000 -0.08549
       9     H     0.45795  0.45795  0.00000  0.08410
      10     H     0.43412  0.43412  0.00000  0.13176
      11     H     0.46167  0.46167  0.00000  0.07665

   Total alpha = 20.00000, Total beta = 20.00000, Total charge = -0.00000
