  ==> Input File <==

--------------------------------------------------------------------------
set {
	reference rhf
	basis 6-31G*
}

set_num_threads( 1 )
memory 2 gb

molecule MOL {
0 1

H	 0.957514	 -5.286026	 -1.978284
O	 1.865988	 -5.100799	 -2.166529
C	 1.975727	 -3.839604	 -2.775953
C	 1.745440	 -2.682945	 -1.809602
H	 2.982067	 -3.790488	 -3.171606
H	 1.292280	 -3.763918	 -3.620910
C	 0.331305	 -2.631585	 -1.226119
H	 2.470447	 -2.757689	 -1.003287
H	 1.952785	 -1.753635	 -2.337577
C	 0.115918	 -1.429151	 -0.302766
H	 0.137703	 -3.549340	 -0.677840
H	 -0.394428	 -2.592495	 -2.038599
C	 -1.309753	 -1.282496	 0.241564
H	 0.814740	 -1.487387	 0.529763
H	 0.370699	 -0.523365	 -0.848969
C	 -2.037799	 -0.007733	 -0.193645
H	 -1.890610	 -2.142323	 -0.085726
H	 -1.285946	 -1.330893	 1.329189
C	 -3.489788	 0.042957	 0.286558
H	 -2.017067	 0.064384	 -1.280144
H	 -1.513726	 0.868678	 0.179924
C	 -4.216917	 1.317354	 -0.141063
H	 -4.025645	 -0.823308	 -0.095450
H	 -3.513059	 -0.038752	 1.371301
H	 -4.239342	 1.411634	 -1.223113
H	 -5.243387	 1.322503	 0.212445
H	 -3.726170	 2.201406	 0.256408

	symmetry c1
}
set optking {
	frozen_dihedral = ("
		14 10 7 4,
		10 7 4 8,
		8 4 3 2,
		10 13 16 20,
		20 16 19 22,
		4 3 2 1
	")
}

ee = energy('scf')
oeprop('DIPOLE', 'QUADRUPOLE', 'MULLIKEN_CHARGES')
f=open( 'psi4out.xyz', 'w' )
f.write( "27  " )
f.write( str(ee) + "\n" )
f.write( MOL.save_string_xyz() )
f.close()
--------------------------------------------------------------------------

    Molecular point group: c1

    Geometry (in Angstrom), charge = 0, multiplicity = 1:

       Center              X                  Y                   Z               Mass
    ------------   -----------------  -----------------  -----------------  -----------------
           H          1.493778933810    -3.504011131919    -1.053852818263     1.007825032070
           O          2.402252933810    -3.318784131919    -1.242097818263    15.994914619560
           C          2.511991933810    -2.057589131919    -1.851521818263    12.000000000000
           C          2.281704933810    -0.900930131919    -0.885170818263    12.000000000000
           H          3.518331933810    -2.008473131919    -2.247174818263     1.007825032070
           H          1.828544933810    -1.981903131919    -2.696478818263     1.007825032070
           C          0.867569933810    -0.849570131919    -0.301687818263    12.000000000000
           H          3.006711933810    -0.975674131919    -0.078855818263     1.007825032070
           H          2.489049933810     0.028379868081    -1.413145818263     1.007825032070
           C          0.652182933810     0.352863868081     0.621665181737    12.000000000000
           H          0.673967933810    -1.767325131919     0.246591181737     1.007825032070
           H          0.141836933810    -0.810480131919    -1.114167818263     1.007825032070
           C         -0.773488066190     0.499518868081     1.165995181737    12.000000000000
           H          1.351004933810     0.294627868081     1.454194181737     1.007825032070
           H          0.906963933810     1.258649868081     0.075462181737     1.007825032070
           C         -1.501534066190     1.774281868081     0.730786181737    12.000000000000
           H         -1.354345066190    -0.360308131919     0.838705181737     1.007825032070
           H         -0.749681066190     0.451121868081     2.253620181737     1.007825032070
           C         -2.953523066190     1.824971868081     1.210989181737    12.000000000000
           H         -1.480802066190     1.846398868081    -0.355712818263     1.007825032070
           H         -0.977461066190     2.650692868081     1.104355181737     1.007825032070
           C         -3.680652066190     3.099368868081     0.783368181737    12.000000000000
           H         -3.489380066190     0.958706868081     0.828981181737     1.007825032070
           H         -2.976794066190     1.743262868081     2.295732181737     1.007825032070
           H         -3.703077066190     3.193648868081    -0.298681818263     1.007825032070
           H         -4.707122066190     3.104517868081     1.136876181737     1.007825032070
           H         -3.189905066190     3.983420868081     1.180839181737     1.007825032070

  Charge       = 0
  Multiplicity = 1
  Basis Set: 6-31G*
  Basis Set:

    Orbital Energies (a.u.)
    -----------------------

    Doubly Occupied:

       1A    -20.552331     2A    -11.267164     3A    -11.221034
       4A    -11.215956     5A    -11.215749     6A    -11.215217
       7A    -11.215108     8A    -11.214055     9A    -11.209493
      10A     -1.359104    11A     -1.094437    12A     -1.062601
      13A     -1.011514    14A     -0.950085    15A     -0.884600
      16A     -0.819809    17A     -0.793907    18A     -0.789040
      19A     -0.694202    20A     -0.653065    21A     -0.635589
      22A     -0.615423    23A     -0.602318    24A     -0.582502
      25A     -0.579817    26A     -0.554487    27A     -0.537192
      28A     -0.524240    29A     -0.506726    30A     -0.501209
      31A     -0.478120    32A     -0.476545    33A     -0.470365
      34A     -0.460792    35A     -0.452432    36A     -0.441952
      37A     -0.422058

  @DF-RHF Final Energy:  -388.27753408367272

   => Energetics <=

    Nuclear Repulsion Energy =            453.4708272551102368
    One-Electron Energy =               -1424.9362932480307791
    Two-Electron Energy =                 583.1879319092456626
    DFT Exchange-Correlation Energy =       0.0000000000000000
    Empirical Dispersion Energy =           0.0000000000000000
    PCM Polarization Energy =               0.0000000000000000
    EFP Energy =                            0.0000000000000000
    Total Energy =                       -388.2775340836749365

  Mulliken Charges: (a.u.)
   Center  Symbol    Alpha    Beta     Spin     Total
       1     H     0.27997  0.27997  0.00000  0.44007
       2     O     4.37093  4.37093  0.00000 -0.74185
       3     C     2.99736  2.99736  0.00000  0.00527
       4     C     3.16202  3.16202  0.00000 -0.32405
       5     H     0.41439  0.41439  0.00000  0.17122
       6     H     0.43209  0.43209  0.00000  0.13582
       7     C     3.16362  3.16362  0.00000 -0.32724
       8     H     0.41485  0.41485  0.00000  0.17031
       9     H     0.42396  0.42396  0.00000  0.15208
      10     C     3.15372  3.15372  0.00000 -0.30743
      11     H     0.42407  0.42407  0.00000  0.15185
      12     H     0.42495  0.42495  0.00000  0.15010
      13     C     3.15536  3.15536  0.00000 -0.31072
      14     H     0.41893  0.41893  0.00000  0.16215
      15     H     0.42063  0.42063  0.00000  0.15874
      16     C     3.15272  3.15272  0.00000 -0.30544
      17     H     0.42248  0.42248  0.00000  0.15504
      18     H     0.42025  0.42025  0.00000  0.15950
      19     C     3.15219  3.15219  0.00000 -0.30439
      20     H     0.42467  0.42467  0.00000  0.15067
      21     H     0.42270  0.42270  0.00000  0.15461
      22     C     3.23925  3.23925  0.00000 -0.47851
      23     H     0.42322  0.42322  0.00000  0.15355
      24     H     0.42272  0.42272  0.00000  0.15456
      25     H     0.42203  0.42203  0.00000  0.15595
      26     H     0.41920  0.41920  0.00000  0.16159
      27     H     0.42173  0.42173  0.00000  0.15654

   Total alpha = 37.00000, Total beta = 37.00000, Total charge = -0.00000
