                              Psi4 1.0.54 Driver

  ==> Input File <==

--------------------------------------------------------------------------
set {
	reference rhf
	basis cc-pvtz
}

set_num_threads( 4 )
memory 2 gb

molecule MOL {
0 1

H	 4.305998	 0.027599	 1.570967
C	 3.575889	 -0.484314	 0.955342
C	 2.271654	 0.302038	 0.882725
H	 4.009725	 -0.614938	 -0.030438
H	 3.419654	 -1.470304	 1.380114
C	 1.215950	 -0.382441	 0.027187
H	 2.455185	 1.292361	 0.481050
H	 1.880448	 0.443614	 1.887459
N	 0.000002	 0.398953	 -0.040851
H	 1.595858	 -0.502192	 -0.983010
H	 1.037210	 -1.391429	 0.410696
C	 -1.215959	 -0.382435	 0.027143
H	 -0.000012	 1.086078	 0.683841
C	 -2.451944	 0.502410	 -0.038737
H	 -1.221867	 -1.069392	 -0.813828
H	 -1.259993	 -0.999709	 0.929424
C	 -3.752217	 -0.292550	 0.005776
H	 -2.407325	 1.093801	 -0.946480
H	 -2.431979	 1.206234	 0.790023
H	 -3.817783	 -0.982946	 -0.828547
H	 -4.612613	 0.364348	 -0.042306
H	 -3.830160	 -0.871666	 0.919868

	symmetry c1
}
set optking {
	frozen_dihedral = ("
		10 6 9 12
	")
}

ee,wfn = optimize('scf', return_wfn=True)
oeprop( wfn, 'DIPOLE', 'QUADRUPOLE', 'MULLIKEN_CHARGES')
f=open( 'psi4out.xyz', 'w' )
f.write( "22  " )
f.write( str(ee) + "\n" )
f.write( MOL.save_string_xyz() )
f.close()
--------------------------------------------------------------------------

    Molecular point group: c1
  Charge       = 0
  Multiplicity = 1
  Basis Set: CC-PVTZ
  Basis Set:
  @DF-RHF Final Energy:  -290.48610611589959
    Total Energy =                       -290.4861061158997586
    Molecular point group: c1
  Basis Set: CC-PVTZ
  Basis Set:
  Basis Set: CC-PVTZ
  Basis Set:
  @DF-RHF Final Energy:  -290.48641306582766
    Total Energy =                       -290.4864130658274917
  Basis Set: CC-PVTZ
  Basis Set:
  Basis Set: CC-PVTZ
  Basis Set:
  @DF-RHF Final Energy:  -290.48646397421578
    Total Energy =                       -290.4864639742161216
  Basis Set: CC-PVTZ
  Basis Set:
  Basis Set: CC-PVTZ
  Basis Set:
  @DF-RHF Final Energy:  -290.48646558524928
    Total Energy =                       -290.4864655852495616
  Basis Set: CC-PVTZ
  Basis Set:
  Charge       = 0
  Multiplicity = 1
  Basis Set: CC-PVTZ
  Basis Set:

    Orbital Energies (a.u.)
    -----------------------

    Doubly Occupied:

       1A    -15.526350     2A    -11.236089     3A    -11.235845
       4A    -11.216276     5A    -11.211217     6A    -11.209774
       7A    -11.207238     8A     -1.205019     9A     -1.061382
      10A     -1.027611    11A     -0.929185    12A     -0.868692
      13A     -0.813835    14A     -0.796397    15A     -0.658826
      16A     -0.638274    17A     -0.615482    18A     -0.613188
      19A     -0.574153    20A     -0.560585    21A     -0.540587
      22A     -0.524773    23A     -0.515577    24A     -0.486147
      25A     -0.482069    26A     -0.474909    27A     -0.469325
      28A     -0.452972    29A     -0.359090

  @DF-RHF Final Energy:  -290.48646583342645

   => Energetics <=

    Nuclear Repulsion Energy =            314.1135522229361641
    One-Electron Energy =               -1014.1782970537713027
    Two-Electron Energy =                 409.5782789974088018
    DFT Exchange-Correlation Energy =       0.0000000000000000
    Empirical Dispersion Energy =           0.0000000000000000
    PCM Polarization Energy =               0.0000000000000000
    EFP Energy =                            0.0000000000000000
    Total Energy =                       -290.4864658334263368
    Molecular point group: c1
  Basis Set: CC-PVTZ
  Basis Set:

  -Total Gradient:
     Atom            X                  Y                   Z
    ------   -----------------  -----------------  -----------------
       1        0.000005798094    -0.000000411738     0.000000059584
       2        0.000018875555    -0.000001331995    -0.000007548247
       3       -0.000015829133    -0.000004353938     0.000013077118
       4       -0.000003071046    -0.000006093620     0.000001011384
       5        0.000003643997     0.000000205580     0.000002200243
       6       -0.002567224707    -0.003764307870     0.000831938467
       7       -0.000004045531    -0.000000987578     0.000000112592
       8       -0.000003898750     0.000001880651    -0.000005210040
       9        0.000507087923     0.000297959505    -0.004046730863
      10        0.002007376607     0.003140245883     0.000328958787
      11        0.000026651234    -0.000007117879    -0.000004714285
      12        0.000043444321     0.000346633424     0.002892904171
      13       -0.000002014934     0.000007819459    -0.000013107909
      14       -0.000003776403    -0.000000125794     0.000000128050
      15       -0.000000500452    -0.000001398338    -0.000000629302
      16       -0.000003003281    -0.000008080225     0.000002590514
      17       -0.000007448858     0.000003162481     0.000005407800
      18        0.000003256849    -0.000002510757     0.000000997884
      19       -0.000003088165    -0.000000520418    -0.000000391923
      20        0.000001015707     0.000001888013    -0.000000915665
      21       -0.000002522495    -0.000001751856    -0.000000036296
      22       -0.000000726528    -0.000000802991    -0.000000102063

  **** Optimization is complete! (in 5 steps) ****
    Final optimized geometry and variables:
    Molecular point group: c1

    Geometry (in Angstrom), charge = 0, multiplicity = 1:

    H            4.394595075935     0.094635326886     1.236961136349
    C            3.655880022455    -0.424849573638     0.638168257873
    C            2.335147066900     0.335864121002     0.614527916338
    H            4.060701930369    -0.537118580513    -0.361703975597
    H            3.530041360547    -1.417598066400     1.057141035293
    C            1.263297136032    -0.361771921284    -0.214021378196
    H            2.495137193128     1.331566294421     0.211072426040
    H            1.972783237808     0.465677177524     1.631422440502
    N            0.047927198665     0.432688823419    -0.302870378151
    H            1.662766328252    -0.517320857117    -1.212404450811
    H            1.065300100249    -1.342945274996     0.215588238728
    C           -1.183344499810    -0.325210612917    -0.224550007173
    H            0.048238529370     1.125438508748     0.414839147095
    C           -2.401749680418     0.580531591162    -0.320024292994
    H           -1.200466996041    -1.033481799652    -1.047872890960
    H           -1.242128928830    -0.918436898133     0.692491629841
    C           -3.717273671496    -0.187538662460    -0.255117901587
    H           -2.343927355486     1.143990456756    -1.244578363078
    H           -2.369418523244     1.308190295905     0.487616122119
    H           -3.794284997044    -0.901494981016    -1.068362979898
    H           -4.564733602093     0.484046297858    -0.325447195912
    H           -3.808473410410    -0.737059562723     0.675899991973

  Mulliken Charges: (a.u.)
   Center  Symbol    Alpha    Beta     Spin     Total
       1     H     0.44767  0.44767  0.00000  0.10466
       2     C     3.15268  3.15268  0.00000 -0.30536
       3     C     3.08929  3.08929  0.00000 -0.17858
       4     H     0.45381  0.45381  0.00000  0.09237
       5     H     0.45498  0.45498  0.00000  0.09004
       6     C     3.01827  3.01827  0.00000 -0.03654
       7     H     0.44986  0.44986  0.00000  0.10029
       8     H     0.45783  0.45783  0.00000  0.08433
       9     N     3.63915  3.63915  0.00000 -0.27831
      10     H     0.45901  0.45901  0.00000  0.08197
      11     H     0.47142  0.47142  0.00000  0.05716
      12     C     3.02261  3.02261  0.00000 -0.04522
      13     H     0.44763  0.44763  0.00000  0.10475
      14     C     3.08197  3.08197  0.00000 -0.16394
      15     H     0.45830  0.45830  0.00000  0.08339
      16     H     0.47489  0.47489  0.00000  0.05021
      17     C     3.15315  3.15315  0.00000 -0.30629
      18     H     0.44884  0.44884  0.00000  0.10232
      19     H     0.45985  0.45985  0.00000  0.08031
      20     H     0.45472  0.45472  0.00000  0.09056
      21     H     0.44774  0.44774  0.00000  0.10451
      22     H     0.45632  0.45632  0.00000  0.08737

   Total alpha = 29.00000, Total beta = 29.00000, Total charge =  0.00000

*** Psi4 exiting successfully. Buy a developer a beer!
