                              Psi4 1.0.54 Driver

  ==> Input File <==

--------------------------------------------------------------------------
set {
	reference rhf
	basis cc-pvtz
}

set_num_threads( 4 )
memory 2 gb

molecule MOL {
0 1

O	 -2.530356	 0.904604	 -0.614517
C	 -1.922978	 0.063265	 -0.045005
C	 -2.504650	 -1.235944	 0.436830
O	 -0.637375	 0.157174	 0.243149
H	 -2.380914	 -1.313976	 1.509359
H	 -3.550398	 -1.280895	 0.179871
H	 -1.973053	 -2.062783	 -0.016284
C	 0.162530	 -1.009518	 0.097799
C	 1.587210	 -0.664190	 0.477086
H	 0.096803	 -1.356267	 -0.924704
H	 -0.233803	 -1.785900	 0.736810
C	 2.256770	 0.342732	 -0.454344
H	 2.154716	 -1.590834	 0.479041
H	 1.598751	 -0.289614	 1.496104
C	 3.698146	 0.643205	 -0.057145
H	 2.235038	 -0.042575	 -1.470299
H	 1.683491	 1.262594	 -0.461300
H	 4.150202	 1.356548	 -0.736242
H	 4.305463	 -0.255904	 -0.069842
H	 3.749130	 1.061068	 0.942759

	symmetry c1
}
set optking {
	frozen_dihedral = ("
		1 2 4 8
	")
}

ee,wfn = optimize('scf', return_wfn=True)
oeprop( wfn, 'DIPOLE', 'QUADRUPOLE', 'MULLIKEN_CHARGES')
f=open( 'psi4out.xyz', 'w' )
f.write( "20  " )
f.write( str(ee) + "\n" )
f.write( MOL.save_string_xyz() )
f.close()
--------------------------------------------------------------------------

    Molecular point group: c1
  Charge       = 0
  Multiplicity = 1
  Basis Set: CC-PVTZ
  Basis Set:
  @DF-RHF Final Energy:  -384.06490286971894
    Total Energy =                       -384.0649028697189351
    Molecular point group: c1
  Basis Set: CC-PVTZ
  Basis Set:
  Basis Set: CC-PVTZ
  Basis Set:
  @DF-RHF Final Energy:  -383.89617262970211
    Total Energy =                       -383.8961726297018231
  Basis Set: CC-PVTZ
  Basis Set:
  Basis Set: CC-PVTZ
  Basis Set:
  @DF-RHF Final Energy:  -384.01681910746623
    Total Energy =                       -384.0168191074664037
  Basis Set: CC-PVTZ
  Basis Set:
  Basis Set: CC-PVTZ
  Basis Set:
  @DF-RHF Final Energy:  -384.06701001470964
    Total Energy =                       -384.0670100147098083
  Basis Set: CC-PVTZ
  Basis Set:
  @DF-RHF Final Energy:  -384.06992199589467
    Total Energy =                       -384.0699219958942194
  @DF-RHF Final Energy:  -384.07140394996338
    Total Energy =                       -384.0714039499632690
  @DF-RHF Final Energy:  -384.07159391120996
    Total Energy =                       -384.0715939112100159
  Basis Set: CC-PVTZ
  Basis Set:
  @DF-RHF Final Energy:  -384.07161892334744
    Total Energy =                       -384.0716189233471596
  Basis Set: CC-PVTZ
  Basis Set:
  Basis Set: CC-PVTZ
  Basis Set:
  @DF-RHF Final Energy:  -384.07163166295715
    Total Energy =                       -384.0716316629573157
  Basis Set: CC-PVTZ
  Basis Set:
  Basis Set: CC-PVTZ
  Basis Set:
  @DF-RHF Final Energy:  -384.07163499773901
    Total Energy =                       -384.0716349977391246
  Basis Set: CC-PVTZ
  Basis Set:
  Charge       = 0
  Multiplicity = 1
  Basis Set: CC-PVTZ
  Basis Set:

    Orbital Energies (a.u.)
    -----------------------

    Doubly Occupied:

       1A    -20.586220     2A    -20.534347     3A    -11.368906
       4A    -11.294391     5A    -11.239083     6A    -11.227670
       7A    -11.217501     8A    -11.210575     9A     -1.463432
      10A     -1.369101    11A     -1.086401    12A     -1.019819
      13A     -0.998188    14A     -0.887815    15A     -0.812690
      16A     -0.781531    17A     -0.700001    18A     -0.687586
      19A     -0.661498    20A     -0.636117    21A     -0.611801
      22A     -0.594018    23A     -0.580944    24A     -0.564626
      25A     -0.544240    26A     -0.526870    27A     -0.515425
      28A     -0.486226    29A     -0.478039    30A     -0.474172
      31A     -0.448899    32A     -0.437319

  @DF-RHF Final Energy:  -384.07163544961890

   => Energetics <=

    Nuclear Repulsion Energy =            385.5033620510540118
    One-Electron Energy =               -1287.0590935871443889
    Two-Electron Energy =                 517.4840960864713679
    DFT Exchange-Correlation Energy =       0.0000000000000000
    Empirical Dispersion Energy =           0.0000000000000000
    PCM Polarization Energy =               0.0000000000000000
    EFP Energy =                            0.0000000000000000
    Total Energy =                       -384.0716354496190661
    Molecular point group: c1
  Basis Set: CC-PVTZ
  Basis Set:

  -Total Gradient:
     Atom            X                  Y                   Z
    ------   -----------------  -----------------  -----------------
       1       -0.000949447917    -0.001614904996    -0.003215954913
       2        0.001175658692     0.002683350618     0.002978281031
       3        0.000007012804     0.000015300256     0.000048699432
       4       -0.000018808545    -0.002009022992     0.003290025065
       5       -0.000055176237     0.000034756409    -0.000065356339
       6        0.000112020390    -0.000069506796    -0.000026434382
       7        0.000012172615     0.000060267417     0.000042174872
       8       -0.000276992454     0.000901920376    -0.003122286763
       9       -0.000012773224     0.000002296533     0.000054984865
      10        0.000036943827    -0.000013377750     0.000038758878
      11       -0.000006296331    -0.000002102384     0.000007614954
      12        0.000020738515     0.000024196706    -0.000038576896
      13       -0.000007061649     0.000014744120     0.000004219931
      14       -0.000024374418    -0.000005685583    -0.000036482796
      15       -0.000009008493    -0.000008529458     0.000055296569
      16        0.000030222891     0.000011539501     0.000038925899
      17        0.000010082727    -0.000023258953     0.000001780502
      18       -0.000000364790    -0.000003736079    -0.000004814538
      19       -0.000001850821     0.000011924779    -0.000002087072
      20       -0.000042697580    -0.000010171717    -0.000048768297

  **** Optimization is complete! (in 11 steps) ****
    Final optimized geometry and variables:
    Molecular point group: c1

    Geometry (in Angstrom), charge = 0, multiplicity = 1:

    O           -1.948068626305     1.794439046925     0.408758228197
    C           -1.597901839830     0.728318116405     0.765489302805
    C           -2.501781426891    -0.233309500245     1.495726005479
    O           -0.341391870741     0.330173342391     0.551395055827
    H           -2.018317956490    -0.604976076045     2.389951937612
    H           -3.413613724045     0.279251740498     1.753049439217
    H           -2.739298213617    -1.082509183538     0.866977946571
    C           -0.048397105292    -0.997300473301     0.158265392475
    C            1.419842608524    -1.072966242041    -0.207974937226
    H           -0.665408884663    -1.266890843576    -0.692597638492
    H           -0.264950227475    -1.683482378086     0.968343393247
    C            1.799491207535    -0.239426073416    -1.428600850956
    H            1.658382953174    -2.117901524481    -0.387634531690
    H            2.004648855147    -0.760156736701     0.651135982581
    C            3.283289745545    -0.337290830774    -1.765405907461
    H            1.213347812785    -0.570013068595    -2.282111844188
    H            1.531780090820     0.794746575708    -1.252177314930
    H            3.524255169053     0.258151951157    -2.637963459711
    H            3.574783410168    -1.361775759987    -1.973297948391
    H            3.894647836979     0.019612588713    -0.943534317725

  Mulliken Charges: (a.u.)
   Center  Symbol    Alpha    Beta     Spin     Total
       1     O     4.17562  4.17562  0.00000 -0.35123
       2     C     2.81865  2.81865  0.00000  0.36270
       3     C     3.16301  3.16301  0.00000 -0.32601
       4     O     4.14299  4.14299  0.00000 -0.28598
       5     H     0.44310  0.44310  0.00000  0.11381
       6     H     0.42807  0.42807  0.00000  0.14386
       7     H     0.44747  0.44747  0.00000  0.10506
       8     C     2.99727  2.99727  0.00000  0.00547
       9     C     3.08443  3.08443  0.00000 -0.16886
      10     H     0.45677  0.45677  0.00000  0.08647
      11     H     0.45081  0.45081  0.00000  0.09837
      12     C     3.08587  3.08587  0.00000 -0.17175
      13     H     0.45291  0.45291  0.00000  0.09418
      14     H     0.44954  0.44954  0.00000  0.10091
      15     C     3.15078  3.15078  0.00000 -0.30157
      16     H     0.45683  0.45683  0.00000  0.08633
      17     H     0.43869  0.43869  0.00000  0.12261
      18     H     0.44636  0.44636  0.00000  0.10729
      19     H     0.45718  0.45718  0.00000  0.08564
      20     H     0.45366  0.45366  0.00000  0.09268

   Total alpha = 32.00000, Total beta = 32.00000, Total charge = -0.00000

*** Psi4 exiting successfully. Buy a developer a beer!
