  ==> Input File <==

--------------------------------------------------------------------------
set {
	reference rhf
	basis 6-31G*
}

set_num_threads( 4 )
memory 2 gb

molecule MOL {
0 1

H	 2.591676	 2.013956	 0.335017
O	 3.341076	 1.666752	 -0.126416
C	 3.569581	 0.339145	 0.272707
C	 2.539767	 -0.640285	 -0.279495
H	 4.553106	 0.084646	 -0.100901
H	 3.608576	 0.269204	 1.359154
C	 1.115811	 -0.397273	 0.226630
H	 2.556196	 -0.582511	 -1.364741
H	 2.852081	 -1.648031	 -0.010655
C	 0.076886	 -1.262061	 -0.492809
H	 0.865610	 0.652201	 0.098688
H	 1.071886	 -0.602096	 1.296424
C	 -1.355588	 -1.120140	 0.034655
H	 0.093285	 -1.030858	 -1.556352
H	 0.374218	 -2.304950	 -0.405187
C	 -1.994351	 0.252148	 -0.196186
H	 -1.973365	 -1.875430	 -0.446701
H	 -1.371274	 -1.350961	 1.098757
C	 -3.456417	 0.311990	 0.251270
H	 -1.932903	 0.503354	 -1.254123
H	 -1.433842	 1.019552	 0.332231
C	 -4.094542	 1.682593	 0.027865
H	 -4.027818	 -0.443288	 -0.284028
H	 -3.520888	 0.051797	 1.305797
H	 -4.075037	 1.957545	 -1.022965
H	 -5.130367	 1.692359	 0.352838
H	 -3.567654	 2.455592	 0.580337

	symmetry c1
}
set optking {
	frozen_dihedral = ("
		10 7 4 8
	")
}

ee = optimize('scf')
oeprop('DIPOLE', 'QUADRUPOLE', 'MULLIKEN_CHARGES')
f=open( 'psi4out.xyz', 'w' )
f.write( "27  " )
f.write( str(ee) + "\n" )
f.write( MOL.save_string_xyz() )
f.close()
--------------------------------------------------------------------------

    Molecular point group: c1
  Charge       = 0
  Multiplicity = 1
  Basis Set: 6-31G*
  Basis Set:
  @DF-RHF Final Energy:  -388.28134672578221
    Total Energy =                       -388.2813467257824414
    Molecular point group: c1
  Basis Set: 6-31G*
  Basis Set:
  Basis Set: 6-31G*
  Basis Set:
  @DF-RHF Final Energy:  -388.28134546839686
    Total Energy =                       -388.2813454683964665
  Basis Set: 6-31G*
  Basis Set:
  Basis Set: 6-31G*
  Basis Set:
  @DF-RHF Final Energy:  -388.28140813694114
    Total Energy =                       -388.2814081369406267
  Basis Set: 6-31G*
  Basis Set:
  Basis Set: 6-31G*
  Basis Set:
  @DF-RHF Final Energy:  -388.28141824878935
    Total Energy =                       -388.2814182487885546
  Basis Set: 6-31G*
  Basis Set:
  Basis Set: 6-31G*
  Basis Set:
  @DF-RHF Final Energy:  -388.28142532842446
    Total Energy =                       -388.2814253284245751
  Basis Set: 6-31G*
  Basis Set:
  Charge       = 0
  Multiplicity = 1
  Basis Set: 6-31G*
  Basis Set:

    Orbital Energies (a.u.)
    -----------------------

    Doubly Occupied:

       1A    -20.552256     2A    -11.267252     3A    -11.219853
       4A    -11.217120     5A    -11.216164     6A    -11.215608
       7A    -11.215167     8A    -11.214387     9A    -11.209501
      10A     -1.359035    11A     -1.095198    12A     -1.061522
      13A     -1.011545    14A     -0.948587    15A     -0.888070
      16A     -0.819894    17A     -0.802023    18A     -0.778116
      19A     -0.693198    20A     -0.652965    21A     -0.639232
      22A     -0.613646    23A     -0.598713    24A     -0.582616
      25A     -0.581267    26A     -0.552373    27A     -0.540840
      28A     -0.532814    29A     -0.505931    30A     -0.492718
      31A     -0.485268    32A     -0.473216    33A     -0.468925
      34A     -0.461321    35A     -0.453211    36A     -0.441547
      37A     -0.423057

  @DF-RHF Final Energy:  -388.28142616797732

   => Energetics <=

    Nuclear Repulsion Energy =            459.9345096639269741
    One-Electron Energy =               -1437.8635531895720305
    Two-Electron Energy =                 589.6476173576675137
    DFT Exchange-Correlation Energy =       0.0000000000000000
    Empirical Dispersion Energy =           0.0000000000000000
    PCM Polarization Energy =               0.0000000000000000
    EFP Energy =                            0.0000000000000000
    Total Energy =                       -388.2814261679775427
    Molecular point group: c1
  Basis Set: 6-31G*
  Basis Set:

  -Total Gradient:
     Atom            X                  Y                   Z
    ------   -----------------  -----------------  -----------------
       1       -0.000007471153     0.000028477629    -0.000007212802
       2       -0.000045169048     0.000011111062     0.000032860408
       3        0.000066949404    -0.000024485274    -0.000057838055
       4        0.000371181001     0.002652711106    -0.000257481526
       5        0.000015536949    -0.000045449259     0.000021257246
       6       -0.000024685113     0.000012031016    -0.000011526925
       7        0.000131374698    -0.001748014873     0.001302513365
       8       -0.000368821634    -0.001819969857    -0.000074163066
       9        0.000018442366     0.000001673862     0.000004599783
      10       -0.000152321776     0.000961973642    -0.000956259327
      11        0.000000428983    -0.000021504539    -0.000004915003
      12        0.000009165905    -0.000007463410     0.000020200696
      13        0.000012899877    -0.000001132667     0.000022018994
      14        0.000007365215    -0.000000839429    -0.000007068391
      15       -0.000018390110     0.000002736327     0.000001452308
      16       -0.000018139395    -0.000001956157    -0.000026913412
      17        0.000016862507    -0.000006298600    -0.000003121028
      18       -0.000010991175     0.000001369957     0.000003216057
      19        0.000002523226     0.000006101522     0.000004204182
      20       -0.000015909363     0.000007664446    -0.000010330354
      21        0.000005206981    -0.000010628454    -0.000002791814
      22        0.000001242326     0.000001050822     0.000005199702
      23        0.000001764347     0.000005440298    -0.000000898817
      24        0.000000978833    -0.000004991036     0.000002518099
      25        0.000001293220    -0.000000709122    -0.000000398486
      26       -0.000000212552     0.000000343198    -0.000000053786
      27       -0.000001104537     0.000000757792     0.000000931953

  **** Optimization is complete! (in 6 steps) ****
    Final optimized geometry and variables:
    Molecular point group: c1

    Geometry (in Angstrom), charge = 0, multiplicity = 1:

    H            2.637020031442     1.901901085633     0.316904929297
    O            3.381598106771     1.517068973009    -0.121592009232
    C            3.560122190140     0.194272240465     0.316883247690
    C            2.521109794160    -0.771278237425    -0.241452259039
    H            4.546306669668    -0.096839670417    -0.021187609588
    H            3.566185603686     0.150748858689     1.405372957242
    C            1.092412199571    -0.510363411157     0.243201894249
    H            2.553367590982    -0.734847457176    -1.327214737251
    H            2.812907418354    -1.781930971654     0.040556972341
    C            0.058635056312    -1.383766582178    -0.473290107886
    H            0.843943398890     0.535492887721     0.082880617754
    H            1.036026215737    -0.682854502959     1.317360784651
    C           -1.374174255531    -1.251864022770     0.055594568472
    H            0.073494832166    -1.151740837351    -1.536449255823
    H            0.362403335024    -2.425134299760    -0.386519798972
    C           -2.018734123212     0.119397821671    -0.164940832860
    H           -1.988766855166    -2.006435396034    -0.430921575264
    H           -1.388508346345    -1.490159427364     1.118020251654
    C           -3.480974730539     0.169795336029     0.283091490680
    H           -1.958337870008     0.379253785763    -1.220889253244
    H           -1.461291239209     0.884726631326     0.369784343919
    C           -4.124494115926     1.539703805478     0.071267268880
    H           -4.049403678524    -0.583161960352    -0.258574996599
    H           -3.544351085725    -0.099533854118     1.335390552462
    H           -4.105764930178     1.823754658906    -0.977148487592
    H           -5.160450444165     1.542524506208     0.395921355958
    H           -3.600913052667     2.310010975731     0.630621649937

  Mulliken Charges: (a.u.)
   Center  Symbol    Alpha    Beta     Spin     Total
       1     H     0.27988  0.27988  0.00000  0.44024
       2     O     4.37076  4.37076  0.00000 -0.74153
       3     C     2.99741  2.99741  0.00000  0.00518
       4     C     3.16158  3.16158  0.00000 -0.32316
       5     H     0.41432  0.41432  0.00000  0.17136
       6     H     0.43211  0.43211  0.00000  0.13578
       7     C     3.16077  3.16077  0.00000 -0.32153
       8     H     0.41489  0.41489  0.00000  0.17021
       9     H     0.42430  0.42430  0.00000  0.15140
      10     C     3.15256  3.15256  0.00000 -0.30512
      11     H     0.42652  0.42652  0.00000  0.14695
      12     H     0.42389  0.42389  0.00000  0.15221
      13     C     3.15351  3.15351  0.00000 -0.30701
      14     H     0.42118  0.42118  0.00000  0.15765
      15     H     0.42147  0.42147  0.00000  0.15705
      16     C     3.15241  3.15241  0.00000 -0.30482
      17     H     0.42123  0.42123  0.00000  0.15754
      18     H     0.42417  0.42417  0.00000  0.15167
      19     C     3.15122  3.15122  0.00000 -0.30243
      20     H     0.42356  0.42356  0.00000  0.15288
      21     H     0.42406  0.42406  0.00000  0.15189
      22     C     3.23917  3.23917  0.00000 -0.47833
      23     H     0.42278  0.42278  0.00000  0.15444
      24     H     0.42326  0.42326  0.00000  0.15348
      25     H     0.42143  0.42143  0.00000  0.15714
      26     H     0.41917  0.41917  0.00000  0.16165
      27     H     0.42239  0.42239  0.00000  0.15521

   Total alpha = 37.00000, Total beta = 37.00000, Total charge =  0.00000
