  ==> Input File <==

--------------------------------------------------------------------------
set {
	reference rhf
	basis 6-31G*
}

set_num_threads( 1 )
memory 2 gb

molecule MOL {
0 1

H	 -3.879460	 0.844461	 0.060976
O	 -3.027799	 1.166238	 -0.197691
C	 -2.026376	 0.340750	 0.341611
C	 -0.673256	 0.843270	 -0.132153
H	 -2.064542	 0.359503	 1.429328
H	 -2.171006	 -0.691708	 0.025753
C	 0.486613	 -0.083066	 0.235839
H	 -0.715586	 0.970948	 -1.210718
H	 -0.508072	 1.829858	 0.297090
C	 1.840406	 0.433480	 -0.254303
H	 0.300215	 -1.068318	 -0.178947
H	 0.519509	 -0.203625	 1.318070
C	 3.000220	 -0.489290	 0.118523
H	 1.809207	 0.553576	 -1.335192
H	 2.021860	 1.424500	 0.157276
H	 2.864959	 -1.479103	 -0.307933
H	 3.946603	 -0.099227	 -0.243630
H	 3.080049	 -0.602997	 1.196117

	symmetry c1
}
set optking {
	frozen_dihedral = ("
		14 10 7 11,
		10 7 4 8,
		1 2 3 4
	")
}

ee = energy('scf')
oeprop('DIPOLE', 'QUADRUPOLE', 'MULLIKEN_CHARGES')
f=open( 'psi4out.xyz', 'w' )
f.write( "18  " )
f.write( str(ee) + "\n" )
f.write( MOL.save_string_xyz() )
f.close()
--------------------------------------------------------------------------

    Molecular point group: c1

    Geometry (in Angstrom), charge = 0, multiplicity = 1:

       Center              X                  Y                   Z               Mass
    ------------   -----------------  -----------------  -----------------  -----------------
           H         -3.747165711690     0.469295837312     0.040884942363     1.007825032070
           O         -2.895504711690     0.791072837312    -0.217782057637    15.994914619560
           C         -1.894081711690    -0.034415162688     0.321519942363    12.000000000000
           C         -0.540961711690     0.468104837312    -0.152244057637    12.000000000000
           H         -1.932247711690    -0.015662162688     1.409236942363     1.007825032070
           H         -2.038711711690    -1.066873162688     0.005661942363     1.007825032070
           C          0.618907288310    -0.458231162688     0.215747942363    12.000000000000
           H         -0.583291711690     0.595782837312    -1.230809057637     1.007825032070
           H         -0.375777711690     1.454692837312     0.276998942363     1.007825032070
           C          1.972700288310     0.058314837312    -0.274394057637    12.000000000000
           H          0.432509288310    -1.443483162688    -0.199038057637     1.007825032070
           H          0.651803288310    -0.578790162688     1.297978942363     1.007825032070
           C          3.132514288310    -0.864455162688     0.098431942363    12.000000000000
           H          1.941501288310     0.178410837312    -1.355283057637     1.007825032070
           H          2.154154288310     1.049334837312     0.137184942363     1.007825032070
           H          2.997253288310    -1.854268162688    -0.328024057637     1.007825032070
           H          4.078897288310    -0.474392162688    -0.263721057637     1.007825032070
           H          3.212343288310    -0.978162162688     1.176025942363     1.007825032070

  Charge       = 0
  Multiplicity = 1
  Basis Set: 6-31G*
  Basis Set:

    Orbital Energies (a.u.)
    -----------------------

    Doubly Occupied:

       1A    -20.552008     2A    -11.267426     3A    -11.216472
       4A    -11.215879     5A    -11.211028     6A    -11.208935
       7A     -1.358416     8A     -1.080656     9A     -1.011148
      10A     -0.913752    11A     -0.819703    12A     -0.792375
      13A     -0.692338    14A     -0.662567    15A     -0.621519
      16A     -0.587596    17A     -0.572005    18A     -0.556189
      19A     -0.531037    20A     -0.493131    21A     -0.489777
      22A     -0.468573    23A     -0.464775    24A     -0.452081
      25A     -0.433608

  @DF-RHF Final Energy:  -271.17938753139038

   => Energetics <=

    Nuclear Repulsion Energy =            245.1066443147321081
    One-Electron Energy =                -853.2261581626410134
    Two-Electron Energy =                 336.9401263165185583
    DFT Exchange-Correlation Energy =       0.0000000000000000
    Empirical Dispersion Energy =           0.0000000000000000
    PCM Polarization Energy =               0.0000000000000000
    EFP Energy =                            0.0000000000000000
    Total Energy =                       -271.1793875313903754

  Mulliken Charges: (a.u.)
   Center  Symbol    Alpha    Beta     Spin     Total
       1     H     0.28100  0.28100  0.00000  0.43799
       2     O     4.37193  4.37193  0.00000 -0.74385
       3     C     2.98944  2.98944  0.00000  0.02111
       4     C     3.15994  3.15994  0.00000 -0.31988
       5     H     0.43242  0.43242  0.00000  0.13516
       6     H     0.43328  0.43328  0.00000  0.13343
       7     C     3.15839  3.15839  0.00000 -0.31678
       8     H     0.41379  0.41379  0.00000  0.17242
       9     H     0.41645  0.41645  0.00000  0.16710
      10     C     3.15107  3.15107  0.00000 -0.30213
      11     H     0.42295  0.42295  0.00000  0.15410
      12     H     0.42432  0.42432  0.00000  0.15136
      13     C     3.23938  3.23938  0.00000 -0.47877
      14     H     0.42143  0.42143  0.00000  0.15714
      15     H     0.42157  0.42157  0.00000  0.15686
      16     H     0.42185  0.42185  0.00000  0.15630
      17     H     0.41883  0.41883  0.00000  0.16233
      18     H     0.42195  0.42195  0.00000  0.15611

   Total alpha = 25.00000, Total beta = 25.00000, Total charge = -0.00000
