  ==> Input File <==

--------------------------------------------------------------------------
set {
	reference rhf
	basis 6-31G*
}

set_num_threads( 1 )
memory 2 gb

molecule MOL {
0 1

O	 3.168421	 1.145960	 0.056807
C	 2.701189	 0.057885	 -0.047330
C	 1.326636	 -0.262271	 -0.582955
O	 3.347903	 -1.046386	 0.304773
C	 0.546855	 0.978046	 -1.013850
H	 1.458885	 -0.963842	 -1.399961
H	 0.796266	 -0.807553	 0.193623
C	 -0.888206	 0.680182	 -1.461480
H	 1.084553	 1.480173	 -1.812517
H	 0.522449	 1.676501	 -0.184401
C	 -1.005351	 -0.148686	 -2.743809
H	 -1.397391	 1.629049	 -1.613485
H	 -1.422101	 0.177297	 -0.656451
C	 -2.452525	 -0.325004	 -3.208135
H	 -0.430288	 0.331675	 -3.533983
H	 -0.561674	 -1.130806	 -2.596966
C	 -2.582130	 -1.156100	 -4.485872
H	 -2.900109	 0.654071	 -3.370360
H	 -3.030595	 -0.795570	 -2.414346
C	 -4.030132	 -1.324214	 -4.944923
H	 -2.004251	 -0.687823	 -5.279859
H	 -2.139183	 -2.136648	 -4.324304
H	 -4.089233	 -1.917477	 -5.852200
H	 -4.491053	 -0.361785	 -5.148587
H	 -4.627068	 -1.821219	 -4.185365
C	 4.728119	 -1.109107	 -0.004993
H	 4.882018	 -1.033965	 -1.071845
H	 5.068212	 -2.067527	 0.355250
H	 5.265056	 -0.311663	 0.488280

	symmetry c1
}
set optking {
	frozen_dihedral = ("
		21 17 14 11,
		17 14 11 15,
		15 11 8 5,
		6 3 5 9,
		11 8 5 9,
		2 4 26 27,
		6 3 2 1
	")
}

ee = energy('scf')
oeprop('DIPOLE', 'QUADRUPOLE', 'MULLIKEN_CHARGES')
f=open( 'psi4out.xyz', 'w' )
f.write( "29  " )
f.write( str(ee) + "\n" )
f.write( MOL.save_string_xyz() )
f.close()
--------------------------------------------------------------------------

    Molecular point group: c1

    Geometry (in Angstrom), charge = 0, multiplicity = 1:

       Center              X                  Y                   Z               Mass
    ------------   -----------------  -----------------  -----------------  -----------------
           O          2.686014439157     1.385438792644     1.693908920639    15.994914619560
           C          2.218782439157     0.297363792644     1.589771920639    12.000000000000
           C          0.844229439157    -0.022792207356     1.054146920639    12.000000000000
           O          2.865496439157    -0.806907207356     1.941874920639    15.994914619560
           C          0.064448439157     1.217524792644     0.623251920639    12.000000000000
           H          0.976478439157    -0.724363207356     0.237140920639     1.007825032070
           H          0.313859439157    -0.568074207356     1.830724920639     1.007825032070
           C         -1.370612560843     0.919660792644     0.175621920639    12.000000000000
           H          0.602146439157     1.719651792644    -0.175415079361     1.007825032070
           H          0.040042439157     1.915979792644     1.452700920639     1.007825032070
           C         -1.487757560843     0.090792792644    -1.106707079361    12.000000000000
           H         -1.879797560843     1.868527792644     0.023616920639     1.007825032070
           H         -1.904507560843     0.416775792644     0.980650920639     1.007825032070
           C         -2.934931560843    -0.085525207356    -1.571033079361    12.000000000000
           H         -0.912694560843     0.571153792644    -1.896881079361     1.007825032070
           H         -1.044080560843    -0.891327207356    -0.959864079361     1.007825032070
           C         -3.064536560843    -0.916621207356    -2.848770079361    12.000000000000
           H         -3.382515560843     0.893549792644    -1.733258079361     1.007825032070
           H         -3.513001560843    -0.556091207356    -0.777244079361     1.007825032070
           C         -4.512538560843    -1.084735207356    -3.307821079361    12.000000000000
           H         -2.486657560843    -0.448344207356    -3.642757079361     1.007825032070
           H         -2.621589560843    -1.897169207356    -2.687202079361     1.007825032070
           H         -4.571639560843    -1.677998207356    -4.215098079361     1.007825032070
           H         -4.973459560843    -0.122306207356    -3.511485079361     1.007825032070
           H         -5.109474560843    -1.581740207356    -2.548263079361     1.007825032070
           C          4.245712439157    -0.869628207356     1.632108920639    12.000000000000
           H          4.399611439157    -0.794486207356     0.565256920639     1.007825032070
           H          4.585805439157    -1.828048207356     1.992351920639     1.007825032070
           H          4.782649439157    -0.072184207356     2.125381920639     1.007825032070

  Charge       = 0
  Multiplicity = 1
  Basis Set: 6-31G*
  Basis Set:

    Orbital Energies (a.u.)
    -----------------------

    Doubly Occupied:

       1A    -20.595731     2A    -20.548326     3A    -11.372619
       4A    -11.284844     5A    -11.234950     6A    -11.219047
       7A    -11.217811     8A    -11.216602     9A    -11.216422
      10A    -11.214958    11A    -11.209519    12A     -1.466748
      13A     -1.363351    14A     -1.098300    15A     -1.066778
      16A     -1.018659    17A     -0.977921    18A     -0.930943
      19A     -0.862890    20A     -0.800041    21A     -0.791136
      22A     -0.764051    23A     -0.700456    24A     -0.680760
      25A     -0.671425    26A     -0.651896    27A     -0.628166
      28A     -0.608320    29A     -0.596475    30A     -0.583734
      31A     -0.568537    32A     -0.547464    33A     -0.538458
      34A     -0.530143    35A     -0.514883    36A     -0.506949
      37A     -0.499323    38A     -0.478485    39A     -0.470809
      40A     -0.462785    41A     -0.461841    42A     -0.451593
      43A     -0.440935    44A     -0.433243

  @DF-RHF Final Energy:  -501.03556092741201

   => Energetics <=

    Nuclear Repulsion Energy =            611.1007857100482852
    One-Electron Energy =               -1893.2763709516987092
    Two-Electron Energy =                 781.1400243142395539
    DFT Exchange-Correlation Energy =       0.0000000000000000
    Empirical Dispersion Energy =           0.0000000000000000
    PCM Polarization Energy =               0.0000000000000000
    EFP Energy =                            0.0000000000000000
    Total Energy =                       -501.0355609274108701

  Mulliken Charges: (a.u.)
   Center  Symbol    Alpha    Beta     Spin     Total
       1     O     4.27726  4.27726  0.00000 -0.55451
       2     C     2.60499  2.60499  0.00000  0.79002
       3     C     3.21129  3.21129  0.00000 -0.42257
       4     O     4.30971  4.30971  0.00000 -0.61942
       5     C     3.15452  3.15452  0.00000 -0.30905
       6     H     0.40184  0.40184  0.00000  0.19632
       7     H     0.40002  0.40002  0.00000  0.19997
       8     C     3.15645  3.15645  0.00000 -0.31289
       9     H     0.41392  0.41392  0.00000  0.17216
      10     H     0.40811  0.40811  0.00000  0.18377
      11     C     3.15502  3.15502  0.00000 -0.31004
      12     H     0.41827  0.41827  0.00000  0.16345
      13     H     0.42358  0.42358  0.00000  0.15283
      14     C     3.15029  3.15029  0.00000 -0.30057
      15     H     0.42298  0.42298  0.00000  0.15404
      16     H     0.42397  0.42397  0.00000  0.15205
      17     C     3.15144  3.15144  0.00000 -0.30288
      18     H     0.42319  0.42319  0.00000  0.15361
      19     H     0.42379  0.42379  0.00000  0.15242
      20     C     3.23935  3.23935  0.00000 -0.47871
      21     H     0.42294  0.42294  0.00000  0.15412
      22     H     0.42358  0.42358  0.00000  0.15283
      23     H     0.41925  0.41925  0.00000  0.16151
      24     H     0.42147  0.42147  0.00000  0.15706
      25     H     0.42172  0.42172  0.00000  0.15655
      26     C     3.09503  3.09503  0.00000 -0.19007
      27     H     0.41695  0.41695  0.00000  0.16611
      28     H     0.40655  0.40655  0.00000  0.18689
      29     H     0.40251  0.40251  0.00000  0.19499

   Total alpha = 44.00000, Total beta = 44.00000, Total charge =  0.00000
