                              Psi4 1.0.54 Driver

  ==> Input File <==

--------------------------------------------------------------------------
set {
	reference rhf
	basis cc-pvtz
}

set_num_threads( 4 )
memory 2 gb

molecule MOL {
0 1

H	 -1.646989	 -0.422435	 -1.103830
O	 -1.432053	 -0.565244	 -0.200812
C	 -0.727158	 0.534527	 0.310686
C	 0.680222	 0.664433	 -0.252229
H	 -1.306802	 1.408001	 0.044211
H	 -0.690821	 0.490158	 1.397609
C	 1.605391	 -0.489360	 0.123098
H	 0.615089	 0.745647	 -1.332226
H	 1.101414	 1.597893	 0.110950
H	 1.247627	 -1.432485	 -0.275204
H	 2.601435	 -0.332816	 -0.273062
H	 1.691776	 -0.589902	 1.200774

	symmetry c1
}
set optking {
	frozen_dihedral = ("
		1 2 3 4
	")
}

ee,wfn = optimize('scf', return_wfn=True)
oeprop( wfn, 'DIPOLE', 'QUADRUPOLE', 'MULLIKEN_CHARGES')
f=open( 'psi4out.xyz', 'w' )
f.write( "12  " )
f.write( str(ee) + "\n" )
f.write( MOL.save_string_xyz() )
f.close()
--------------------------------------------------------------------------

    Molecular point group: c1
  Charge       = 0
  Multiplicity = 1
  Basis Set: CC-PVTZ
  Basis Set:
  @DF-RHF Final Energy:  -193.18918000366207
    Total Energy =                       -193.1891800036621589
    Molecular point group: c1
  Basis Set: CC-PVTZ
  Basis Set:
  Basis Set: CC-PVTZ
  Basis Set:
  @DF-RHF Final Energy:  -193.18249010731432
    Total Energy =                       -193.1824901073143508
  Basis Set: CC-PVTZ
  Basis Set:
  Basis Set: CC-PVTZ
  Basis Set:
  @DF-RHF Final Energy:  -193.19071513174831
    Total Energy =                       -193.1907151317482203
  Basis Set: CC-PVTZ
  Basis Set:
  Basis Set: CC-PVTZ
  Basis Set:
  @DF-RHF Final Energy:  -193.19094816187871
    Total Energy =                       -193.1909481618787368
  Basis Set: CC-PVTZ
  Basis Set:
  Basis Set: CC-PVTZ
  Basis Set:
  @DF-RHF Final Energy:  -193.19095692726444
    Total Energy =                       -193.1909569272646081
  Basis Set: CC-PVTZ
  Basis Set:
  Basis Set: CC-PVTZ
  Basis Set:
  @DF-RHF Final Energy:  -193.19095828922528
    Total Energy =                       -193.1909582892253070
  Basis Set: CC-PVTZ
  Basis Set:
  Charge       = 0
  Multiplicity = 1
  Basis Set: CC-PVTZ
  Basis Set:

    Orbital Energies (a.u.)
    -----------------------

    Doubly Occupied:

       1A    -20.546883     2A    -11.266198     3A    -11.217475
       4A    -11.205500     5A     -1.364817     6A     -1.049631
       7A     -0.922010     8A     -0.814151     9A     -0.684560
      10A     -0.639432    11A     -0.623833    12A     -0.567605
      13A     -0.528788    14A     -0.523198    15A     -0.484598
      16A     -0.468144    17A     -0.433031

  @DF-RHF Final Energy:  -193.19095849943659

   => Energetics <=

    Nuclear Repulsion Energy =            133.1843626862391261
    One-Electron Energy =                -526.0709316695657662
    Two-Electron Energy =                 199.6956104838899932
    DFT Exchange-Correlation Energy =       0.0000000000000000
    Empirical Dispersion Energy =           0.0000000000000000
    PCM Polarization Energy =               0.0000000000000000
    EFP Energy =                            0.0000000000000000
    Total Energy =                       -193.1909584994366469
    Molecular point group: c1
  Basis Set: CC-PVTZ
  Basis Set:

  -Total Gradient:
     Atom            X                  Y                   Z
    ------   -----------------  -----------------  -----------------
       1       -0.000337432365     0.000165973830     0.000127860979
       2        0.000467188663    -0.000268823037    -0.000058785984
       3       -0.000244732277     0.000198678383    -0.000280484094
       4        0.000104736172    -0.000096870070     0.000229228439
       5        0.000014461916     0.000002175128     0.000005612090
       6        0.000001588659    -0.000003927619    -0.000011423139
       7        0.000000296854    -0.000005025603    -0.000006408918
       8        0.000004062521    -0.000005442739     0.000007748835
       9        0.000004961358     0.000000477984    -0.000002164582
      10        0.000002434066     0.000009071971     0.000002110596
      11       -0.000010674006    -0.000002053940     0.000004274733
      12       -0.000006891562     0.000005765713    -0.000017568954

  **** Optimization is complete! (in 7 steps) ****
    Final optimized geometry and variables:
    Molecular point group: c1

    Geometry (in Angstrom), charge = 0, multiplicity = 1:

    H           -1.652664871900    -0.729128999001    -0.836328935321
    O           -1.368684959267    -0.687569273915     0.058647190110
    C           -0.727086618555     0.536897385241     0.299877173382
    C            0.622883076855     0.652376635747    -0.391934124122
    H           -1.366267840249     1.364654031219     0.003630633132
    H           -0.598612945869     0.597902139318     1.373350071934
    C            1.631357021758    -0.396687866570     0.063084369846
    H            0.476734545130     0.580031640122    -1.467625949848
    H            1.014745632590     1.648321914461    -0.203978246464
    H            1.257291809397    -1.396912703891    -0.111875156112
    H            2.570417422920    -0.288662498868    -0.467153453704
    H            1.836824920995    -0.301169747326     1.124179127351

  Mulliken Charges: (a.u.)
   Center  Symbol    Alpha    Beta     Spin     Total
       1     H     0.39453  0.39453  0.00000  0.21093
       2     O     4.20378  4.20378  0.00000 -0.40756
       3     C     2.97493  2.97493  0.00000  0.05014
       4     C     3.08901  3.08901  0.00000 -0.17802
       5     H     0.46199  0.46199  0.00000  0.07601
       6     H     0.45972  0.45972  0.00000  0.08055
       7     C     3.14582  3.14582  0.00000 -0.29164
       8     H     0.46024  0.46024  0.00000  0.07951
       9     H     0.45508  0.45508  0.00000  0.08984
      10     H     0.44803  0.44803  0.00000  0.10393
      11     H     0.45060  0.45060  0.00000  0.09880
      12     H     0.45625  0.45625  0.00000  0.08750

   Total alpha = 17.00000, Total beta = 17.00000, Total charge =  0.00000

*** Psi4 exiting successfully. Buy a developer a beer!
