                              Psi4 1.0.54 Driver

  ==> Input File <==

--------------------------------------------------------------------------
set {
	reference rhf
	basis cc-pvtz
}

set_num_threads( 4 )
memory 2 gb

molecule MOL {
0 1

H	 -4.230259	 0.539112	 0.036360
O	 -3.515113	 -0.019339	 -0.206321
C	 -2.302264	 0.528872	 0.237390
C	 -1.175688	 -0.398187	 -0.171891
H	 -2.148018	 1.514076	 -0.197759
H	 -2.310727	 0.646384	 1.319032
C	 0.196029	 0.106276	 0.266738
H	 -1.201873	 -0.515469	 -1.250677
H	 -1.365975	 -1.378728	 0.252664
C	 1.330220	 -0.826136	 -0.155230
H	 0.359542	 1.097229	 -0.145561
H	 0.212134	 0.218135	 1.348778
C	 2.719700	 -0.407669	 0.328325
H	 1.339388	 -0.911200	 -1.239363
H	 1.119001	 -1.821953	 0.224128
C	 3.000576	 -0.705345	 1.799330
H	 2.832845	 0.659251	 0.162237
H	 3.474030	 -0.890660	 -0.287419
H	 2.257423	 -0.240427	 2.439359
H	 2.996407	 -1.768693	 2.006603
H	 3.971834	 -0.321731	 2.090311

	symmetry c1
}
set optking {
	frozen_dihedral = ("
		16 13 10 14
	")
}

ee,wfn = optimize('scf', return_wfn=True)
oeprop( wfn, 'DIPOLE', 'QUADRUPOLE', 'MULLIKEN_CHARGES')
f=open( 'psi4out.xyz', 'w' )
f.write( "21  " )
f.write( str(ee) + "\n" )
f.write( MOL.save_string_xyz() )
f.close()
--------------------------------------------------------------------------

    Molecular point group: c1
  Charge       = 0
  Multiplicity = 1
  Basis Set: CC-PVTZ
  Basis Set:
  @DF-RHF Final Energy:  -310.33230316521281
    Total Energy =                       -310.3323031652126929
    Molecular point group: c1
  Basis Set: CC-PVTZ
  Basis Set:
  Basis Set: CC-PVTZ
  Basis Set:
  @DF-RHF Final Energy:  -310.33261071299705
    Total Energy =                       -310.3326107129965976
  Basis Set: CC-PVTZ
  Basis Set:
  Basis Set: CC-PVTZ
  Basis Set:
  @DF-RHF Final Energy:  -310.33264569623009
    Total Energy =                       -310.3326456962304292
  Basis Set: CC-PVTZ
  Basis Set:
  Basis Set: CC-PVTZ
  Basis Set:
  @DF-RHF Final Energy:  -310.33264751479936
    Total Energy =                       -310.3326475147989072
  Basis Set: CC-PVTZ
  Basis Set:
  Charge       = 0
  Multiplicity = 1
  Basis Set: CC-PVTZ
  Basis Set:

    Orbital Energies (a.u.)
    -----------------------

    Doubly Occupied:

       1A    -20.545404     2A    -11.265022     3A    -11.213420
       4A    -11.212950     5A    -11.211109     6A    -11.208972
       7A    -11.206171     8A     -1.363258     9A     -1.087272
      10A     -1.034619    11A     -0.955918    12A     -0.874700
      13A     -0.806784    14A     -0.782178    15A     -0.696348
      16A     -0.662724    17A     -0.619914    18A     -0.611459
      19A     -0.588551    20A     -0.569198    21A     -0.538417
      22A     -0.521419    23A     -0.510654    24A     -0.487946
      25A     -0.480132    26A     -0.461936    27A     -0.455423
      28A     -0.444062    29A     -0.437406

  @DF-RHF Final Energy:  -310.33264762131307

   => Energetics <=

    Nuclear Repulsion Energy =            312.4569557524716856
    One-Electron Energy =               -1039.8724838390967307
    Two-Electron Energy =                 417.0828804653116890
    DFT Exchange-Correlation Energy =       0.0000000000000000
    Empirical Dispersion Energy =           0.0000000000000000
    PCM Polarization Energy =               0.0000000000000000
    EFP Energy =                            0.0000000000000000
    Total Energy =                       -310.3326476213133560
    Molecular point group: c1
  Basis Set: CC-PVTZ
  Basis Set:

  -Total Gradient:
     Atom            X                  Y                   Z
    ------   -----------------  -----------------  -----------------
       1       -0.000001643026     0.000000003434    -0.000001055457
       2       -0.000002130544     0.000000644284    -0.000003225548
       3        0.000004490407    -0.000003085684     0.000005232530
       4        0.000002176251    -0.000003429291     0.000000510112
       5       -0.000000324359     0.000000359727     0.000000291086
       6        0.000000635081     0.000001072340     0.000000502939
       7        0.000004058206     0.000001747645    -0.000012881845
       8        0.000003952751    -0.000000739426     0.000001659221
       9       -0.000002278973     0.000000034989     0.000001945134
      10       -0.000478923022     0.001725897775    -0.000311588470
      11       -0.000002894162     0.000001997113    -0.000001079200
      12        0.000006973003    -0.000004796247     0.000000571556
      13       -0.000635802117     0.001348424857     0.000540231049
      14        0.000561382718    -0.001807313542     0.000141871331
      15       -0.000007111576    -0.000007299056    -0.000000243092
      16        0.000543281676    -0.001252691276    -0.000364194932
      17        0.000005382849     0.000002904664    -0.000001432036
      18        0.000002722863    -0.000004384015     0.000005911452
      19       -0.000004562187     0.000002086248    -0.000004671394
      20        0.000001929375    -0.000002222913     0.000003395188
      21       -0.000001315219     0.000000788374    -0.000001749625

  **** Optimization is complete! (in 5 steps) ****
    Final optimized geometry and variables:
    Molecular point group: c1

    Geometry (in Angstrom), charge = 0, multiplicity = 1:

    H           -4.204614056548     0.726097664510    -0.295162667307
    O           -3.481623765221     0.179448658711    -0.541284612593
    C           -2.279827272140     0.724441787828    -0.064833093103
    C           -1.140030478548    -0.182982023195    -0.481404337489
    H           -2.126619959253     1.721948379638    -0.471374241734
    H           -2.305464790636     0.813116589714     1.019274564183
    C            0.221032654830     0.320888102905    -0.011041701635
    H           -1.150385815595    -0.273685238690    -1.562932581745
    H           -1.327753878475    -1.175242088908    -0.083713077812
    C            1.371436678146    -0.586246385174    -0.441671160302
    H            0.393243196685     1.320159092014    -0.404211435768
    H            0.213433817707     0.415970426573     1.071058242921
    C            2.754910090151    -0.119794918370     0.019939845519
    H            1.369564101481    -0.673952729698    -1.524196462153
    H            1.194108492002    -1.591627523571    -0.066594521769
    C            3.055136569712    -0.408576283951     1.488884070488
    H            2.863043040287     0.943758827145    -0.174590441452
    H            3.508124331714    -0.614622784351    -0.585238930259
    H            2.355384122115     0.087757555199     2.151571047583
    H            3.002632923276    -1.473165299007     1.691003287613
    H            4.050370786412    -0.070760969381     1.754708935024

  Mulliken Charges: (a.u.)
   Center  Symbol    Alpha    Beta     Spin     Total
       1     H     0.39761  0.39761  0.00000  0.20479
       2     O     4.19431  4.19431  0.00000 -0.38862
       3     C     2.96324  2.96324  0.00000  0.07351
       4     C     3.08438  3.08438  0.00000 -0.16876
       5     H     0.47486  0.47486  0.00000  0.05028
       6     H     0.47497  0.47497  0.00000  0.05005
       7     C     3.10141  3.10141  0.00000 -0.20281
       8     H     0.45072  0.45072  0.00000  0.09856
       9     H     0.45073  0.45073  0.00000  0.09855
      10     C     3.09405  3.09405  0.00000 -0.18811
      11     H     0.45542  0.45542  0.00000  0.08916
      12     H     0.45435  0.45435  0.00000  0.09130
      13     C     3.09019  3.09019  0.00000 -0.18038
      14     H     0.44796  0.44796  0.00000  0.10408
      15     H     0.45479  0.45479  0.00000  0.09041
      16     C     3.14920  3.14920  0.00000 -0.29840
      17     H     0.45559  0.45559  0.00000  0.08882
      18     H     0.44845  0.44845  0.00000  0.10310
      19     H     0.45549  0.45549  0.00000  0.08903
      20     H     0.45479  0.45479  0.00000  0.09042
      21     H     0.44749  0.44749  0.00000  0.10503

   Total alpha = 29.00000, Total beta = 29.00000, Total charge = -0.00000

*** Psi4 exiting successfully. Buy a developer a beer!
