  ==> Input File <==

--------------------------------------------------------------------------
set {
	reference rhf
	basis 6-31G*
}

set_num_threads( 4 )
memory 2 gb

molecule MOL {
0 1

H	 -3.892951	 0.981613	 -0.358725
C	 -3.196921	 0.361773	 0.172313
C	 -2.076860	 -0.007332	 -0.404944
H	 -3.439953	 0.057760	 1.173024
O	 -1.180634	 -0.819263	 0.215062
H	 -1.811520	 0.292194	 -1.403480
C	 0.051604	 -1.018856	 -0.387932
C	 1.043764	 0.054862	 -0.001873
H	 -0.017620	 -1.041351	 -1.469781
H	 0.437898	 -1.966374	 -0.042284
F	 1.635390	 -0.280018	 1.135510
F	 1.987470	 0.202951	 -0.916925
F	 0.464577	 1.224933	 0.170949

	symmetry c1
}
set optking {
	frozen_dihedral = ("
		11 8 7 9
	")
}

ee = optimize('scf')
oeprop('DIPOLE', 'QUADRUPOLE', 'MULLIKEN_CHARGES')
f=open( 'psi4out.xyz', 'w' )
f.write( "13  " )
f.write( str(ee) + "\n" )
f.write( MOL.save_string_xyz() )
f.close()
--------------------------------------------------------------------------

    Molecular point group: c1
  Charge       = 0
  Multiplicity = 1
  Basis Set: 6-31G*
  Basis Set:
  @DF-RHF Final Energy:  -527.53228830660305
    Total Energy =                       -527.5322883066035047
    Molecular point group: c1
  Basis Set: 6-31G*
  Basis Set:
  Basis Set: 6-31G*
  Basis Set:
  @DF-RHF Final Energy:  -527.53300590973299
    Total Energy =                       -527.5330059097327648
  Basis Set: 6-31G*
  Basis Set:
  Basis Set: 6-31G*
  Basis Set:
  @DF-RHF Final Energy:  -527.53316199272990
    Total Energy =                       -527.5331619927301290
  Basis Set: 6-31G*
  Basis Set:
  Basis Set: 6-31G*
  Basis Set:
  @DF-RHF Final Energy:  -527.53317962265817
    Total Energy =                       -527.5331796226579399
  Basis Set: 6-31G*
  Basis Set:
  Basis Set: 6-31G*
  Basis Set:
  @DF-RHF Final Energy:  -527.53318506660196
    Total Energy =                       -527.5331850666018454
  Basis Set: 6-31G*
  Basis Set:
  Basis Set: 6-31G*
  Basis Set:
  @DF-RHF Final Energy:  -527.53318896454675
    Total Energy =                       -527.5331889645473211
  Basis Set: 6-31G*
  Basis Set:
  Basis Set: 6-31G*
  Basis Set:
  @DF-RHF Final Energy:  -527.53319112522729
    Total Energy =                       -527.5331911252272903
  Basis Set: 6-31G*
  Basis Set:
  Charge       = 0
  Multiplicity = 1
  Basis Set: 6-31G*
  Basis Set:

    Orbital Energies (a.u.)
    -----------------------

    Doubly Occupied:

       1A    -26.345865     2A    -26.342290     3A    -26.340649
       4A    -20.608912     5A    -11.504072     6A    -11.318730
       7A    -11.299846     8A    -11.215871     9A     -1.742085
      10A     -1.641340    11A     -1.636616    12A     -1.438877
      13A     -1.083262    14A     -1.016076    15A     -0.925827
      16A     -0.837001    17A     -0.831234    18A     -0.821352
      19A     -0.789948    20A     -0.725741    21A     -0.713123
      22A     -0.695815    23A     -0.675126    24A     -0.660024
      25A     -0.654901    26A     -0.642907    27A     -0.631330
      28A     -0.584460    29A     -0.562276    30A     -0.525654
      31A     -0.513158    32A     -0.351516

  @DF-RHF Final Energy:  -527.53319195606673

   => Energetics <=

    Nuclear Repulsion Energy =            412.4122063488462686
    One-Electron Energy =               -1548.5390218451861983
    Two-Electron Energy =                 608.5936235402729153
    DFT Exchange-Correlation Energy =       0.0000000000000000
    Empirical Dispersion Energy =           0.0000000000000000
    PCM Polarization Energy =               0.0000000000000000
    EFP Energy =                            0.0000000000000000
    Total Energy =                       -527.5331919560670713
    Molecular point group: c1
  Basis Set: 6-31G*
  Basis Set:

  -Total Gradient:
     Atom            X                  Y                   Z
    ------   -----------------  -----------------  -----------------
       1        0.000000821207    -0.000004110910    -0.000001575249
       2        0.000007978870     0.000008113692     0.000000580290
       3       -0.000026657787    -0.000039420652     0.000025004852
       4        0.000004801600    -0.000000958377     0.000001322984
       5       -0.000046394002     0.000013605798     0.000018468715
       6        0.000009115439    -0.000004330312    -0.000020200892
       7       -0.003411141151     0.003569471296    -0.000673269574
       8       -0.003126893977     0.002205874061     0.002723954427
       9        0.003609900328    -0.003508915141    -0.000027097987
      10       -0.000020440866    -0.000010203073    -0.000009188325
      11        0.002982876723    -0.002203629359    -0.002060793596
      12       -0.000023703720    -0.000027862612     0.000023644009
      13        0.000039737336     0.000002365590    -0.000000849653

  **** Optimization is complete! (in 8 steps) ****
    Final optimized geometry and variables:
    Molecular point group: c1

    Geometry (in Angstrom), charge = 0, multiplicity = 1:

    H           -3.942025571711     0.965123831400    -0.355618461471
    C           -3.257523536777     0.322747100392     0.163447621649
    C           -2.093444186206     0.037315926973    -0.372538574495
    H           -3.546628732126    -0.069429170327     1.120393301378
    O           -1.201904562856    -0.785853018784     0.239058210365
    H           -1.782823001445     0.424830073906    -1.326684327478
    C            0.019384076801    -0.998645194729    -0.376422595197
    C            1.052949232447     0.053092257877    -0.006247562136
    H           -0.044924083418    -1.049222257835    -1.457107231937
    H            0.395489034238    -1.950058168250    -0.028833923435
    F            1.653593493588    -0.224354485079     1.136511668524
    F            1.998342798455     0.083187447654    -0.937610888830
    F            0.535715252682     1.261651880812     0.082243521498

  Mulliken Charges: (a.u.)
   Center  Symbol    Alpha    Beta     Spin     Total
       1     H     0.40706  0.40706  0.00000  0.18588
       2     C     3.23688  3.23688  0.00000 -0.47376
       3     C     2.89296  2.89296  0.00000  0.21408
       4     H     0.40206  0.40206  0.00000  0.19589
       5     O     4.30031  4.30031  0.00000 -0.60063
       6     H     0.40715  0.40715  0.00000  0.18571
       7     C     3.07427  3.07427  0.00000 -0.14854
       8     C     2.45041  2.45041  0.00000  1.09919
       9     H     0.40309  0.40309  0.00000  0.19381
      10     H     0.38774  0.38774  0.00000  0.22452
      11     F     4.67753  4.67753  0.00000 -0.35506
      12     F     4.68519  4.68519  0.00000 -0.37039
      13     F     4.67536  4.67536  0.00000 -0.35071

   Total alpha = 32.00000, Total beta = 32.00000, Total charge = -0.00000
