  ==> Input File <==

--------------------------------------------------------------------------
set {
	reference rhf
	basis 6-31G*
}

set_num_threads( 1 )
memory 2 gb

molecule MOL {
0 1

O	 -3.638428	 -0.348837	 0.494561
C	 -2.668563	 0.129746	 -0.000350
C	 -2.653618	 1.466209	 -0.696705
O	 -1.481751	 -0.454642	 0.000584
H	 -2.982193	 2.226278	 0.002004
H	 -1.672080	 1.713327	 -1.073472
H	 -3.365924	 1.441308	 -1.512721
C	 -0.334255	 0.388708	 0.000906
C	 0.891947	 -0.504646	 0.000751
H	 -0.365390	 1.025305	 -0.873475
H	 -0.365484	 1.024911	 0.875569
C	 2.191998	 0.301789	 0.000897
H	 0.855148	 -1.151283	 -0.871571
H	 0.855132	 -1.151660	 0.872805
C	 3.441114	 -0.581407	 0.000108
H	 2.215074	 0.954890	 -0.869742
H	 2.215465	 0.953923	 0.872248
C	 4.739576	 0.224112	 -0.001102
H	 3.419457	 -1.233487	 -0.870178
H	 3.420834	 -1.233096	 0.870717
H	 4.804918	 0.861552	 -0.878265
H	 5.606527	 -0.429058	 -0.001824
H	 4.806469	 0.861674	 0.875853

	symmetry c1
}
set optking {
	frozen_dihedral = ("
		13 9 8 10,
		2 4 8 10,
		16 12 9 13,
		19 15 12 16
	")
}

ee = energy('scf')
oeprop('DIPOLE', 'QUADRUPOLE', 'MULLIKEN_CHARGES')
f=open( 'psi4out.xyz', 'w' )
f.write( "23  " )
f.write( str(ee) + "\n" )
f.write( MOL.save_string_xyz() )
f.close()
--------------------------------------------------------------------------

    Molecular point group: c1

    Geometry (in Angstrom), charge = 0, multiplicity = 1:

       Center              X                  Y                   Z               Mass
    ------------   -----------------  -----------------  -----------------  -----------------
           O         -3.676873194174    -0.426877560828     0.517838548653    15.994914619560
           C         -2.707008194174     0.051705439172     0.022927548653    12.000000000000
           C         -2.692063194174     1.388168439172    -0.673427451347    12.000000000000
           O         -1.520196194174    -0.532682560828     0.023861548653    15.994914619560
           H         -3.020638194174     2.148237439172     0.025281548653     1.007825032070
           H         -1.710525194174     1.635286439172    -1.050194451347     1.007825032070
           H         -3.404369194174     1.363267439172    -1.489443451347     1.007825032070
           C         -0.372700194174     0.310667439172     0.024183548653    12.000000000000
           C          0.853501805826    -0.582686560828     0.024028548653    12.000000000000
           H         -0.403835194174     0.947264439172    -0.850197451347     1.007825032070
           H         -0.403929194174     0.946870439172     0.898846548653     1.007825032070
           C          2.153552805826     0.223748439172     0.024174548653    12.000000000000
           H          0.816702805826    -1.229323560828    -0.848293451347     1.007825032070
           H          0.816686805826    -1.229700560828     0.896082548653     1.007825032070
           C          3.402668805826    -0.659447560828     0.023385548653    12.000000000000
           H          2.176628805826     0.876849439172    -0.846464451347     1.007825032070
           H          2.177019805826     0.875882439172     0.895525548653     1.007825032070
           C          4.701130805826     0.146071439172     0.022175548653    12.000000000000
           H          3.381011805826    -1.311527560828    -0.846900451347     1.007825032070
           H          3.382388805826    -1.311136560828     0.893994548653     1.007825032070
           H          4.766472805826     0.783511439172    -0.854987451347     1.007825032070
           H          5.568081805826    -0.507098560828     0.021453548653     1.007825032070
           H          4.768023805826     0.783633439172     0.899130548653     1.007825032070

  Charge       = 0
  Multiplicity = 1
  Basis Set: 6-31G*
  Basis Set:

    Orbital Energies (a.u.)
    -----------------------

    Doubly Occupied:

       1A    -20.601811     2A    -20.541644     3A    -11.375760
       4A    -11.298305     5A    -11.233285     6A    -11.231839
       7A    -11.231043     8A    -11.226668     9A    -11.217348
      10A     -1.465999    11A     -1.366772    12A     -1.099953
      13A     -1.037595    14A     -1.018635    15A     -0.946667
      16A     -0.851465    17A     -0.810618    18A     -0.780761
      19A     -0.708699    20A     -0.696265    21A     -0.663086
      22A     -0.652109    23A     -0.619682    24A     -0.598524
      25A     -0.585371    26A     -0.574632    27A     -0.560306
      28A     -0.540228    29A     -0.525727    30A     -0.510628
      31A     -0.496749    32A     -0.482944    33A     -0.477068
      34A     -0.475810    35A     -0.448801    36A     -0.428728

  @DF-RHF Final Energy:  -422.94659326330566

   => Energetics <=

    Nuclear Repulsion Energy =            452.5350465957923234
    One-Electron Energy =               -1472.2004029808415453
    Two-Electron Energy =                 596.7187631217420858
    DFT Exchange-Correlation Energy =       0.0000000000000000
    Empirical Dispersion Energy =           0.0000000000000000
    PCM Polarization Energy =               0.0000000000000000
    EFP Energy =                            0.0000000000000000
    Total Energy =                       -422.9465932633071361

  Mulliken Charges: (a.u.)
   Center  Symbol    Alpha    Beta     Spin     Total
       1     O     4.26964  4.26964  0.00000 -0.53929
       2     C     2.60695  2.60695  0.00000  0.78609
       3     C     3.30798  3.30798  0.00000 -0.61596
       4     O     4.30605  4.30605  0.00000 -0.61211
       5     H     0.39473  0.39473  0.00000  0.21053
       6     H     0.41047  0.41047  0.00000  0.17907
       7     H     0.39230  0.39230  0.00000  0.21539
       8     C     3.00721  3.00721  0.00000 -0.01443
       9     C     3.16081  3.16081  0.00000 -0.32163
      10     H     0.41658  0.41658  0.00000  0.16684
      11     H     0.41330  0.41330  0.00000  0.17340
      12     C     3.16129  3.16129  0.00000 -0.32258
      13     H     0.41039  0.41039  0.00000  0.17922
      14     H     0.40787  0.40787  0.00000  0.18426
      15     C     3.15196  3.15196  0.00000 -0.30392
      16     H     0.42256  0.42256  0.00000  0.15489
      17     H     0.42138  0.42138  0.00000  0.15725
      18     C     3.24011  3.24011  0.00000 -0.48022
      19     H     0.42024  0.42024  0.00000  0.15952
      20     H     0.41949  0.41949  0.00000  0.16102
      21     H     0.42121  0.42121  0.00000  0.15757
      22     H     0.41667  0.41667  0.00000  0.16666
      23     H     0.42079  0.42079  0.00000  0.15842

   Total alpha = 36.00000, Total beta = 36.00000, Total charge =  0.00000
