  ==> Input File <==

--------------------------------------------------------------------------
set {
	reference rhf
	basis 6-31G*
}

set_num_threads( 4 )
memory 2 gb

molecule MOL {
0 1

O	 -0.682937	 1.318834	 -0.186099
C	 -0.860635	 0.152188	 -0.042321
C	 -2.173363	 -0.477127	 0.338347
O	 0.083258	 -0.765189	 -0.202595
H	 -2.477673	 -1.180929	 -0.427595
H	 -2.923125	 0.290956	 0.455536
H	 -2.058825	 -1.029004	 1.264191
C	 1.391937	 -0.334737	 -0.569838
C	 1.698419	 -0.660535	 -2.019863
H	 2.113311	 -0.785677	 0.094551
H	 1.381608	 0.733338	 -0.406717
H	 2.668287	 -0.254434	 -2.290360
H	 1.722145	 -1.731416	 -2.178037
H	 0.951818	 -0.224576	 -2.674799

	symmetry c1
}
set optking {
	frozen_dihedral = ("
		10 8 4 2
	")
}

ee = optimize('scf')
oeprop('DIPOLE', 'QUADRUPOLE', 'MULLIKEN_CHARGES')
f=open( 'psi4out.xyz', 'w' )
f.write( "14  " )
f.write( str(ee) + "\n" )
f.write( MOL.save_string_xyz() )
f.close()
--------------------------------------------------------------------------

    Molecular point group: c1
  Charge       = 0
  Multiplicity = 1
  Basis Set: 6-31G*
  Basis Set:
  @DF-RHF Final Energy:  -305.87269469640705
    Total Energy =                       -305.8726946964069384
    Molecular point group: c1
  Basis Set: 6-31G*
  Basis Set:
  Basis Set: 6-31G*
  Basis Set:
  @DF-RHF Final Energy:  -305.87391069622117
    Total Energy =                       -305.8739106962214009
  Basis Set: 6-31G*
  Basis Set:
  Basis Set: 6-31G*
  Basis Set:
  @DF-RHF Final Energy:  -305.87447181274524
    Total Energy =                       -305.8744718127452416
  Basis Set: 6-31G*
  Basis Set:
  Basis Set: 6-31G*
  Basis Set:
  @DF-RHF Final Energy:  -305.87447815501474
    Total Energy =                       -305.8744781550146854
  Basis Set: 6-31G*
  Basis Set:
  Basis Set: 6-31G*
  Basis Set:
  @DF-RHF Final Energy:  -305.87443638905921
    Total Energy =                       -305.8744363890590989
  Basis Set: 6-31G*
  Basis Set:
  Charge       = 0
  Multiplicity = 1
  Basis Set: 6-31G*
  Basis Set:

    Orbital Energies (a.u.)
    -----------------------

    Doubly Occupied:

       1A    -20.601312     2A    -20.544116     3A    -11.376409
       4A    -11.283925     5A    -11.232945     6A    -11.221566
       7A     -1.466125     8A     -1.363164     9A     -1.056516
      10A     -0.999353    11A     -0.879180    12A     -0.771712
      13A     -0.698138    14A     -0.682098    15A     -0.657108
      16A     -0.611981    17A     -0.583653    18A     -0.568007
      19A     -0.561388    20A     -0.528915    21A     -0.518723
      22A     -0.495096    23A     -0.448224    24A     -0.439971

  @DF-RHF Final Energy:  -305.87448119736428

   => Energetics <=

    Nuclear Repulsion Energy =            246.8525053235603082
    One-Electron Energy =                -906.2747252896890586
    Two-Electron Energy =                 353.5477387687643613
    DFT Exchange-Correlation Energy =       0.0000000000000000
    Empirical Dispersion Energy =           0.0000000000000000
    PCM Polarization Energy =               0.0000000000000000
    EFP Energy =                            0.0000000000000000
    Total Energy =                       -305.8744811973643891
    Molecular point group: c1
  Basis Set: 6-31G*
  Basis Set:

  -Total Gradient:
     Atom            X                  Y                   Z
    ------   -----------------  -----------------  -----------------
       1       -0.000105349753     0.000064387803    -0.000022428798
       2        0.000338511050     0.000048704311     0.001050677476
       3        0.000012042005     0.000010318355    -0.000031076824
       4       -0.000346461101     0.000050778539    -0.001279684436
       5        0.000000584839     0.000003614089    -0.000004773716
       6       -0.000002921390     0.000004739423    -0.000002540476
       7        0.000014265335     0.000008508287    -0.000004747849
       8        0.000182144217    -0.001003712658    -0.000441383892
       9        0.000005410392    -0.000039149998     0.000046519017
      10       -0.000091241239     0.000838049932     0.000695164350
      11       -0.000017604611    -0.000010435611    -0.000003773518
      12        0.000013492933     0.000008904934     0.000000512991
      13       -0.000001030476     0.000003562720    -0.000023086932
      14       -0.000001842203     0.000011729875     0.000020622608

  **** Optimization is complete! (in 6 steps) ****
    Final optimized geometry and variables:
    Molecular point group: c1

    Geometry (in Angstrom), charge = 0, multiplicity = 1:

    O           -0.644022823134     1.453715828838     0.279098713158
    C           -0.782701644765     0.280920415595     0.410907306104
    C           -2.071707964891    -0.390924819661     0.800373406172
    O            0.181774919983    -0.612473251033     0.230118578923
    H           -2.364632070206    -1.094640600183     0.029875914897
    H           -2.842169379926     0.353418130735     0.935147851910
    H           -1.929466122565    -0.949665783232     1.718151910077
    C            1.491647227098    -0.173042997902    -0.122574374036
    C            1.793485624178    -0.552640433154    -1.559138654645
    H            2.162940895579    -0.667520240916     0.566396638299
    H            1.562800038711     0.891695280600     0.027172077142
    H            2.811938612047    -0.273637542011    -1.810986475254
    H            1.683906875841    -1.621054715458    -1.707110422203
    H            1.122342970521    -0.039332828147    -2.238938451359

  Mulliken Charges: (a.u.)
   Center  Symbol    Alpha    Beta     Spin     Total
       1     O     4.28327  4.28327  0.00000 -0.56653
       2     C     2.62000  2.62000  0.00000  0.76000
       3     C     3.28211  3.28211  0.00000 -0.56422
       4     O     4.30789  4.30789  0.00000 -0.61579
       5     H     0.40056  0.40056  0.00000  0.19887
       6     H     0.39715  0.39715  0.00000  0.20569
       7     H     0.40043  0.40043  0.00000  0.19913
       8     C     3.01217  3.01217  0.00000 -0.02433
       9     C     3.24827  3.24827  0.00000 -0.49653
      10     H     0.41244  0.41244  0.00000  0.17512
      11     H     0.39479  0.39479  0.00000  0.21042
      12     H     0.41740  0.41740  0.00000  0.16521
      13     H     0.41254  0.41254  0.00000  0.17492
      14     H     0.41098  0.41098  0.00000  0.17804

   Total alpha = 24.00000, Total beta = 24.00000, Total charge = -0.00000
