  ==> Input File <==

--------------------------------------------------------------------------
set {
	reference rhf
	basis 6-31G*
}

set_num_threads( 4 )
memory 2 gb

molecule MOL {
0 1

H	 -2.499100	 -0.730091	 -0.745082
O	 -2.347518	 -0.290803	 0.079804
C	 -1.184022	 0.487508	 -0.006784
C	 0.062599	 -0.378592	 0.031606
H	 -1.176523	 1.099369	 -0.904519
H	 -1.187323	 1.153111	 0.844927
O	 0.927354	 0.067658	 -0.964808
H	 -0.203045	 -1.424924	 -0.131499
H	 0.525449	 -0.309304	 1.014232
C	 2.137822	 -0.617822	 -1.028254
H	 1.985769	 -1.675393	 -1.235747
H	 2.717706	 -0.183253	 -1.830618
H	 2.695884	 -0.525182	 -0.098859

	symmetry c1
}
set optking {
	frozen_dihedral = ("
		8 4 3 5
	")
}

ee = optimize('scf')
oeprop('DIPOLE', 'QUADRUPOLE', 'MULLIKEN_CHARGES')
f=open( 'psi4out.xyz', 'w' )
f.write( "13  " )
f.write( str(ee) + "\n" )
f.write( MOL.save_string_xyz() )
f.close()
--------------------------------------------------------------------------

    Molecular point group: c1
  Charge       = 0
  Multiplicity = 1
  Basis Set: 6-31G*
  Basis Set:
  @DF-RHF Final Energy:  -267.94512322071921
    Total Energy =                       -267.9451232207190969
    Molecular point group: c1
  Basis Set: 6-31G*
  Basis Set:
  Basis Set: 6-31G*
  Basis Set:
  @DF-RHF Final Energy:  -267.94563472414927
    Total Energy =                       -267.9456347241491017
  Basis Set: 6-31G*
  Basis Set:
  Basis Set: 6-31G*
  Basis Set:
  @DF-RHF Final Energy:  -267.94583332531124
    Total Energy =                       -267.9458333253111277
  Basis Set: 6-31G*
  Basis Set:
  Basis Set: 6-31G*
  Basis Set:
  @DF-RHF Final Energy:  -267.94583633655645
    Total Energy =                       -267.9458363365564537
  Basis Set: 6-31G*
  Basis Set:
  Charge       = 0
  Multiplicity = 1
  Basis Set: 6-31G*
  Basis Set:

    Orbital Energies (a.u.)
    -----------------------

    Doubly Occupied:

       1A    -20.562923     2A    -20.557720     3A    -11.271689
       4A    -11.270591     5A    -11.268994     6A     -1.388749
       7A     -1.363100     8A     -1.015861     9A     -0.914664
      10A     -0.842811    11A     -0.705539    12A     -0.677857
      13A     -0.658040    14A     -0.629518    15A     -0.607573
      16A     -0.565591    17A     -0.539101    18A     -0.491606
      19A     -0.483026    20A     -0.437691    21A     -0.420063

  @DF-RHF Final Energy:  -267.94583671034229

   => Energetics <=

    Nuclear Repulsion Energy =            190.1508597382741641
    One-Electron Energy =                -742.8479838812959315
    Two-Electron Energy =                 284.7512874326791916
    DFT Exchange-Correlation Energy =       0.0000000000000000
    Empirical Dispersion Energy =           0.0000000000000000
    PCM Polarization Energy =               0.0000000000000000
    EFP Energy =                            0.0000000000000000
    Total Energy =                       -267.9458367103425189
    Molecular point group: c1
  Basis Set: 6-31G*
  Basis Set:

  -Total Gradient:
     Atom            X                  Y                   Z
    ------   -----------------  -----------------  -----------------
       1       -0.000010611243    -0.000008614583    -0.000006157637
       2       -0.000017585860    -0.000018124044    -0.000012567213
       3       -0.001614712738    -0.002371588553    -0.000954602182
       4        0.000562491038     0.000867711535    -0.002920068861
       5        0.001299378561     0.001887030963     0.001305860858
       6        0.000008893411    -0.000005746963     0.000002989982
       7        0.000008794969    -0.000009487854     0.000003321038
       8       -0.000264703016    -0.000353428060     0.002611947122
       9        0.000000550452     0.000014549097    -0.000018805154
      10        0.000013008767     0.000002412276    -0.000006507229
      11        0.000001491357    -0.000000206918    -0.000003688981
      12        0.000006536243    -0.000004239768    -0.000001547990
      13        0.000006468056    -0.000000267126    -0.000000173753

  **** Optimization is complete! (in 5 steps) ****
    Final optimized geometry and variables:
    Molecular point group: c1

    Geometry (in Angstrom), charge = 0, multiplicity = 1:

    H           -2.421708004903    -0.582530296263    -0.309892216481
    O           -2.275073235841    -0.099999019537     0.491895010293
    C           -1.092361468578     0.643550941868     0.377997073766
    C            0.165404189222    -0.231850717649     0.391605432464
    H           -1.076216534721     1.251533829734    -0.521016353924
    H           -1.091268822343     1.321179726264     1.220723195526
    O            1.042385718091     0.220467901099    -0.594727928355
    H           -0.115134762135    -1.271509554475     0.224068535341
    H            0.650610769899    -0.196338470989     1.366005681319
    C            2.258242128245    -0.456942197043    -0.633984222146
    H            2.116764526591    -1.517035306850    -0.836383417886
    H            2.848096995479    -0.023742669802    -1.429904248037
    H            2.801120653205    -0.354797410389     0.303648182845

  Mulliken Charges: (a.u.)
   Center  Symbol    Alpha    Beta     Spin     Total
       1     H     0.28135  0.28135  0.00000  0.43731
       2     O     4.37081  4.37081  0.00000 -0.74162
       3     C     3.00852  3.00852  0.00000 -0.01705
       4     C     3.00439  3.00439  0.00000 -0.00878
       5     H     0.41318  0.41318  0.00000  0.17364
       6     H     0.41211  0.41211  0.00000  0.17577
       7     O     4.30745  4.30745  0.00000 -0.61491
       8     H     0.42708  0.42708  0.00000  0.14584
       9     H     0.42613  0.42613  0.00000  0.14774
      10     C     3.08093  3.08093  0.00000 -0.16185
      11     H     0.42902  0.42902  0.00000  0.14195
      12     H     0.41085  0.41085  0.00000  0.17831
      13     H     0.42818  0.42818  0.00000  0.14364

   Total alpha = 21.00000, Total beta = 21.00000, Total charge = -0.00000
