  ==> Input File <==

--------------------------------------------------------------------------
set {
	reference rhf
	basis 6-31G*
}

set_num_threads( 4 )
memory 2 gb

molecule MOL {
0 1

H	 -3.042581	 -0.665861	 0.004336
O	 -2.245037	 -1.176175	 0.000806
C	 -1.162163	 -0.365336	 0.001020
C	 -0.805725	 0.398082	 1.098050
C	 -0.403710	 -0.319818	 -1.162384
H	 -1.394166	 0.365893	 1.999533
C	 0.318413	 1.208016	 1.019110
H	 -0.710853	 -0.924220	 -1.996338
C	 0.717853	 0.487174	 -1.239655
H	 0.597132	 1.804817	 1.869512
C	 1.076100	 1.257855	 -0.133453
C	 1.557041	 0.519335	 -2.495772
H	 1.943426	 1.892604	 -0.180019
H	 1.842787	 1.534645	 -2.749316
H	 1.022539	 0.099548	 -3.339541
H	 2.470465	 -0.053782	 -2.363330

	symmetry c1
}
set optking {
	frozen_dihedral = ("
		5 3 2 1
	")
}

ee = optimize('scf')
oeprop('DIPOLE', 'QUADRUPOLE', 'MULLIKEN_CHARGES')
f=open( 'psi4out.xyz', 'w' )
f.write( "16  " )
f.write( str(ee) + "\n" )
f.write( MOL.save_string_xyz() )
f.close()
--------------------------------------------------------------------------

    Molecular point group: c1
  Charge       = 0
  Multiplicity = 1
  Basis Set: 6-31G*
  Basis Set:
  @DF-RHF Final Energy:  -344.59054225818164
    Total Energy =                       -344.5905422581817561
    Molecular point group: c1
  Basis Set: 6-31G*
  Basis Set:
  Basis Set: 6-31G*
  Basis Set:
  @DF-RHF Final Energy:  -344.59104755134183
    Total Energy =                       -344.5910475513420010
  Basis Set: 6-31G*
  Basis Set:
  Basis Set: 6-31G*
  Basis Set:
  @DF-RHF Final Energy:  -344.59109587300321
    Total Energy =                       -344.5910958730034395
  Basis Set: 6-31G*
  Basis Set:
  Basis Set: 6-31G*
  Basis Set:
  @DF-RHF Final Energy:  -344.59110080301321
    Total Energy =                       -344.5911008030132621
  Basis Set: 6-31G*
  Basis Set:
  @DF-RHF Final Energy:  -344.59110240551286
    Total Energy =                       -344.5911024055127996
  @DF-RHF Final Energy:  -344.59110357657562
    Total Energy =                       -344.5911035765757333
  @DF-RHF Final Energy:  -344.59110590082855
    Total Energy =                       -344.5911059008283814
  @DF-RHF Final Energy:  -344.59111262662401
    Total Energy =                       -344.5911126266239535
  @DF-RHF Final Energy:  -344.59112223601414
    Total Energy =                       -344.5911222360142574
  @DF-RHF Final Energy:  -344.59112495027676
    Total Energy =                       -344.5911249502771625
  @DF-RHF Final Energy:  -344.59112217688437
    Total Energy =                       -344.5911221768844257
  @DF-RHF Final Energy:  -344.59112839101510
    Total Energy =                       -344.5911283910153884
  Basis Set: 6-31G*
  Basis Set:
  @DF-RHF Final Energy:  -344.59113240467957
    Total Energy =                       -344.5911324046794562
  Basis Set: 6-31G*
  Basis Set:
  Basis Set: 6-31G*
  Basis Set:
  @DF-RHF Final Energy:  -344.59113460296504
    Total Energy =                       -344.5911346029649849
  Basis Set: 6-31G*
  Basis Set:
  Basis Set: 6-31G*
  Basis Set:
  @DF-RHF Final Energy:  -344.59113572929380
    Total Energy =                       -344.5911357292936827
  Basis Set: 6-31G*
  Basis Set:
  Charge       = 0
  Multiplicity = 1
  Basis Set: 6-31G*
  Basis Set:

    Orbital Energies (a.u.)
    -----------------------

    Doubly Occupied:

       1A    -20.575906     2A    -11.287569     3A    -11.241027
       4A    -11.232980     5A    -11.222563     6A    -11.221604
       7A    -11.221431     8A    -11.219376     9A     -1.391093
      10A     -1.149870    11A     -1.043034    12A     -1.003503
      13A     -0.936087    14A     -0.825286    15A     -0.809667
      16A     -0.714148    17A     -0.676550    18A     -0.654225
      19A     -0.617631    20A     -0.588846    21A     -0.574656
      22A     -0.568010    23A     -0.550873    24A     -0.510199
      25A     -0.504181    26A     -0.480234    27A     -0.462481
      28A     -0.328068    29A     -0.317950

  @DF-RHF Final Energy:  -344.59113589943973

   => Energetics <=

    Nuclear Repulsion Energy =            345.0313348916129712
    One-Electron Energy =               -1151.3868455793458452
    Two-Electron Energy =                 461.7643747882933667
    DFT Exchange-Correlation Energy =       0.0000000000000000
    Empirical Dispersion Energy =           0.0000000000000000
    PCM Polarization Energy =               0.0000000000000000
    EFP Energy =                            0.0000000000000000
    Total Energy =                       -344.5911358994395641
    Molecular point group: c1
  Basis Set: 6-31G*
  Basis Set:

  -Total Gradient:
     Atom            X                  Y                   Z
    ------   -----------------  -----------------  -----------------
       1       -0.000030033673    -0.000076856700    -0.001502328839
       2       -0.000317911511     0.000456681283     0.001653961989
       3        0.001031800685    -0.001159994697     0.000276764437
       4       -0.000018215927    -0.000006216523    -0.000002047380
       5       -0.000662299973     0.000757046970    -0.000422115905
       6       -0.000000573795     0.000002112757    -0.000000520310
       7        0.000010045054    -0.000011328315    -0.000003652119
       8       -0.000007436721     0.000011047197     0.000002164641
       9       -0.000016581238     0.000053733037    -0.000008013348
      10       -0.000000714809     0.000000729968    -0.000000822709
      11        0.000007414165    -0.000011433056     0.000010952483
      12       -0.000001087198     0.000014249950    -0.000002429907
      13       -0.000007869160     0.000004931842    -0.000007523613
      14        0.000000049957    -0.000011855627     0.000001771765
      15        0.000006297324    -0.000008694122     0.000004205396
      16        0.000007116819    -0.000014153962    -0.000000366584

  **** Optimization is complete! (in 16 steps) ****
    Final optimized geometry and variables:
    Molecular point group: c1

    Geometry (in Angstrom), charge = 0, multiplicity = 1:

    H           -2.855464335283    -0.979471300920     0.436890603565
    O           -2.040922574500    -1.463683633707     0.447680698043
    C           -0.979117349381    -0.600701462050     0.384682073856
    C           -0.657935342540     0.200433301699     1.469472613092
    C           -0.219202416408    -0.558324515675    -0.768830714186
    H           -1.251604601307     0.147939090655     2.364350750204
    C            0.432104792235     1.046502983380     1.379963871396
    H           -0.496766215588    -1.194263224360    -1.590538151543
    C            0.885293626810     0.282845308140    -0.859919941128
    H            0.688781317848     1.673898295285     2.215064118129
    C            1.199684060000     1.089163732894     0.225742100602
    C            1.726458549245     0.298468649762    -2.115288126346
    H            2.046043757624     1.751097932424     0.173008903968
    H            2.374924204321     1.166302605711    -2.144356123435
    H            1.105505019962     0.313670104623    -3.004789875414
    H            2.354498702783    -0.586276720884    -2.170987554493

  Mulliken Charges: (a.u.)
   Center  Symbol    Alpha    Beta     Spin     Total
       1     H     0.27171  0.27171  0.00000  0.45657
       2     O     4.38831  4.38831  0.00000 -0.77662
       3     C     2.81244  2.81244  0.00000  0.37511
       4     C     3.12751  3.12751  0.00000 -0.25502
       5     C     3.13077  3.13077  0.00000 -0.26155
       6     H     0.39742  0.39742  0.00000  0.20516
       7     C     3.09252  3.09252  0.00000 -0.18504
       8     H     0.39585  0.39585  0.00000  0.20831
       9     C     2.97486  2.97486  0.00000  0.05027
      10     H     0.39861  0.39861  0.00000  0.20278
      11     C     3.12066  3.12066  0.00000 -0.24133
      12     C     3.25362  3.25362  0.00000 -0.50724
      13     H     0.40238  0.40238  0.00000  0.19525
      14     H     0.41295  0.41295  0.00000  0.17410
      15     H     0.41197  0.41197  0.00000  0.17605
      16     H     0.40840  0.40840  0.00000  0.18320

   Total alpha = 29.00000, Total beta = 29.00000, Total charge = -0.00000
