                              Psi4 1.0.54 Driver

  ==> Input File <==

--------------------------------------------------------------------------
set {
	reference rhf
	basis cc-pvtz
}

set_num_threads( 4 )
memory 2 gb

molecule MOL {
0 1

H	 -2.578939	 0.733823	 -0.882690
C	 -1.774556	 1.324580	 -1.300057
C	 -0.481641	 0.525633	 -1.353621
H	 -1.661706	 2.204638	 -0.681205
H	 -2.062543	 1.640549	 -2.295613
C	 0.000000	 0.039916	 0.000014
H	 0.317896	 1.113843	 -1.795941
H	 -0.591328	 -0.344188	 -1.995705
C	 1.286532	 -0.763243	 0.000268
O	 -0.595055	 0.274646	 1.000609
C	 2.547023	 0.087626	 -0.000114
H	 1.264245	 -1.421103	 -0.864380
H	 1.264290	 -1.420353	 0.865489
H	 2.584452	 0.725630	 -0.872909
H	 3.427035	 -0.544422	 0.000125
H	 2.584484	 0.726356	 0.872143

	symmetry c1
}
set optking {
	frozen_dihedral = ("
		3 6 9 12
	")
}

ee,wfn = optimize('scf', return_wfn=True)
oeprop( wfn, 'DIPOLE', 'QUADRUPOLE', 'MULLIKEN_CHARGES')
f=open( 'psi4out.xyz', 'w' )
f.write( "16  " )
f.write( str(ee) + "\n" )
f.write( MOL.save_string_xyz() )
f.close()
--------------------------------------------------------------------------

    Molecular point group: c1
  Charge       = 0
  Multiplicity = 1
  Basis Set: CC-PVTZ
  Basis Set:
  @DF-RHF Final Energy:  -270.12897137680596
    Total Energy =                       -270.1289713768056799
    Molecular point group: c1
  Basis Set: CC-PVTZ
  Basis Set:
  Basis Set: CC-PVTZ
  Basis Set:
  @DF-RHF Final Energy:  -270.12185257158552
    Total Energy =                       -270.1218525715854639
  Basis Set: CC-PVTZ
  Basis Set:
  Basis Set: CC-PVTZ
  Basis Set:
  @DF-RHF Final Energy:  -270.12950647271009
    Total Energy =                       -270.1295064727103181
  Basis Set: CC-PVTZ
  Basis Set:
  Basis Set: CC-PVTZ
  Basis Set:
  @DF-RHF Final Energy:  -270.11957217743782
    Total Energy =                       -270.1195721774380445
  Basis Set: CC-PVTZ
  Basis Set:
  @DF-RHF Final Energy:  -270.12002947463805
    Total Energy =                       -270.1200294746378177
  @DF-RHF Final Energy:  -270.12851245423576
    Total Energy =                       -270.1285124542356471
  Basis Set: CC-PVTZ
  Basis Set:
  @DF-RHF Final Energy:  -270.12946562520216
    Total Energy =                       -270.1294656252022151
  Basis Set: CC-PVTZ
  Basis Set:
  Basis Set: CC-PVTZ
  Basis Set:
  @DF-RHF Final Energy:  -270.12968718902050
    Total Energy =                       -270.1296871890210127
  Basis Set: CC-PVTZ
  Basis Set:
  Basis Set: CC-PVTZ
  Basis Set:
  @DF-RHF Final Energy:  -270.12969717492808
    Total Energy =                       -270.1296971749279692
  Basis Set: CC-PVTZ
  Basis Set:
  Charge       = 0
  Multiplicity = 1
  Basis Set: CC-PVTZ
  Basis Set:

    Orbital Energies (a.u.)
    -----------------------

    Doubly Occupied:

       1A    -20.537876     2A    -11.317054     3A    -11.232263
       4A    -11.230590     5A    -11.226808     6A    -11.211664
       7A     -1.397762     8A     -1.073009     9A     -1.037133
      10A     -0.912145    11A     -0.858510    12A     -0.727546
      13A     -0.665381    14A     -0.643893    15A     -0.626644
      16A     -0.605728    17A     -0.565064    18A     -0.541264
      19A     -0.534437    20A     -0.511191    21A     -0.504197
      22A     -0.499089    23A     -0.481971    24A     -0.398482

  @DF-RHF Final Energy:  -270.12969762119747

   => Energetics <=

    Nuclear Repulsion Energy =            241.0043432455850905
    One-Electron Energy =                -843.5886764571371259
    Two-Electron Energy =                 332.4546355903543144
    DFT Exchange-Correlation Energy =       0.0000000000000000
    Empirical Dispersion Energy =           0.0000000000000000
    PCM Polarization Energy =               0.0000000000000000
    EFP Energy =                            0.0000000000000000
    Total Energy =                       -270.1296976211976926
    Molecular point group: c1
  Basis Set: CC-PVTZ
  Basis Set:

  -Total Gradient:
     Atom            X                  Y                   Z
    ------   -----------------  -----------------  -----------------
       1       -0.000005272885     0.000002288994     0.000005115531
       2       -0.000018727740    -0.000024103948     0.000021972436
       3        0.000302564105     0.000754411256    -0.000276023044
       4        0.000007221043     0.000005473851    -0.000004011508
       5        0.000002444895     0.000001555617    -0.000004443326
       6       -0.000401965216    -0.001151730807     0.000597292443
       7       -0.000001859746    -0.000014775679     0.000002161437
       8       -0.000005128585    -0.000010804943     0.000024778610
       9        0.000249013975     0.000988785315    -0.001204916387
      10       -0.000029483417    -0.000004315273    -0.000021941773
      11        0.000008375852    -0.000007884359     0.000004616290
      12       -0.000111765138    -0.000552801339     0.000862610416
      13       -0.000000980970     0.000005484641    -0.000002991871
      14        0.000002290826     0.000003400309    -0.000000634292
      15        0.000000694075     0.000002626201    -0.000001735107
      16        0.000002578922     0.000002390167    -0.000001849850

  **** Optimization is complete! (in 10 steps) ****
    Final optimized geometry and variables:
    Molecular point group: c1

    Geometry (in Angstrom), charge = 0, multiplicity = 1:

    H           -2.816647109995     0.186262798440     0.220714467033
    C           -2.266004258234     0.546799787433    -0.637174133415
    C           -0.973555581249    -0.232905641259    -0.821596834128
    H           -2.065467296965     1.598287589245    -0.477422795656
    H           -2.893535811513     0.448596466648    -1.514952769574
    C           -0.038279120219    -0.169665218821     0.369446518089
    H           -0.434040407019     0.108921467538    -1.699414678303
    H           -1.181790559291    -1.285181216469    -1.001748954883
    C            1.343830593441    -0.769997159362     0.195126717236
    O           -0.359912281425     0.336625937437     1.395134140942
    C            2.307408004812     0.203066944283    -0.491033960558
    H            1.275471719961    -1.690418603581    -0.375323312584
    H            1.713385718249    -1.013854137516     1.181744584484
    H            1.981912271627     0.456643205706    -1.492797861476
    H            3.292832381556    -0.238633568270    -0.567640703963
    H            2.393942654736     1.119909905037     0.078767237372

  Mulliken Charges: (a.u.)
   Center  Symbol    Alpha    Beta     Spin     Total
       1     H     0.44572  0.44572  0.00000  0.10856
       2     C     3.14123  3.14123  0.00000 -0.28247
       3     C     3.10617  3.10617  0.00000 -0.21234
       4     H     0.44957  0.44957  0.00000  0.10087
       5     H     0.45078  0.45078  0.00000  0.09844
       6     C     2.86235  2.86235  0.00000  0.27530
       7     H     0.44531  0.44531  0.00000  0.10937
       8     H     0.44534  0.44534  0.00000  0.10932
       9     C     3.09519  3.09519  0.00000 -0.19037
      10     O     4.17582  4.17582  0.00000 -0.35164
      11     C     3.15114  3.15114  0.00000 -0.30229
      12     H     0.45039  0.45039  0.00000  0.09922
      13     H     0.43777  0.43777  0.00000  0.12447
      14     H     0.45365  0.45365  0.00000  0.09270
      15     H     0.44500  0.44500  0.00000  0.10999
      16     H     0.44457  0.44457  0.00000  0.11086

   Total alpha = 24.00000, Total beta = 24.00000, Total charge = -0.00000

*** Psi4 exiting successfully. Buy a developer a beer!
