  ==> Input File <==

--------------------------------------------------------------------------
set {
	reference rhf
	basis 6-31G*
}

set_num_threads( 4 )
memory 2 gb

molecule MOL {
0 1

O	 1.493681	 -0.142952	 -0.704359
C	 0.576249	 0.131685	 -0.000108
C	 -0.766779	 -0.556801	 -0.000461
O	 0.617536	 1.105126	 0.900653
C	 -1.945214	 0.412366	 0.000161
H	 -0.796911	 -1.211249	 -0.867467
H	 -0.796854	 -1.212390	 0.865687
C	 -3.287791	 -0.317055	 0.000105
H	 -1.876087	 1.060580	 -0.866812
H	 -1.875822	 1.059691	 0.867761
H	 -3.394745	 -0.949193	 -0.877058
H	 -4.111778	 0.388953	 0.000015
H	 -3.394954	 -0.949187	 0.877259
C	 1.827086	 1.834169	 1.004060
H	 2.643214	 1.179747	 1.274631
H	 1.663937	 2.568074	 1.777773
H	 2.058123	 2.321818	 0.067935

	symmetry c1
}
set optking {
	frozen_dihedral = ("
		1 2 3 6
	")
}

ee = optimize('scf')
oeprop('DIPOLE', 'QUADRUPOLE', 'MULLIKEN_CHARGES')
f=open( 'psi4out.xyz', 'w' )
f.write( "17  " )
f.write( str(ee) + "\n" )
f.write( MOL.save_string_xyz() )
f.close()
--------------------------------------------------------------------------

    Molecular point group: c1
  Charge       = 0
  Multiplicity = 1
  Basis Set: 6-31G*
  Basis Set:
  @DF-RHF Final Energy:  -344.90486658889239
    Total Energy =                       -344.9048665888925029
    Molecular point group: c1
  Basis Set: 6-31G*
  Basis Set:
  Basis Set: 6-31G*
  Basis Set:
  @DF-RHF Final Energy:  -344.90390203663333
    Total Energy =                       -344.9039020366333261
  Basis Set: 6-31G*
  Basis Set:
  Basis Set: 6-31G*
  Basis Set:
  @DF-RHF Final Energy:  -344.90505318271101
    Total Energy =                       -344.9050531827111286
  Basis Set: 6-31G*
  Basis Set:
  Basis Set: 6-31G*
  Basis Set:
  @DF-RHF Final Energy:  -344.90529281458868
    Total Energy =                       -344.9052928145883925
  Basis Set: 6-31G*
  Basis Set:
  Basis Set: 6-31G*
  Basis Set:
  @DF-RHF Final Energy:  -344.90529481991592
    Total Energy =                       -344.9052948199163211
  Basis Set: 6-31G*
  Basis Set:
  Charge       = 0
  Multiplicity = 1
  Basis Set: 6-31G*
  Basis Set:

    Orbital Energies (a.u.)
    -----------------------

    Doubly Occupied:

       1A    -20.605076     2A    -20.543767     3A    -11.371805
       4A    -11.281440     5A    -11.235402     6A    -11.229325
       7A    -11.217886     8A     -1.469629     9A     -1.361783
      10A     -1.083938    11A     -0.998333    12A     -0.942201
      13A     -0.831342    14A     -0.774595    15A     -0.696847
      16A     -0.681195    17A     -0.672433    18A     -0.637677
      19A     -0.595971    20A     -0.576203    21A     -0.552708
      22A     -0.541393    23A     -0.524960    24A     -0.511204
      25A     -0.489426    26A     -0.482186    27A     -0.455280
      28A     -0.431417

  @DF-RHF Final Energy:  -344.90529541353021

   => Energetics <=

    Nuclear Repulsion Energy =            314.2388625855558075
    One-Electron Energy =               -1092.6974717186703856
    Two-Electron Energy =                 433.5533137195838549
    DFT Exchange-Correlation Energy =       0.0000000000000000
    Empirical Dispersion Energy =           0.0000000000000000
    PCM Polarization Energy =               0.0000000000000000
    EFP Energy =                            0.0000000000000000
    Total Energy =                       -344.9052954135307232
    Molecular point group: c1
  Basis Set: 6-31G*
  Basis Set:

  -Total Gradient:
     Atom            X                  Y                   Z
    ------   -----------------  -----------------  -----------------
       1        0.000256991161    -0.000484201567     0.000579062961
       2       -0.000428976584     0.000789357616    -0.000920933500
       3        0.000453642367    -0.000850932961     0.000745288329
       4        0.000018411521     0.000022581838     0.000013563380
       5        0.000023532511    -0.000037783216     0.000001058706
       6       -0.000293742534     0.000558306781    -0.000410973175
       7       -0.000000550515    -0.000009944029     0.000006545662
       8       -0.000015691836     0.000011316211    -0.000004368262
       9       -0.000007242717    -0.000008039034    -0.000000248396
      10        0.000001919793     0.000003675629    -0.000001738324
      11       -0.000003629999     0.000004109232    -0.000002992585
      12       -0.000009878473    -0.000002811769     0.000005141794
      13        0.000013127776     0.000001841776    -0.000005424949
      14       -0.000022140836     0.000000300066    -0.000012320336
      15        0.000003317094    -0.000002514345     0.000002401773
      16        0.000004604107     0.000001166503     0.000003116875
      17        0.000006307160     0.000003571269     0.000002820045

  **** Optimization is complete! (in 6 steps) ****
    Final optimized geometry and variables:
    Molecular point group: c1

    Geometry (in Angstrom), charge = 0, multiplicity = 1:

    O            1.662143367074    -0.509863151055    -0.889049648779
    C            0.757558267324    -0.216153267564    -0.175402518344
    C           -0.583562832827    -0.909309060181    -0.160323147549
    O            0.835168733877     0.751328699266     0.729195995627
    C           -1.787097322986     0.039926268672    -0.171811813250
    H           -0.604245032613    -1.567878210557    -1.019198945394
    H           -0.614812795893    -1.529351570890     0.732515820040
    C           -3.111198703976    -0.721552016327    -0.206185695481
    H           -1.722518203409     0.692495846083    -1.038744873358
    H           -1.751588495061     0.679045504700     0.702413735731
    H           -3.184864902475    -1.346092687107    -1.091591526524
    H           -3.952263017183    -0.035959270446    -0.213658271171
    H           -3.216455418700    -1.364922352643     0.662776550184
    C            2.063860496568     1.449905098761     0.818621011284
    H            2.865931459688     0.774495868840     1.079120191437
    H            1.928277816068     2.187165305752     1.594516140366
    H            2.295787737828     1.931684600510    -0.120155913252

  Mulliken Charges: (a.u.)
   Center  Symbol    Alpha    Beta     Spin     Total
       1     O     4.28663  4.28663  0.00000 -0.57326
       2     C     2.61124  2.61124  0.00000  0.77752
       3     C     3.20049  3.20049  0.00000 -0.40097
       4     O     4.30259  4.30259  0.00000 -0.60518
       5     C     3.16010  3.16010  0.00000 -0.32021
       6     H     0.39838  0.39838  0.00000  0.20324
       7     H     0.40321  0.40321  0.00000  0.19359
       8     C     3.24190  3.24190  0.00000 -0.48379
       9     H     0.41623  0.41623  0.00000  0.16754
      10     H     0.40672  0.40672  0.00000  0.18655
      11     H     0.41887  0.41887  0.00000  0.16226
      12     H     0.41539  0.41539  0.00000  0.16922
      13     H     0.41993  0.41993  0.00000  0.16015
      14     C     3.09231  3.09231  0.00000 -0.18462
      15     H     0.40868  0.40868  0.00000  0.18264
      16     H     0.40877  0.40877  0.00000  0.18245
      17     H     0.40856  0.40856  0.00000  0.18287

   Total alpha = 28.00000, Total beta = 28.00000, Total charge = -0.00000
