  ==> Input File <==

--------------------------------------------------------------------------
set {
	reference rhf
	basis 6-31G*
}

set_num_threads( 1 )
memory 2 gb

molecule MOL {
0 1

O	 0.074228	 1.262779	 -0.000085
C	 0.028650	 0.075053	 -0.000277
C	 -1.233602	 -0.752807	 0.000328
O	 1.109162	 -0.694619	 -0.000298
C	 -2.501530	 0.091881	 0.000126
H	 -1.193807	 -1.406641	 -0.865785
H	 -1.193516	 -1.405779	 0.867015
H	 -2.545121	 0.729328	 -0.874513
H	 -3.377167	 -0.548497	 0.000561
H	 -2.544818	 0.730135	 0.874258
C	 2.353562	 -0.055247	 -0.219979
H	 2.365874	 0.430257	 -1.185146
H	 3.096854	 -0.836358	 -0.184668
H	 2.544615	 0.678804	 0.549526

	symmetry c1
}
set optking {
	frozen_dihedral = ("
		4 2 3 6
	")
}

ee = energy('scf')
oeprop('DIPOLE', 'QUADRUPOLE', 'MULLIKEN_CHARGES')
f=open( 'psi4out.xyz', 'w' )
f.write( "14  " )
f.write( str(ee) + "\n" )
f.write( MOL.save_string_xyz() )
f.close()
--------------------------------------------------------------------------

    Molecular point group: c1

    Geometry (in Angstrom), charge = 0, multiplicity = 1:

       Center              X                  Y                   Z               Mass
    ------------   -----------------  -----------------  -----------------  -----------------
           O          0.076228882072     1.265587160320     0.039310946629    15.994914619560
           C          0.030650882072     0.077861160320     0.039118946629    12.000000000000
           C         -1.231601117928    -0.749998839680     0.039723946629    12.000000000000
           O          1.111162882072    -0.691810839680     0.039097946629    15.994914619560
           C         -2.499529117928     0.094689160320     0.039521946629    12.000000000000
           H         -1.191806117928    -1.403832839680    -0.826389053371     1.007825032070
           H         -1.191515117928    -1.402970839680     0.906410946629     1.007825032070
           H         -2.543120117928     0.732136160320    -0.835117053371     1.007825032070
           H         -3.375166117928    -0.545688839680     0.039956946629     1.007825032070
           H         -2.542817117928     0.732943160320     0.913653946629     1.007825032070
           C          2.355562882072    -0.052438839680    -0.180583053371    12.000000000000
           H          2.367874882072     0.433065160320    -1.145750053371     1.007825032070
           H          3.098854882072    -0.833549839680    -0.145272053371     1.007825032070
           H          2.546615882072     0.681612160320     0.588921946629     1.007825032070

  Charge       = 0
  Multiplicity = 1
  Basis Set: 6-31G*
  Basis Set:

    Orbital Energies (a.u.)
    -----------------------

    Doubly Occupied:

       1A    -20.603982     2A    -20.546532     3A    -11.372988
       4A    -11.281757     5A    -11.238781     6A    -11.216671
       7A     -1.470076     8A     -1.363800     9A     -1.064391
      10A     -0.980372    11A     -0.878574    12A     -0.768917
      13A     -0.700782    14A     -0.682720    15A     -0.671735
      16A     -0.621279    17A     -0.602884    18A     -0.544617
      19A     -0.537532    20A     -0.522097    21A     -0.513932
      22A     -0.496364    23A     -0.457170    24A     -0.439157

  @DF-RHF Final Energy:  -305.87154657245162

   => Energetics <=

    Nuclear Repulsion Energy =            247.1315111675838523
    One-Electron Energy =                -906.8519446214663731
    Two-Electron Energy =                 353.8488868814303032
    DFT Exchange-Correlation Energy =       0.0000000000000000
    Empirical Dispersion Energy =           0.0000000000000000
    PCM Polarization Energy =               0.0000000000000000
    EFP Energy =                            0.0000000000000000
    Total Energy =                       -305.8715465724521891

  Mulliken Charges: (a.u.)
   Center  Symbol    Alpha    Beta     Spin     Total
       1     O     4.28465  4.28465  0.00000 -0.56930
       2     C     2.60824  2.60824  0.00000  0.78353
       3     C     3.20524  3.20524  0.00000 -0.41048
       4     O     4.30607  4.30607  0.00000 -0.61214
       5     C     3.23900  3.23900  0.00000 -0.47800
       6     H     0.40072  0.40072  0.00000  0.19857
       7     H     0.39978  0.39978  0.00000  0.20045
       8     H     0.41005  0.41005  0.00000  0.17990
       9     H     0.41791  0.41791  0.00000  0.16417
      10     H     0.40964  0.40964  0.00000  0.18072
      11     C     3.09264  3.09264  0.00000 -0.18527
      12     H     0.41118  0.41118  0.00000  0.17764
      13     H     0.40824  0.40824  0.00000  0.18351
      14     H     0.40664  0.40664  0.00000  0.18671

   Total alpha = 24.00000, Total beta = 24.00000, Total charge =  0.00000
