                              Psi4 1.0.54 Driver

  ==> Input File <==

--------------------------------------------------------------------------
set {
	reference rhf
	basis cc-pvtz
}

set_num_threads( 4 )
memory 2 gb

molecule MOL {
0 1

H	 -3.294565	 0.569785	 0.000000
C	 -2.246225	 0.343737	 0.000000
C	 -1.809462	 -0.973484	 0.000000
C	 -1.312577	 1.353775	 0.000000
H	 -2.523539	 -1.775124	 0.000000
C	 -0.467257	 -1.267606	 0.000000
H	 -1.631287	 2.379013	 0.000000
C	 0.046966	 1.074396	 0.000000
H	 -0.119372	 -2.281828	 0.000000
C	 0.471772	 -0.241514	 0.000000
H	 0.748162	 1.882966	 0.000000
O	 1.760432	 -0.625184	 0.000000
C	 2.650306	 -0.079118	 -0.926335
H	 2.351926	 -0.303209	 -1.944402
H	 3.608895	 -0.534060	 -0.732682
H	 2.738459	 0.995068	 -0.807760

	symmetry c1
}
set optking {
	frozen_dihedral = ("
		13 12 10 8
	")
}

ee,wfn = optimize('scf', return_wfn=True)
oeprop( wfn, 'DIPOLE', 'QUADRUPOLE', 'MULLIKEN_CHARGES')
f=open( 'psi4out.xyz', 'w' )
f.write( "16  " )
f.write( str(ee) + "\n" )
f.write( MOL.save_string_xyz() )
f.close()
--------------------------------------------------------------------------

    Molecular point group: c1
  Charge       = 0
  Multiplicity = 1
  Basis Set: CC-PVTZ
  Basis Set:
  @DF-RHF Final Energy:  -344.70037960716144
    Total Energy =                       -344.7003796071617217
    Molecular point group: c1
  Basis Set: CC-PVTZ
  Basis Set:
  Basis Set: CC-PVTZ
  Basis Set:
  @DF-RHF Final Energy:  -344.70039192688353
    Total Energy =                       -344.7003919268836967
  Basis Set: CC-PVTZ
  Basis Set:
  Basis Set: CC-PVTZ
  Basis Set:
  @DF-RHF Final Energy:  -344.70119155828797
    Total Energy =                       -344.7011915582878601
  Basis Set: CC-PVTZ
  Basis Set:
  Basis Set: CC-PVTZ
  Basis Set:
  @DF-RHF Final Energy:  -344.70124776214629
    Total Energy =                       -344.7012477621459539
  Basis Set: CC-PVTZ
  Basis Set:
  Basis Set: CC-PVTZ
  Basis Set:
  @DF-RHF Final Energy:  -344.70125738959490
    Total Energy =                       -344.7012573895946161
  Basis Set: CC-PVTZ
  Basis Set:
  Charge       = 0
  Multiplicity = 1
  Basis Set: CC-PVTZ
  Basis Set:

    Orbital Energies (a.u.)
    -----------------------

    Doubly Occupied:

       1A    -20.571584     2A    -11.288914     3A    -11.275909
       4A    -11.232002     5A    -11.230784     6A    -11.223971
       7A    -11.221060     8A    -11.220514     9A     -1.409973
      10A     -1.152164    11A     -1.023065    12A     -1.018018
      13A     -0.939143    14A     -0.836965    15A     -0.809507
      16A     -0.721221    17A     -0.669262    18A     -0.666854
      19A     -0.648967    20A     -0.617290    21A     -0.595161
      22A     -0.584889    23A     -0.531900    24A     -0.515070
      25A     -0.509033    26A     -0.486241    27A     -0.450500
      28A     -0.340014    29A     -0.318351

  @DF-RHF Final Energy:  -344.70125800736650

   => Energetics <=

    Nuclear Repulsion Energy =            348.6074826663752901
    One-Electron Energy =               -1158.4008307240426348
    Two-Electron Energy =                 465.0920900503007829
    DFT Exchange-Correlation Energy =       0.0000000000000000
    Empirical Dispersion Energy =           0.0000000000000000
    PCM Polarization Energy =               0.0000000000000000
    EFP Energy =                            0.0000000000000000
    Total Energy =                       -344.7012580073665617
    Molecular point group: c1
  Basis Set: CC-PVTZ
  Basis Set:

  -Total Gradient:
     Atom            X                  Y                   Z
    ------   -----------------  -----------------  -----------------
       1       -0.000008091591    -0.000017846185    -0.000001180893
       2        0.000020700777     0.000136035243     0.000024936633
       3        0.000095874868    -0.000081660464    -0.000015465838
       4       -0.000134338828    -0.000068898069    -0.000028451641
       5       -0.000016850885     0.000010270309     0.000002717695
       6       -0.000096106905    -0.000071397855    -0.000015313892
       7        0.000010110634    -0.000003375721     0.000006575682
       8        0.000088609909     0.000064068267     0.001125041656
       9        0.000004141561     0.000011385380     0.000007581054
      10       -0.000052016568    -0.000475903624    -0.002008901022
      11        0.000003266401     0.000002997543     0.000000724568
      12        0.000213112114     0.001384835738     0.001471156132
      13       -0.000117274398    -0.000907224888    -0.000611670026
      14        0.000031039104     0.000013091636     0.000074475580
      15       -0.000046813346     0.000023141224    -0.000026199810
      16        0.000004637157    -0.000019518532    -0.000006025877

  **** Optimization is complete! (in 6 steps) ****
    Final optimized geometry and variables:
    Molecular point group: c1

    Geometry (in Angstrom), charge = 0, multiplicity = 1:

    H           -3.310593525462     0.407783231268     0.031586825954
    C           -2.249881603921     0.251169992653     0.063020271387
    C           -1.735182592758    -1.017064148494     0.262809417877
    C           -1.382366620883     1.313778005811    -0.091290352651
    H           -2.398241869243    -1.852099020335     0.387047053442
    C           -0.371191696160    -1.222129986052     0.299631789662
    H           -1.768488665860     2.304486062873    -0.239064805739
    C           -0.013368173866     1.121241757551    -0.047431805477
    H            0.039939599691    -2.200136425823     0.455395558092
    C            0.493343313156    -0.152488656298     0.141724744414
    H            0.648462814015     1.957904285009    -0.151721841078
    O            1.820039159324    -0.402926544487     0.240261425167
    C            2.670175171256     0.126751666835    -0.739623410343
    H            2.302311667616    -0.095266246123    -1.734926774450
    H            3.632249559499    -0.342362837076    -0.601451359558
    H            2.789513267134     1.198573244970    -0.636432548428

  Mulliken Charges: (a.u.)
   Center  Symbol    Alpha    Beta     Spin     Total
       1     H     0.42390  0.42390  0.00000  0.15220
       2     C     3.09334  3.09334  0.00000 -0.18669
       3     C     3.06269  3.06269  0.00000 -0.12538
       4     C     3.06410  3.06410  0.00000 -0.12820
       5     H     0.42246  0.42246  0.00000  0.15507
       6     C     3.11192  3.11192  0.00000 -0.22384
       7     H     0.42256  0.42256  0.00000  0.15488
       8     C     3.11908  3.11908  0.00000 -0.23816
       9     H     0.41837  0.41837  0.00000  0.16326
      10     C     2.86008  2.86008  0.00000  0.27985
      11     H     0.42366  0.42366  0.00000  0.15269
      12     O     4.16822  4.16822  0.00000 -0.33643
      13     C     3.04146  3.04146  0.00000 -0.08292
      14     H     0.46266  0.46266  0.00000  0.07467
      15     H     0.44262  0.44262  0.00000  0.11476
      16     H     0.46287  0.46287  0.00000  0.07426

   Total alpha = 29.00000, Total beta = 29.00000, Total charge = -0.00000

*** Psi4 exiting successfully. Buy a developer a beer!
