  ==> Input File <==

--------------------------------------------------------------------------
set {
	reference rhf
	basis 6-31G*
}

set_num_threads( 1 )
memory 2 gb

molecule MOL {
0 1

H	 -0.000158	 1.970498	 0.756846
O	 -0.000074	 1.880206	 -0.189275
C	 -0.000015	 0.544847	 -0.545111
C	 -1.278788	 -0.123820	 -0.051541
C	 1.278802	 -0.123718	 -0.051505
H	 -0.000001	 0.490777	 -1.623619
F	 -1.996505	 0.743326	 0.629992
F	 -2.018883	 -0.576833	 -1.041185
F	 -0.999500	 -1.137345	 0.752426
F	 2.323327	 0.466644	 -0.591854
F	 1.326242	 -1.401483	 -0.363667
F	 1.388946	 -0.015632	 1.262939

	symmetry c1
}
set optking {
	frozen_dihedral = ("
		6 3 2 1
	")
}

ee = energy('scf')
oeprop('DIPOLE', 'QUADRUPOLE', 'MULLIKEN_CHARGES')
f=open( 'psi4out.xyz', 'w' )
f.write( "12  " )
f.write( str(ee) + "\n" )
f.write( MOL.save_string_xyz() )
f.close()
--------------------------------------------------------------------------

    Molecular point group: c1

    Geometry (in Angstrom), charge = 0, multiplicity = 1:

       Center              X                  Y                   Z               Mass
    ------------   -----------------  -----------------  -----------------  -----------------
           H         -0.002821790380     1.972760439632     0.753009973311     1.007825032070
           O         -0.002737790380     1.882468439632    -0.193111026689    15.994914619560
           C         -0.002678790380     0.547109439632    -0.548947026689    12.000000000000
           C         -1.281451790380    -0.121557560368    -0.055377026689    12.000000000000
           C          1.276138209620    -0.121455560368    -0.055341026689    12.000000000000
           H         -0.002664790380     0.493039439632    -1.627455026689     1.007825032070
           F         -1.999168790380     0.745588439632     0.626155973311    18.998403224000
           F         -2.021546790380    -0.574570560368    -1.045021026689    18.998403224000
           F         -1.002163790380    -1.135082560368     0.748589973311    18.998403224000
           F          2.320663209620     0.468906439632    -0.595690026689    18.998403224000
           F          1.323578209620    -1.399220560368    -0.367503026689    18.998403224000
           F          1.386282209620    -0.013369560368     1.259102973311    18.998403224000

  Charge       = 0
  Multiplicity = 1
  Basis Set: 6-31G*
  Basis Set:

    Orbital Energies (a.u.)
    -----------------------

    Doubly Occupied:

       1A    -26.362241     2A    -26.361667     3A    -26.361008
       4A    -26.360590     5A    -26.358842     6A    -26.357417
       7A    -20.613312     8A    -11.526016     9A    -11.524951
      10A    -11.347167    11A     -1.765072    12A     -1.758109
      13A     -1.660135    14A     -1.659669    15A     -1.658053
      16A     -1.653606    17A     -1.432899    18A     -1.101336
      19A     -0.997243    20A     -0.936354    21A     -0.867028
      22A     -0.860652    23A     -0.850577    24A     -0.845997
      25A     -0.835468    26A     -0.811864    27A     -0.732519
      28A     -0.730839    29A     -0.728448    30A     -0.723846
      31A     -0.687845    32A     -0.685430    33A     -0.682157
      34A     -0.678061    35A     -0.666646    36A     -0.663133
      37A     -0.655675    38A     -0.649281    39A     -0.615471
      40A     -0.548155    41A     -0.506186

  @DF-RHF Final Energy:  -786.27042421534361

   => Energetics <=

    Nuclear Repulsion Energy =            671.7636885230288044
    One-Electron Energy =               -2430.4264020122272996
    Two-Electron Energy =                 972.3922892738564769
    DFT Exchange-Correlation Energy =       0.0000000000000000
    Empirical Dispersion Energy =           0.0000000000000000
    PCM Polarization Energy =               0.0000000000000000
    EFP Energy =                            0.0000000000000000
    Total Energy =                       -786.2704242153420182

  Mulliken Charges: (a.u.)
   Center  Symbol    Alpha    Beta     Spin     Total
       1     H     0.26724  0.26724  0.00000  0.46553
       2     O     4.35949  4.35949  0.00000 -0.71899
       3     C     3.07622  3.07622  0.00000 -0.15243
       4     C     2.42634  2.42634  0.00000  1.14733
       5     C     2.43406  2.43406  0.00000  1.13187
       6     H     0.37129  0.37129  0.00000  0.25742
       7     F     4.67594  4.67594  0.00000 -0.35188
       8     F     4.67573  4.67573  0.00000 -0.35146
       9     F     4.67903  4.67903  0.00000 -0.35806
      10     F     4.67508  4.67508  0.00000 -0.35016
      11     F     4.67619  4.67619  0.00000 -0.35239
      12     F     4.68340  4.68340  0.00000 -0.36680

   Total alpha = 41.00000, Total beta = 41.00000, Total charge = -0.00000
