  ==> Input File <==

--------------------------------------------------------------------------
set {
	reference rhf
	basis 6-31G*
}

set_num_threads( 4 )
memory 2 gb

molecule MOL {
0 1

H	 -3.795032	 1.138949	 -0.294228
C	 -3.092554	 0.524709	 0.234821
C	 -2.076860	 -0.007332	 -0.404944
H	 -3.242774	 0.361182	 1.285347
O	 -1.180634	 -0.819263	 0.215062
H	 -1.904637	 0.150009	 -1.455077
C	 0.051604	 -1.018856	 -0.387932
C	 1.043764	 0.054862	 -0.001873
H	 -0.017620	 -1.041351	 -1.469781
H	 0.437898	 -1.966374	 -0.042284
F	 2.212596	 -0.199467	 -0.571921
F	 0.652529	 1.252447	 -0.405055
F	 1.230877	 0.110694	 1.300533

	symmetry c1
}
set optking {
	frozen_dihedral = ("
		6 3 5 7
	")
}

ee = optimize('scf')
oeprop('DIPOLE', 'QUADRUPOLE', 'MULLIKEN_CHARGES')
f=open( 'psi4out.xyz', 'w' )
f.write( "13  " )
f.write( str(ee) + "\n" )
f.write( MOL.save_string_xyz() )
f.close()
--------------------------------------------------------------------------

    Molecular point group: c1
  Charge       = 0
  Multiplicity = 1
  Basis Set: 6-31G*
  Basis Set:
  @DF-RHF Final Energy:  -527.53582553598130
    Total Energy =                       -527.5358255359809618
    Molecular point group: c1
  Basis Set: 6-31G*
  Basis Set:
  Basis Set: 6-31G*
  Basis Set:
  @DF-RHF Final Energy:  -527.53582391401278
    Total Energy =                       -527.5358239140124397
  Basis Set: 6-31G*
  Basis Set:
  Basis Set: 6-31G*
  Basis Set:
  @DF-RHF Final Energy:  -527.53585826422136
    Total Energy =                       -527.5358582642215879
  Basis Set: 6-31G*
  Basis Set:
  Charge       = 0
  Multiplicity = 1
  Basis Set: 6-31G*
  Basis Set:

    Orbital Energies (a.u.)
    -----------------------

    Doubly Occupied:

       1A    -26.344086     2A    -26.342919     3A    -26.340142
       4A    -20.608099     5A    -11.502671     6A    -11.318577
       7A    -11.299166     8A    -11.216480     9A     -1.741205
      10A     -1.639248    11A     -1.637754    12A     -1.437891
      13A     -1.083707    14A     -1.016607    15A     -0.924910
      16A     -0.836182    17A     -0.830402    18A     -0.820323
      19A     -0.792440    20A     -0.719954    21A     -0.711048
      22A     -0.694660    23A     -0.675759    24A     -0.660745
      25A     -0.654260    26A     -0.642544    27A     -0.636569
      28A     -0.583524    29A     -0.563641    30A     -0.523763
      31A     -0.511315    32A     -0.352911

  @DF-RHF Final Energy:  -527.53585883807546

   => Energetics <=

    Nuclear Repulsion Energy =            414.1175762509228093
    One-Electron Energy =               -1551.9798659354121355
    Two-Electron Energy =                 610.3264308464139276
    DFT Exchange-Correlation Energy =       0.0000000000000000
    Empirical Dispersion Energy =           0.0000000000000000
    PCM Polarization Energy =               0.0000000000000000
    EFP Energy =                            0.0000000000000000
    Total Energy =                       -527.5358588380753417
    Molecular point group: c1
  Basis Set: 6-31G*
  Basis Set:

  -Total Gradient:
     Atom            X                  Y                   Z
    ------   -----------------  -----------------  -----------------
       1       -0.000005005259    -0.000020143279    -0.000005776828
       2        0.000033297615     0.000021455880    -0.000013520506
       3        0.000312139989     0.000485061510     0.000256709800
       4       -0.000008257816    -0.000010340855     0.000001567334
       5       -0.000260678469    -0.000405945757    -0.000272917670
       6       -0.000223468823    -0.000303847076    -0.000109403926
       7        0.000119430369     0.000205556488     0.000137476774
       8       -0.000000372785     0.000009618149     0.000011975615
       9       -0.000001284693     0.000003446607    -0.000002940579
      10       -0.000005471190    -0.000001730180    -0.000009008482
      11       -0.000011264117     0.000009322110     0.000002374262
      12        0.000048987734     0.000005274351    -0.000006627839
      13        0.000001947445     0.000002272054     0.000010092041

  **** Optimization is complete! (in 4 steps) ****
    Final optimized geometry and variables:
    Molecular point group: c1

    Geometry (in Angstrom), charge = 0, multiplicity = 1:

    H           -3.812623523225     1.115229879530    -0.297349268546
    C           -3.107990493034     0.503868634705     0.232291737287
    C           -2.081771536854    -0.012630806020    -0.402826060576
    H           -3.267655464603     0.326083829240     1.279172786359
    O           -1.194117518362    -0.839462782598     0.210686425916
    H           -1.900831211425     0.155016605585    -1.450514770328
    C            0.038506194736    -1.038489260876    -0.391922677839
    C            1.031765928718     0.036310596420    -0.011328851447
    H           -0.031886097090    -1.063620284871    -1.473921353020
    H            0.425544481476    -1.984677210947    -0.043798847604
    F            2.202915665298    -0.228806994528    -0.572018163001
    F            0.648277677872     1.230849777325    -0.429204241434
    F            1.211692080397     0.104458336617     1.291640181039

  Mulliken Charges: (a.u.)
   Center  Symbol    Alpha    Beta     Spin     Total
       1     H     0.40701  0.40701  0.00000  0.18598
       2     C     3.23363  3.23363  0.00000 -0.46726
       3     C     2.89640  2.89640  0.00000  0.20719
       4     H     0.40148  0.40148  0.00000  0.19703
       5     O     4.30141  4.30141  0.00000 -0.60283
       6     H     0.40806  0.40806  0.00000  0.18388
       7     C     3.06304  3.06304  0.00000 -0.12608
       8     C     2.45589  2.45589  0.00000  1.08822
       9     H     0.40616  0.40616  0.00000  0.18768
      10     H     0.39027  0.39027  0.00000  0.21947
      11     F     4.68294  4.68294  0.00000 -0.36588
      12     F     4.67909  4.67909  0.00000 -0.35819
      13     F     4.67461  4.67461  0.00000 -0.34921

   Total alpha = 32.00000, Total beta = 32.00000, Total charge = -0.00000
