                              Psi4 1.0.54 Driver

  ==> Input File <==

--------------------------------------------------------------------------
set {
	reference rhf
	basis cc-pvtz
}

set_num_threads( 4 )
memory 2 gb

molecule MOL {
0 1

H	 1.731432	 -1.707992	 -0.605085
C	 1.030168	 -1.469436	 0.186418
N	 0.526300	 -0.128137	 0.000000
H	 1.562211	 -1.534417	 1.127028
H	 0.251635	 -2.235219	 0.180489
C	 -0.247113	 0.037112	 -1.209233
H	 -0.016352	 0.144185	 0.790588
H	 -0.996493	 -0.743733	 -1.271440
H	 0.397975	 -0.057351	 -2.073512
H	 -0.763794	 0.997171	 -1.271673

	symmetry c1
}
set optking {
	frozen_dihedral = ("
		2 3 6 8
	")
}

ee,wfn = optimize('scf', return_wfn=True)
oeprop( wfn, 'DIPOLE', 'QUADRUPOLE', 'MULLIKEN_CHARGES')
f=open( 'psi4out.xyz', 'w' )
f.write( "10  " )
f.write( str(ee) + "\n" )
f.write( MOL.save_string_xyz() )
f.close()
--------------------------------------------------------------------------

    Molecular point group: c1
  Charge       = 0
  Multiplicity = 1
  Basis Set: CC-PVTZ
  Basis Set:
  @DF-RHF Final Energy:  -134.29182363860303
    Total Energy =                       -134.2918236386030912
    Molecular point group: c1
  Basis Set: CC-PVTZ
  Basis Set:
  Basis Set: CC-PVTZ
  Basis Set:
  @DF-RHF Final Energy:  -134.29280483190428
    Total Energy =                       -134.2928048319042205
  Basis Set: CC-PVTZ
  Basis Set:
  Basis Set: CC-PVTZ
  Basis Set:
  @DF-RHF Final Energy:  -134.29296037548022
    Total Energy =                       -134.2929603754802201
  Basis Set: CC-PVTZ
  Basis Set:
  Charge       = 0
  Multiplicity = 1
  Basis Set: CC-PVTZ
  Basis Set:

    Orbital Energies (a.u.)
    -----------------------

    Doubly Occupied:

       1A    -15.532767     2A    -11.234328     3A    -11.234302
       4A     -1.201233     5A     -0.948321     6A     -0.854702
       7A     -0.662575     8A     -0.614061     9A     -0.592647
      10A     -0.539074    11A     -0.510269    12A     -0.507171
      13A     -0.364864

  @DF-RHF Final Energy:  -134.29296140726325

   => Energetics <=

    Nuclear Repulsion Energy =             84.7568272519323926
    One-Electron Energy =                -348.5069469554141506
    Two-Electron Energy =                 129.4571582962184948
    DFT Exchange-Correlation Energy =       0.0000000000000000
    Empirical Dispersion Energy =           0.0000000000000000
    PCM Polarization Energy =               0.0000000000000000
    EFP Energy =                            0.0000000000000000
    Total Energy =                       -134.2929614072632489
    Molecular point group: c1
  Basis Set: CC-PVTZ
  Basis Set:

  -Total Gradient:
     Atom            X                  Y                   Z
    ------   -----------------  -----------------  -----------------
       1        0.000028363731    -0.000011733475    -0.000004809162
       2       -0.000816684970    -0.000227003110     0.000310071665
       3        0.001264461815     0.000131957727    -0.000761799336
       4       -0.000040066333     0.000070187673    -0.000009492292
       5       -0.000002857140    -0.000008728779     0.000022090854
       6       -0.001236617964     0.000716379644     0.000997925123
       7        0.000004272082     0.000011202106    -0.000012583528
       8        0.000788032760    -0.000685206568    -0.000575445573
       9        0.000002237039     0.000005455938    -0.000006973653
      10        0.000008858980    -0.000002511157     0.000041015903

  **** Optimization is complete! (in 4 steps) ****
    Final optimized geometry and variables:
    Molecular point group: c1

    Geometry (in Angstrom), charge = 0, multiplicity = 1:

    H            1.319097169104    -1.160759567559    -0.273499175622
    C            0.606705885709    -0.943853155803     0.514501067560
    N            0.098028739956     0.399063955067     0.354241266458
    H            1.127309143188    -1.028495112789     1.459878693253
    H           -0.168528287377    -1.712022580160     0.480162967903
    C           -0.659115970175     0.588416538919    -0.862242195577
    H           -0.462345041033     0.642246408438     1.141968954899
    H           -1.429638132962    -0.169222856130    -1.018981167481
    H            0.007457024090     0.553413333760    -1.716947543956
    H           -1.131359627300     1.562228908425    -0.854040927084

  Mulliken Charges: (a.u.)
   Center  Symbol    Alpha    Beta     Spin     Total
       1     H     0.45709  0.45709  0.00000  0.08581
       2     C     3.08144  3.08144  0.00000 -0.16288
       3     N     3.62806  3.62806  0.00000 -0.25613
       4     H     0.45242  0.45242  0.00000  0.09516
       5     H     0.47452  0.47452  0.00000  0.05097
       6     C     3.08011  3.08011  0.00000 -0.16022
       7     H     0.44081  0.44081  0.00000  0.11839
       8     H     0.47597  0.47597  0.00000  0.04806
       9     H     0.45663  0.45663  0.00000  0.08673
      10     H     0.45294  0.45294  0.00000  0.09412

   Total alpha = 13.00000, Total beta = 13.00000, Total charge = -0.00000

*** Psi4 exiting successfully. Buy a developer a beer!
