                              Psi4 1.0.54 Driver

  ==> Input File <==

--------------------------------------------------------------------------
set {
	reference rhf
	basis cc-pvtz
}

set_num_threads( 4 )
memory 2 gb

molecule MOL {
0 1

H	 -1.976364	 -1.391877	 0.201977
C	 -1.582593	 -1.131450	 -0.775145
O	 -0.775228	 0.000056	 -0.739966
H	 -2.416322	 -0.899190	 -1.422526
H	 -1.069109	 -1.996032	 -1.183143
C	 0.406133	 -0.000384	 0.036994
C	 1.526415	 -0.003194	 -0.997339
C	 0.498772	 1.259027	 0.900673
C	 0.495883	 -1.257378	 0.904465
H	 1.452279	 0.872071	 -1.630204
H	 1.451276	 -0.881020	 -1.626529
H	 2.497919	 -0.002741	 -0.517601
H	 0.368981	 2.144239	 0.289753
H	 1.470064	 1.313479	 1.377660
H	 -0.248448	 1.271586	 1.684297
H	 0.363971	 -2.144195	 0.296316
H	 1.467114	 -1.312636	 1.381470
H	 -0.251246	 -1.265768	 1.688235

	symmetry c1
}
set optking {
	frozen_dihedral = ("
		2 3 6 7
	")
}

ee,wfn = optimize('scf', return_wfn=True)
oeprop( wfn, 'DIPOLE', 'QUADRUPOLE', 'MULLIKEN_CHARGES')
f=open( 'psi4out.xyz', 'w' )
f.write( "18  " )
f.write( str(ee) + "\n" )
f.write( MOL.save_string_xyz() )
f.close()
--------------------------------------------------------------------------

    Molecular point group: c1
  Charge       = 0
  Multiplicity = 1
  Basis Set: CC-PVTZ
  Basis Set:
  @DF-RHF Final Energy:  -271.26856024349598
    Total Energy =                       -271.2685602434959264
    Molecular point group: c1
  Basis Set: CC-PVTZ
  Basis Set:
  Basis Set: CC-PVTZ
  Basis Set:
  @DF-RHF Final Energy:  -271.24450784484611
    Total Energy =                       -271.2445078448461686
  Basis Set: CC-PVTZ
  Basis Set:
  Basis Set: CC-PVTZ
  Basis Set:
  @DF-RHF Final Energy:  -271.27132418288789
    Total Energy =                       -271.2713241828879518
  Basis Set: CC-PVTZ
  Basis Set:
  Basis Set: CC-PVTZ
  Basis Set:
  @DF-RHF Final Energy:  -271.27262159167429
    Total Energy =                       -271.2726215916742945
  Basis Set: CC-PVTZ
  Basis Set:
  @DF-RHF Final Energy:  -271.27263094279243
    Total Energy =                       -271.2726309427923752
  Basis Set: CC-PVTZ
  Basis Set:
  @DF-RHF Final Energy:  -271.27279602335165
    Total Energy =                       -271.2727960233515887
  Basis Set: CC-PVTZ
  Basis Set:
  Basis Set: CC-PVTZ
  Basis Set:
  @DF-RHF Final Energy:  -271.27280954440931
    Total Energy =                       -271.2728095444093697
  Basis Set: CC-PVTZ
  Basis Set:
  Basis Set: CC-PVTZ
  Basis Set:
  @DF-RHF Final Energy:  -271.27281809572645
    Total Energy =                       -271.2728180957263362
  Basis Set: CC-PVTZ
  Basis Set:
  Charge       = 0
  Multiplicity = 1
  Basis Set: CC-PVTZ
  Basis Set:

    Orbital Energies (a.u.)
    -----------------------

    Doubly Occupied:

       1A    -20.537512     2A    -11.280634     3A    -11.259549
       4A    -11.211772     5A    -11.202612     6A    -11.201745
       7A     -1.369764     8A     -1.075485     9A     -0.951665
      10A     -0.935304    11A     -0.912292    12A     -0.752270
      13A     -0.657621    14A     -0.647984    15A     -0.638686
      16A     -0.583513    17A     -0.577547    18A     -0.549127
      19A     -0.542036    20A     -0.527122    21A     -0.515293
      22A     -0.491034    23A     -0.484397    24A     -0.443737
      25A     -0.399075

  @DF-RHF Final Energy:  -271.27281830497435

   => Energetics <=

    Nuclear Repulsion Energy =            272.0741587713491185
    One-Electron Energy =                -907.1983988393219533
    Two-Electron Energy =                 363.8514217629984273
    DFT Exchange-Correlation Energy =       0.0000000000000000
    Empirical Dispersion Energy =           0.0000000000000000
    PCM Polarization Energy =               0.0000000000000000
    EFP Energy =                            0.0000000000000000
    Total Energy =                       -271.2728183049743507
    Molecular point group: c1
  Basis Set: CC-PVTZ
  Basis Set:

  -Total Gradient:
     Atom            X                  Y                   Z
    ------   -----------------  -----------------  -----------------
       1       -0.000006889382    -0.000084976103     0.000155941766
       2       -0.000806646737     0.000232801233     0.002131677227
       3        0.001431489799     0.000303135302    -0.003015566414
       4       -0.000153337423     0.000081692967    -0.000077276028
       5        0.000074342849    -0.000081225406    -0.000088509348
       6       -0.000675214610    -0.002210647579     0.000275924602
       7        0.000168461083     0.001771010920     0.000650974268
       8        0.000062837312    -0.000021002236    -0.000065902415
       9       -0.000017368834    -0.000083610299    -0.000045378558
      10       -0.000004521182     0.000020676902    -0.000030700492
      11       -0.000017348382    -0.000045075461    -0.000002723155
      12        0.000015347187     0.000017398443     0.000014543763
      13       -0.000036384409     0.000098588378    -0.000001689780
      14        0.000123555324     0.000031114921     0.000020765172
      15       -0.000066958372    -0.000077990780     0.000034610334
      16        0.000010363148     0.000050465498     0.000031641735
      17       -0.000019572672     0.000027967153    -0.000010174237
      18       -0.000082154698    -0.000030323858     0.000021841560

  **** Optimization is complete! (in 9 steps) ****
    Final optimized geometry and variables:
    Molecular point group: c1

    Geometry (in Angstrom), charge = 0, multiplicity = 1:

    H           -2.148170379206    -1.133401776031     0.173156662259
    C           -1.826599062353    -0.584896551012    -0.706014980022
    O           -0.899100602218     0.406489957779    -0.410037330183
    H           -2.688626793964    -0.084788613929    -1.125267945959
    H           -1.459265082100    -1.295067375890    -1.442095589725
    C            0.373023019138     0.103316132994     0.144183085705
    C            1.411013769293     0.381801157662    -0.941788269599
    C            0.555147515174     1.078938582788     1.304620443308
    C            0.505129511735    -1.331794319520     0.653265376952
    H            1.307851639053     1.398633662205    -1.298014928373
    H            1.270418724257    -0.285515883196    -1.784915065216
    H            2.419487304745     0.246628220703    -0.567095998856
    H            0.420362937496     2.095574445702     0.957871148766
    H            1.544455856579     0.990819018716     1.739772657140
    H           -0.179498156223     0.887441087430     2.077782733896
    H            0.391309715423    -2.059579720415    -0.139660038220
    H            1.491997568281    -1.463209713070     1.078865766246
    H           -0.218699528586    -1.550059466455     1.428327237824

  Mulliken Charges: (a.u.)
   Center  Symbol    Alpha    Beta     Spin     Total
       1     H     0.46859  0.46859  0.00000  0.06283
       2     C     3.04112  3.04112  0.00000 -0.08225
       3     O     4.19905  4.19905  0.00000 -0.39810
       4     H     0.44275  0.44275  0.00000  0.11451
       5     H     0.47000  0.47000  0.00000  0.05999
       6     C     2.87046  2.87046  0.00000  0.25907
       7     C     3.14347  3.14347  0.00000 -0.28695
       8     C     3.14059  3.14059  0.00000 -0.28118
       9     C     3.17664  3.17664  0.00000 -0.35329
      10     H     0.44798  0.44798  0.00000  0.10404
      11     H     0.45183  0.45183  0.00000  0.09634
      12     H     0.45672  0.45672  0.00000  0.08656
      13     H     0.44767  0.44767  0.00000  0.10466
      14     H     0.45888  0.45888  0.00000  0.08224
      15     H     0.45245  0.45245  0.00000  0.09511
      16     H     0.44431  0.44431  0.00000  0.11138
      17     H     0.44246  0.44246  0.00000  0.11507
      18     H     0.44502  0.44502  0.00000  0.10996

   Total alpha = 25.00000, Total beta = 25.00000, Total charge = -0.00000

*** Psi4 exiting successfully. Buy a developer a beer!
