  ==> Input File <==

--------------------------------------------------------------------------
set {
	reference rhf
	basis 6-31G*
}

set_num_threads( 4 )
memory 2 gb

molecule MOL {
0 1

O	 -2.042549	 -1.228399	 -0.269030
C	 -1.653912	 -0.146171	 0.050137
C	 -0.332303	 0.024011	 0.778412
C	 -2.438579	 1.106236	 -0.272369
C	 0.845713	 -0.001731	 -0.208243
H	 -0.323783	 0.953829	 1.340327
H	 -0.235459	 -0.796807	 1.480410
C	 1.806438	 -1.162927	 0.051877
H	 1.394178	 0.936886	 -0.151077
H	 0.450591	 -0.070237	 -1.217365
C	 2.974040	 -1.196211	 -0.933417
H	 2.191231	 -1.093447	 1.067028
H	 1.258167	 -2.100347	 -0.004786
H	 3.562405	 -0.284838	 -0.876169
H	 2.621140	 -1.298096	 -1.955437
H	 3.636521	 -2.030816	 -0.727067
H	 -3.277823	 0.863061	 -0.908988
H	 -1.806773	 1.843019	 -0.759671
H	 -2.802853	 1.554979	 0.648059

	symmetry c1
}
set optking {
	frozen_dihedral = ("
		9 5 3 2
	")
}

ee = optimize('scf')
oeprop('DIPOLE', 'QUADRUPOLE', 'MULLIKEN_CHARGES')
f=open( 'psi4out.xyz', 'w' )
f.write( "19  " )
f.write( str(ee) + "\n" )
f.write( MOL.save_string_xyz() )
f.close()
--------------------------------------------------------------------------

    Molecular point group: c1
  Charge       = 0
  Multiplicity = 1
  Basis Set: 6-31G*
  Basis Set:
  @DF-RHF Final Energy:  -309.05942243480808
    Total Energy =                       -309.0594224348078569
    Molecular point group: c1
  Basis Set: 6-31G*
  Basis Set:
  Basis Set: 6-31G*
  Basis Set:
  @DF-RHF Final Energy:  -309.05950128284661
    Total Energy =                       -309.0595012828467816
  Basis Set: 6-31G*
  Basis Set:
  Basis Set: 6-31G*
  Basis Set:
  @DF-RHF Final Energy:  -309.05985733263810
    Total Energy =                       -309.0598573326378755
  Basis Set: 6-31G*
  Basis Set:
  Basis Set: 6-31G*
  Basis Set:
  @DF-RHF Final Energy:  -309.05995569017978
    Total Energy =                       -309.0599556901796632
  Basis Set: 6-31G*
  Basis Set:
  @DF-RHF Final Energy:  -309.06000690788062
    Total Energy =                       -309.0600069078806200
  @DF-RHF Final Energy:  -309.06003806362872
    Total Energy =                       -309.0600380636288946
  Basis Set: 6-31G*
  Basis Set:
  @DF-RHF Final Energy:  -309.06006901431175
    Total Energy =                       -309.0600690143118072
  Basis Set: 6-31G*
  Basis Set:
  Basis Set: 6-31G*
  Basis Set:
  @DF-RHF Final Energy:  -309.06007315114704
    Total Energy =                       -309.0600731511470940
  Basis Set: 6-31G*
  Basis Set:
  Basis Set: 6-31G*
  Basis Set:
  @DF-RHF Final Energy:  -309.06007463945161
    Total Energy =                       -309.0600746394517273
  Basis Set: 6-31G*
  Basis Set:
  Charge       = 0
  Multiplicity = 1
  Basis Set: 6-31G*
  Basis Set:

    Orbital Energies (a.u.)
    -----------------------

    Doubly Occupied:

       1A    -20.547375     2A    -11.324315     3A    -11.233073
       4A    -11.229099     5A    -11.227846     6A    -11.223022
       7A    -11.213818     8A     -1.392891     9A     -1.089917
      10A     -1.028838    11A     -0.980905    12A     -0.891663
      13A     -0.808051    14A     -0.734486    15A     -0.661296
      16A     -0.637927    17A     -0.625808    18A     -0.610915
      19A     -0.582850    20A     -0.574801    21A     -0.553184
      22A     -0.528155    23A     -0.523633    24A     -0.499607
      25A     -0.478593    26A     -0.474166    27A     -0.464827
      28A     -0.396945

  @DF-RHF Final Energy:  -309.06007498537195

   => Energetics <=

    Nuclear Repulsion Energy =            303.0133609104598804
    One-Electron Energy =               -1019.0708595747186109
    Two-Electron Energy =                 406.9974236788868893
    DFT Exchange-Correlation Energy =       0.0000000000000000
    Empirical Dispersion Energy =           0.0000000000000000
    PCM Polarization Energy =               0.0000000000000000
    EFP Energy =                            0.0000000000000000
    Total Energy =                       -309.0600749853717844
    Molecular point group: c1
  Basis Set: 6-31G*
  Basis Set:

  -Total Gradient:
     Atom            X                  Y                   Z
    ------   -----------------  -----------------  -----------------
       1        0.000004846280    -0.000009943584    -0.000011412104
       2       -0.000031511307     0.000236592734     0.000011587227
       3        0.000026237553    -0.000269769577    -0.000073709463
       4       -0.000023415551    -0.000003085657     0.000008417205
       5        0.000199254731    -0.000054656011     0.000275413293
       6       -0.000000638271     0.000006215524     0.000009774606
       7        0.000000931248     0.000001554642     0.000009177681
       8        0.000019554312    -0.000033408261    -0.000004010413
       9       -0.000198050981     0.000119710543    -0.000211509462
      10       -0.000006202728    -0.000002671620    -0.000012422159
      11       -0.000006417803     0.000008800645     0.000013888427
      12       -0.000003381232    -0.000004163459     0.000003380045
      13        0.000001828108     0.000005156610    -0.000010892096
      14        0.000002105682     0.000001897896     0.000001106666
      15       -0.000003535342    -0.000000591654     0.000000517779
      16       -0.000002659129     0.000000909179     0.000002129933
      17       -0.000001377214    -0.000000479425     0.000001199189
      18        0.000020031711    -0.000000894763    -0.000001162832
      19        0.000002399933    -0.000001173759    -0.000011473523

  **** Optimization is complete! (in 10 steps) ****
    Final optimized geometry and variables:
    Molecular point group: c1

    Geometry (in Angstrom), charge = 0, multiplicity = 1:

    O           -2.080226130681    -0.859873092446     0.124398392652
    C           -1.549845859774     0.202718277391     0.241015838923
    C           -0.211736159228     0.347447922296     0.940159417153
    C           -2.174736597186     1.464355812936    -0.316019507376
    C            0.962327435972     0.390020675124    -0.075739919232
    H           -0.215164340248     1.247764102857     1.546918668565
    H           -0.103133705707    -0.499874637519     1.605465743839
    C            1.935965652975    -0.778074601163     0.094365822281
    H            1.500784575356     1.327727895053     0.023596465994
    H            0.578952918223     0.373749258841    -1.093461700756
    C            3.085157729793    -0.742249403809    -0.911203945172
    H            2.336948457256    -0.765023689962     1.105308640833
    H            1.388464002151    -1.711352342228    -0.007953116092
    H            3.666762471268     0.170091365362    -0.811961387007
    H            2.715475205307    -0.789583848767    -1.931562779575
    H            3.758449721136    -1.580813743681    -0.764953872574
    H           -3.012587646753     1.212078209472    -0.951073084617
    H           -1.450632878078     2.049870078996    -0.873868635993
    H           -2.524472931758     2.083936948498     0.505764842205

  Mulliken Charges: (a.u.)
   Center  Symbol    Alpha    Beta     Spin     Total
       1     O     4.26066  4.26066  0.00000 -0.52132
       2     C     2.74073  2.74073  0.00000  0.51855
       3     C     3.20429  3.20429  0.00000 -0.40858
       4     C     3.28935  3.28935  0.00000 -0.57870
       5     C     3.16103  3.16103  0.00000 -0.32206
       6     H     0.41313  0.41313  0.00000  0.17375
       7     H     0.39796  0.39796  0.00000  0.20407
       8     C     3.15398  3.15398  0.00000 -0.30795
       9     H     0.41660  0.41660  0.00000  0.16680
      10     H     0.41582  0.41582  0.00000  0.16836
      11     C     3.24157  3.24157  0.00000 -0.48314
      12     H     0.42074  0.42074  0.00000  0.15852
      13     H     0.41274  0.41274  0.00000  0.17453
      14     H     0.42179  0.42179  0.00000  0.15642
      15     H     0.41991  0.41991  0.00000  0.16018
      16     H     0.41660  0.41660  0.00000  0.16680
      17     H     0.39701  0.39701  0.00000  0.20598
      18     H     0.40964  0.40964  0.00000  0.18073
      19     H     0.40647  0.40647  0.00000  0.18707

   Total alpha = 28.00000, Total beta = 28.00000, Total charge =  0.00000
