                              Psi4 1.0.54 Driver

  ==> Input File <==

--------------------------------------------------------------------------
set {
	reference rhf
	basis cc-pvtz
}

set_num_threads( 4 )
memory 2 gb

molecule MOL {
0 1

O	 -1.278239	 1.034789	 -0.784693
C	 -1.204115	 0.062668	 -0.112312
C	 -2.386398	 -0.667698	 0.460323
O	 -0.068058	 -0.518372	 0.226882
H	 -2.382952	 -1.693172	 0.114333
H	 -3.296656	 -0.175702	 0.158400
H	 -2.312537	 -0.685191	 1.540100
C	 1.169086	 0.037484	 -0.230612
C	 1.871528	 0.578007	 0.998828
C	 0.899588	 1.103512	 -1.277303
H	 1.749274	 -0.760581	 -0.668291
H	 2.039733	 -0.210557	 1.721063
H	 2.830448	 0.999915	 0.722825
H	 1.278898	 1.352920	 1.470249
H	 1.834712	 1.534049	 -1.615950
H	 0.392505	 0.681371	 -2.133639
H	 0.288560	 1.897203	 -0.862594

	symmetry c1
}
set optking {
	frozen_dihedral = ("
		11 8 4 2
	")
}

ee,wfn = optimize('scf', return_wfn=True)
oeprop( wfn, 'DIPOLE', 'QUADRUPOLE', 'MULLIKEN_CHARGES')
f=open( 'psi4out.xyz', 'w' )
f.write( "17  " )
f.write( str(ee) + "\n" )
f.write( MOL.save_string_xyz() )
f.close()
--------------------------------------------------------------------------

    Molecular point group: c1
  Charge       = 0
  Multiplicity = 1
  Basis Set: CC-PVTZ
  Basis Set:
  @DF-RHF Final Energy:  -344.99791152224122
    Total Energy =                       -344.9979115222413384
    Molecular point group: c1
  Basis Set: CC-PVTZ
  Basis Set:
  Basis Set: CC-PVTZ
  Basis Set:
  @DF-RHF Final Energy:  -345.02390150185994
    Total Energy =                       -345.0239015018596547
  Basis Set: CC-PVTZ
  Basis Set:
  Basis Set: CC-PVTZ
  Basis Set:
  @DF-RHF Final Energy:  -345.02894467840542
    Total Energy =                       -345.0289446784058782
  Basis Set: CC-PVTZ
  Basis Set:
  Basis Set: CC-PVTZ
  Basis Set:
  @DF-RHF Final Energy:  -345.02564252889425
    Total Energy =                       -345.0256425288944797
  Basis Set: CC-PVTZ
  Basis Set:
  @DF-RHF Final Energy:  -345.03177608790526
    Total Energy =                       -345.0317760879052571
  @DF-RHF Final Energy:  -345.03207037376791
    Total Energy =                       -345.0320703737678514
  @DF-RHF Final Energy:  -345.03210709429595
    Total Energy =                       -345.0321070942957249
  Basis Set: CC-PVTZ
  Basis Set:
  @DF-RHF Final Energy:  -345.03212297707006
    Total Energy =                       -345.0321229770698892
  Basis Set: CC-PVTZ
  Basis Set:
  Basis Set: CC-PVTZ
  Basis Set:
  @DF-RHF Final Energy:  -345.03212562413978
    Total Energy =                       -345.0321256241398942
  Basis Set: CC-PVTZ
  Basis Set:
  Basis Set: CC-PVTZ
  Basis Set:
  @DF-RHF Final Energy:  -345.03212665270723
    Total Energy =                       -345.0321266527073476
  Basis Set: CC-PVTZ
  Basis Set:
  Charge       = 0
  Multiplicity = 1
  Basis Set: CC-PVTZ
  Basis Set:

    Orbital Energies (a.u.)
    -----------------------

    Doubly Occupied:

       1A    -20.587549     2A    -20.527009     3A    -11.366746
       4A    -11.295333     5A    -11.227537     6A    -11.217866
       7A    -11.210967     8A     -1.461082     9A     -1.363224
      10A     -1.080382    11A     -1.002463    12A     -0.946899
      13A     -0.867622    14A     -0.738175    15A     -0.690993
      16A     -0.676929    17A     -0.660492    18A     -0.616969
      19A     -0.584260    20A     -0.580055    21A     -0.565927
      22A     -0.549810    23A     -0.533179    24A     -0.517448
      25A     -0.508982    26A     -0.482325    27A     -0.441563
      28A     -0.431002

  @DF-RHF Final Energy:  -345.03212737673744

   => Energetics <=

    Nuclear Repulsion Energy =            324.5124360882033443
    One-Electron Energy =               -1113.6235511526770097
    Two-Electron Energy =                 444.0789876877361166
    DFT Exchange-Correlation Energy =       0.0000000000000000
    Empirical Dispersion Energy =           0.0000000000000000
    PCM Polarization Energy =               0.0000000000000000
    EFP Energy =                            0.0000000000000000
    Total Energy =                       -345.0321273767375487
    Molecular point group: c1
  Basis Set: CC-PVTZ
  Basis Set:

  -Total Gradient:
     Atom            X                  Y                   Z
    ------   -----------------  -----------------  -----------------
       1       -0.000003126459    -0.000038598325     0.000009043651
       2       -0.000469970330    -0.002318413086    -0.001731236942
       3        0.000029767350    -0.000040009025    -0.000052253568
       4        0.000356413107     0.003643202598     0.002353357809
       5        0.000003471388    -0.000014550823     0.000019219263
       6        0.000009625385     0.000016680859    -0.000013394198
       7       -0.000000019261     0.000019276225     0.000021369738
       8        0.001738504681    -0.000962565047     0.001862287458
       9        0.000051663204     0.000004484026     0.000017474108
      10       -0.000008133502     0.000015521598    -0.000007858803
      11       -0.001703771195    -0.000333344815    -0.002462529508
      12       -0.000005764818     0.000006564517    -0.000002053782
      13       -0.000010753415     0.000002503709     0.000006172940
      14       -0.000011339750     0.000008021305     0.000002727952
      15        0.000014553964    -0.000006305010     0.000009392661
      16       -0.000011087132    -0.000001212954    -0.000012042863
      17        0.000019966781    -0.000001255750    -0.000019675914

  **** Optimization is complete! (in 11 steps) ****
    Final optimized geometry and variables:
    Molecular point group: c1

    Geometry (in Angstrom), charge = 0, multiplicity = 1:

    O           -1.533833503044     0.580669816927    -0.434512638566
    C           -1.094697456089    -0.226076041448     0.310983369800
    C           -1.937031365684    -1.029722544281     1.265815970542
    O            0.178913661798    -0.540921497357     0.446001583841
    H           -1.833286920464    -2.083738103434     1.041778106283
    H           -2.968858627987    -0.731241695082     1.175374141473
    H           -1.589807356617    -0.874076387969     2.278864540987
    C            1.281865667939    -0.114323711329    -0.372964631859
    C            2.176867498820     0.752442496153     0.492436995002
    C            0.940083086113     0.542077695014    -1.702230544059
    H            1.781981491636    -1.046137525288    -0.601490666018
    H            2.430035094986     0.241190467519     1.412027830816
    H            3.093864908131     0.986710712628    -0.035046840931
    H            1.678381738084     1.682312563495     0.740393304371
    H            1.868366354945     0.634926540827    -2.256056378453
    H            0.259742054234    -0.062039405564    -2.284748362869
    H            0.505466547001     1.521439479611    -1.582482680611

  Mulliken Charges: (a.u.)
   Center  Symbol    Alpha    Beta     Spin     Total
       1     O     4.19813  4.19813  0.00000 -0.39626
       2     C     2.80669  2.80669  0.00000  0.38663
       3     C     3.13668  3.13668  0.00000 -0.27336
       4     O     4.16403  4.16403  0.00000 -0.32806
       5     H     0.44738  0.44738  0.00000  0.10524
       6     H     0.43937  0.43937  0.00000  0.12125
       7     H     0.44599  0.44599  0.00000  0.10803
       8     C     2.93916  2.93916  0.00000  0.12169
       9     C     3.14339  3.14339  0.00000 -0.28678
      10     C     3.15430  3.15430  0.00000 -0.30859
      11     H     0.44406  0.44406  0.00000  0.11188
      12     H     0.44593  0.44593  0.00000  0.10814
      13     H     0.45277  0.45277  0.00000  0.09447
      14     H     0.44983  0.44983  0.00000  0.10034
      15     H     0.45193  0.45193  0.00000  0.09613
      16     H     0.44204  0.44204  0.00000  0.11592
      17     H     0.43833  0.43833  0.00000  0.12334

   Total alpha = 28.00000, Total beta = 28.00000, Total charge =  0.00000

*** Psi4 exiting successfully. Buy a developer a beer!
