  ==> Input File <==

--------------------------------------------------------------------------
set {
	reference rhf
	basis cc-pvtz
}

set_num_threads( 4 )
memory 2 gb

molecule MOL {
0 1

H	 2.699344	 -0.986974	 0.020072
N	 2.326826	 -0.066186	 0.000000
C	 0.934676	 -0.005420	 0.000000
H	 2.764878	 0.514411	 0.676787
C	 0.226436	 -0.001077	 -1.195129
C	 0.226436	 -0.001077	 1.195129
H	 0.759091	 -0.011439	 -2.128123
C	 -1.153391	 0.009141	 -1.189028
H	 0.759091	 -0.011439	 2.128123
C	 -1.153391	 0.009141	 1.189028
H	 -1.680905	 0.012964	 -2.124348
C	 -1.857876	 0.014675	 0.000000
H	 -1.680905	 0.012964	 2.124348
H	 -2.930222	 0.022904	 0.000000

	symmetry c1
}
set optking {
	frozen_dihedral = ("
		1 2 3 5
	")
}

ee = optimize('scf')
oeprop('DIPOLE', 'QUADRUPOLE', 'MULLIKEN_CHARGES')
f=open( 'psi4out.xyz', 'w' )
f.write( "14  " )
f.write( str(ee) + "\n" )
f.write( MOL.save_string_xyz() )
f.close()
--------------------------------------------------------------------------

    Molecular point group: c1
  Charge       = 0
  Multiplicity = 1
  Basis Set: CC-PVTZ
  Basis Set:
  @DF-RHF Final Energy:  -285.82638507498865
    Total Energy =                       -285.8263850749889343
    Molecular point group: c1
  Basis Set: CC-PVTZ
  Basis Set:
  Basis Set: CC-PVTZ
  Basis Set:
  @DF-RHF Final Energy:  -285.82829799255131
    Total Energy =                       -285.8282979925513700
  Basis Set: CC-PVTZ
  Basis Set:
  Basis Set: CC-PVTZ
  Basis Set:
  @DF-RHF Final Energy:  -285.82864473538262
    Total Energy =                       -285.8286447353826247
  Basis Set: CC-PVTZ
  Basis Set:
  Basis Set: CC-PVTZ
  Basis Set:
  @DF-RHF Final Energy:  -285.82866810696419
    Total Energy =                       -285.8286681069644146
  Basis Set: CC-PVTZ
  Basis Set:
  Charge       = 0
  Multiplicity = 1
  Basis Set: CC-PVTZ
  Basis Set:

    Orbital Energies (a.u.)
    -----------------------

    Doubly Occupied:

       1A    -15.546540     2A    -11.262318     3A    -11.228600
       4A    -11.227262     5A    -11.222906     6A    -11.221522
       7A    -11.218798     8A     -1.214107     9A     -1.132175
      10A     -1.015797    11A     -0.990208    12A     -0.831583
      13A     -0.811386    14A     -0.706248    15A     -0.669896
      16A     -0.649231    17A     -0.623173    18A     -0.594327
      19A     -0.585464    20A     -0.511958    21A     -0.503521
      22A     -0.494042    23A     -0.426445    24A     -0.336661
      25A     -0.319423

  @DF-RHF Final Energy:  -285.82867044178136

   => Energetics <=

    Nuclear Repulsion Energy =            273.1207223090608522
    One-Electron Energy =                -927.2116089288086869
    Two-Electron Energy =                 368.2622161779664793
    DFT Exchange-Correlation Energy =       0.0000000000000000
    Empirical Dispersion Energy =           0.0000000000000000
    PCM Polarization Energy =               0.0000000000000000
    EFP Energy =                            0.0000000000000000
    Total Energy =                       -285.8286704417813553
    Molecular point group: c1
  Basis Set: CC-PVTZ
  Basis Set:

  -Total Gradient:
     Atom            X                  Y                   Z
    ------   -----------------  -----------------  -----------------
       1        0.000110618638    -0.000096075880     0.003066867035
       2       -0.000087461179     0.001194365210    -0.003884196713
       3       -0.000073358141    -0.003364700697     0.000493564364
       4       -0.000007217961    -0.000012410179     0.000048426821
       5        0.000213254857     0.002311791354     0.000115127701
       6       -0.000136834172    -0.000041307047     0.000127834082
       7        0.000005766721     0.000010545983    -0.000008440326
       8       -0.000169683117    -0.000065775246     0.000131077179
       9        0.000001335499     0.000009357471    -0.000014781663
      10        0.000163880333    -0.000007627914     0.000087128436
      11        0.000017325299     0.000012117812     0.000009270047
      12       -0.000001392251     0.000058516244    -0.000187898803
      13       -0.000027325763    -0.000001688562    -0.000013209487
      14       -0.000008908760    -0.000007108552     0.000029231330

  **** Optimization is complete! (in 5 steps) ****
    Final optimized geometry and variables:
    Molecular point group: c1

    Geometry (in Angstrom), charge = 0, multiplicity = 1:

    H            2.723679066893    -0.931601973539    -0.068813611536
    N            2.350618942754    -0.005175522509    -0.043814961617
    C            0.927120439264    -0.018843674207    -0.000550158256
    H            2.728171936652     0.438777226767     0.765676467277
    C            0.224492565139    -0.007402316503    -1.194344263062
    C            0.222083579948     0.007855449444     1.192281699924
    H            0.771615739967     0.003096207694    -2.116972448854
    C           -1.156802460144    -0.001544746211    -1.193934788039
    H            0.756443194016     0.006663699612     2.124472042291
    C           -1.159974998629     0.034950209067     1.190891667405
    H           -1.686933698314     0.001019471598    -2.127434284768
    C           -1.856408178635     0.023238618139    -0.001822045764
    H           -1.691014070392     0.059205997191     2.123606069760
    H           -2.929248550204     0.039271549134    -0.002715881610

  Mulliken Charges: (a.u.)
   Center  Symbol    Alpha    Beta     Spin     Total
       1     H     0.42276  0.42276  0.00000  0.15449
       2     N     3.69462  3.69462  0.00000 -0.38923
       3     C     2.89822  2.89822  0.00000  0.20356
       4     H     0.42373  0.42373  0.00000  0.15254
       5     C     3.10369  3.10369  0.00000 -0.20737
       6     C     3.11296  3.11296  0.00000 -0.22592
       7     H     0.41979  0.41979  0.00000  0.16043
       8     C     3.06447  3.06447  0.00000 -0.12894
       9     H     0.42932  0.42932  0.00000  0.14136
      10     C     3.07072  3.07072  0.00000 -0.14145
      11     H     0.42332  0.42332  0.00000  0.15335
      12     C     3.08874  3.08874  0.00000 -0.17749
      13     H     0.42373  0.42373  0.00000  0.15255
      14     H     0.42394  0.42394  0.00000  0.15212

   Total alpha = 25.00000, Total beta = 25.00000, Total charge =  0.00000
