  ==> Input File <==

--------------------------------------------------------------------------
set {
	reference rhf
	basis 6-31G*
}

set_num_threads( 4 )
memory 2 gb

molecule MOL {
0 1

H	 3.296744	 -0.447908	 -0.013499
C	 2.237514	 -0.262315	 -0.010597
C	 1.719348	 0.766489	 0.766531
C	 1.398538	 -1.049907	 -0.781179
H	 2.377042	 1.373459	 1.361974
C	 0.359528	 1.007559	 0.772580
H	 1.802988	 -1.844793	 -1.381030
C	 0.034522	 -0.807048	 -0.774247
H	 -0.060792	 1.797588	 1.366159
C	 -0.488460	 0.219100	 0.000000
H	 -0.622767	 -1.415845	 -1.371143
C	 -1.949954	 0.470334	 0.000000
O	 -2.781584	 -0.381627	 0.000000
H	 -2.238022	 1.526388	 0.000000

	symmetry c1
}
set optking {
	frozen_dihedral = ("
		8 10 12 14
	")
}

ee = optimize('scf')
oeprop('DIPOLE', 'QUADRUPOLE', 'MULLIKEN_CHARGES')
f=open( 'psi4out.xyz', 'w' )
f.write( "14  " )
f.write( str(ee) + "\n" )
f.write( MOL.save_string_xyz() )
f.close()
--------------------------------------------------------------------------

    Molecular point group: c1
  Charge       = 0
  Multiplicity = 1
  Basis Set: 6-31G*
  Basis Set:
  @DF-RHF Final Energy:  -343.42721980840889
    Total Energy =                       -343.4272198084088359
    Molecular point group: c1
  Basis Set: 6-31G*
  Basis Set:
  Basis Set: 6-31G*
  Basis Set:
  @DF-RHF Final Energy:  -343.42510658402949
    Total Energy =                       -343.4251065840298338
  Basis Set: 6-31G*
  Basis Set:
  Basis Set: 6-31G*
  Basis Set:
  @DF-RHF Final Energy:  -343.42798953130620
    Total Energy =                       -343.4279895313063093
  Basis Set: 6-31G*
  Basis Set:
  Basis Set: 6-31G*
  Basis Set:
  @DF-RHF Final Energy:  -343.42810007950590
    Total Energy =                       -343.4281000795057253
  Basis Set: 6-31G*
  Basis Set:
  Basis Set: 6-31G*
  Basis Set:
  @DF-RHF Final Energy:  -343.42810260176043
    Total Energy =                       -343.4281026017604290
  Basis Set: 6-31G*
  Basis Set:
  Charge       = 0
  Multiplicity = 1
  Basis Set: 6-31G*
  Basis Set:

    Orbital Energies (a.u.)
    -----------------------

    Doubly Occupied:

       1A    -20.565164     2A    -11.332506     3A    -11.252195
       4A    -11.248894     5A    -11.248238     6A    -11.247042
       7A    -11.244824     8A    -11.243142     9A     -1.405218
      10A     -1.170592    11A     -1.046520    12A     -1.030818
      13A     -0.888518    14A     -0.842934    15A     -0.791883
      16A     -0.720873    17A     -0.677386    18A     -0.651948
      19A     -0.624567    20A     -0.617527    21A     -0.602235
      22A     -0.546250    23A     -0.526823    24A     -0.506457
      25A     -0.502634    26A     -0.422058    27A     -0.348662
      28A     -0.346737

  @DF-RHF Final Energy:  -343.42810329779951

   => Energetics <=

    Nuclear Repulsion Energy =            322.9316744689394341
    One-Electron Energy =               -1105.4142672544412562
    Two-Electron Energy =                 439.0544894877021989
    DFT Exchange-Correlation Energy =       0.0000000000000000
    Empirical Dispersion Energy =           0.0000000000000000
    PCM Polarization Energy =               0.0000000000000000
    EFP Energy =                            0.0000000000000000
    Total Energy =                       -343.4281032977995665
    Molecular point group: c1
  Basis Set: 6-31G*
  Basis Set:

  -Total Gradient:
     Atom            X                  Y                   Z
    ------   -----------------  -----------------  -----------------
       1        0.000003427086     0.000013817693    -0.000000156347
       2       -0.000027541176    -0.000113357601    -0.000076021145
       3       -0.000119127337     0.000061002485     0.000059404691
       4        0.000147398811     0.000046190569     0.000036652813
       5        0.000010594510    -0.000005089185    -0.000010143060
       6        0.000156754553     0.000017844727     0.000062485006
       7       -0.000008650209    -0.000003558665     0.000002708509
       8        0.000686463274     0.003705246814    -0.004050437549
       9       -0.000007770979    -0.000006792643    -0.000007440860
      10       -0.001150040771    -0.005298652840     0.003743918911
      11        0.000001408505    -0.000000956411    -0.000005453436
      12        0.000117993636     0.001357824998     0.007030076871
      13       -0.000007181347     0.000023337508     0.000005638143
      14        0.000196271447     0.000203142551    -0.006791232543

  **** Optimization is complete! (in 6 steps) ****
    Final optimized geometry and variables:
    Molecular point group: c1

    Geometry (in Angstrom), charge = 0, multiplicity = 1:

    H            3.305913937105    -0.417178849310    -0.023563738291
    C            2.244926102236    -0.243497568249    -0.002521932216
    C            1.728561131296     0.779137023156     0.777724689401
    C            1.399574119745    -1.036138047228    -0.765339395850
    H            2.385707071189     1.396789928252     1.362618630407
    C            0.363884614174     1.012001976907     0.788709199243
    H            1.805238327527    -1.818674671563    -1.380672427432
    C            0.033886258683    -0.818180859881    -0.735775921733
    H           -0.038238438344     1.820624810947     1.375007600939
    C           -0.489622715198     0.196983388364     0.056234702560
    H           -0.633302759743    -1.429258758621    -1.314898646091
    C           -1.949511748182     0.482678263329     0.023899265401
    O           -2.789743044717    -0.348819169966    -0.111463044076
    H           -2.220026038395     1.542652209392     0.048657727792

  Mulliken Charges: (a.u.)
   Center  Symbol    Alpha    Beta     Spin     Total
       1     H     0.39469  0.39469  0.00000  0.21063
       2     C     3.09327  3.09327  0.00000 -0.18653
       3     C     3.10276  3.10276  0.00000 -0.20552
       4     C     3.10265  3.10265  0.00000 -0.20531
       5     H     0.39491  0.39491  0.00000  0.21019
       6     C     3.10250  3.10250  0.00000 -0.20500
       7     H     0.39431  0.39431  0.00000  0.21139
       8     C     3.09282  3.09282  0.00000 -0.18565
       9     H     0.39347  0.39347  0.00000  0.21307
      10     C     3.04463  3.04463  0.00000 -0.08927
      11     H     0.38104  0.38104  0.00000  0.23791
      12     C     2.84009  2.84009  0.00000  0.31981
      13     O     4.24019  4.24019  0.00000 -0.48038
      14     H     0.42268  0.42268  0.00000  0.15465

   Total alpha = 28.00000, Total beta = 28.00000, Total charge = -0.00000
