  ==> Input File <==

--------------------------------------------------------------------------
set {
	reference rhf
	basis 6-31G*
}

set_num_threads( 4 )
memory 2 gb

molecule MOL {
0 1

O	 -0.930882	 2.136812	 1.774024
C	 -0.869704	 1.985170	 0.591782
C	 0.367765	 1.386022	 -0.053198
C	 -2.023678	 2.348122	 -0.315954
C	 0.379448	 -0.143569	 0.099626
H	 1.234562	 1.806095	 0.445307
H	 0.418933	 1.654561	 -1.104528
C	 1.631333	 -0.777471	 -0.511575
H	 0.309354	 -0.378398	 1.155717
H	 -0.504466	 -0.566045	 -0.375722
C	 2.915987	 -0.544314	 0.291766
H	 1.766672	 -0.399098	 -1.523130
H	 1.471257	 -1.849544	 -0.605828
C	 3.373361	 0.914346	 0.347591
H	 3.708709	 -1.142521	 -0.150311
H	 2.780642	 -0.921148	 1.303579
H	 3.506512	 1.320010	 -0.651625
H	 4.322697	 0.999599	 0.867103
H	 2.660624	 1.545032	 0.868198
H	 -1.735532	 3.174481	 -0.960442
H	 -2.882647	 2.635778	 0.274141
H	 -2.282077	 1.513757	 -0.961608

	symmetry c1
}
set optking {
	frozen_dihedral = ("
		3 5 8 12
	")
}

ee = optimize('scf')
oeprop('DIPOLE', 'QUADRUPOLE', 'MULLIKEN_CHARGES')
f=open( 'psi4out.xyz', 'w' )
f.write( "22  " )
f.write( str(ee) + "\n" )
f.write( MOL.save_string_xyz() )
f.close()
--------------------------------------------------------------------------

    Molecular point group: c1
  Charge       = 0
  Multiplicity = 1
  Basis Set: 6-31G*
  Basis Set:
  @DF-RHF Final Energy:  -348.08306621990471
    Total Energy =                       -348.0830662199047083
    Molecular point group: c1
  Basis Set: 6-31G*
  Basis Set:
  Basis Set: 6-31G*
  Basis Set:
  @DF-RHF Final Energy:  -348.09153134028310
    Total Energy =                       -348.0915313402829270
  Basis Set: 6-31G*
  Basis Set:
  Basis Set: 6-31G*
  Basis Set:
  @DF-RHF Final Energy:  -348.09294228049936
    Total Energy =                       -348.0929422804995284
  Basis Set: 6-31G*
  Basis Set:
  Basis Set: 6-31G*
  Basis Set:
  @DF-RHF Final Energy:  -348.09274932256369
    Total Energy =                       -348.0927493225638045
  Basis Set: 6-31G*
  Basis Set:
  @DF-RHF Final Energy:  -348.09322113051343
    Total Energy =                       -348.0932211305133706
  @DF-RHF Final Energy:  -348.09329993130308
    Total Energy =                       -348.0932999313032497
  @DF-RHF Final Energy:  -348.09332606285938
    Total Energy =                       -348.0933260628593189
  @DF-RHF Final Energy:  -348.09334036396012
    Total Energy =                       -348.0933403639599533
  @DF-RHF Final Energy:  -348.09334985144773
    Total Energy =                       -348.0933498514478401
  @DF-RHF Final Energy:  -348.09335416042575
    Total Energy =                       -348.0933541604258608
  @DF-RHF Final Energy:  -348.09335861106064
    Total Energy =                       -348.0933586110609781
  @DF-RHF Final Energy:  -348.09336035701932
    Total Energy =                       -348.0933603570192645
  @DF-RHF Final Energy:  -348.09336487778444
    Total Energy =                       -348.0933648777846656
  @DF-RHF Final Energy:  -348.09336885227998
    Total Energy =                       -348.0933688522803777
  @DF-RHF Final Energy:  -348.09337233434400
    Total Energy =                       -348.0933723343441670
  @DF-RHF Final Energy:  -348.09337532954572
    Total Energy =                       -348.0933753295456654
  @DF-RHF Final Energy:  -348.09337784932256
    Total Energy =                       -348.0933778493226214
  Basis Set: 6-31G*
  Basis Set:
  @DF-RHF Final Energy:  -348.09337990721576
    Total Energy =                       -348.0933799072157626
  Basis Set: 6-31G*
  Basis Set:
  Basis Set: 6-31G*
  Basis Set:
  @DF-RHF Final Energy:  -348.09338150785248
    Total Energy =                       -348.0933815078525413
  Basis Set: 6-31G*
  Basis Set:
  Basis Set: 6-31G*
  Basis Set:
  @DF-RHF Final Energy:  -348.09338265807418
    Total Energy =                       -348.0933826580746882
  Basis Set: 6-31G*
  Basis Set:
  Charge       = 0
  Multiplicity = 1
  Basis Set: 6-31G*
  Basis Set:

    Orbital Energies (a.u.)
    -----------------------

    Doubly Occupied:

       1A    -20.547365     2A    -11.324246     3A    -11.230998
       4A    -11.228443     5A    -11.228144     6A    -11.223513
       7A    -11.220750     8A    -11.212355     9A     -1.393068
      10A     -1.093794    11A     -1.042427    12A     -0.998859
      13A     -0.944813    14A     -0.855898    15A     -0.785315
      16A     -0.734724    17A     -0.656407    18A     -0.651967
      19A     -0.623627    20A     -0.609282    21A     -0.596348
      22A     -0.593277    23A     -0.555735    24A     -0.551964
      25A     -0.530950    26A     -0.527845    27A     -0.497026
      28A     -0.487322    29A     -0.471404    30A     -0.463834
      31A     -0.454221    32A     -0.395763

  @DF-RHF Final Energy:  -348.09338287685119

   => Energetics <=

    Nuclear Repulsion Energy =            377.5978394154224702
    One-Electron Energy =               -1219.9190788018581770
    Two-Electron Energy =                 494.2278565095843987
    DFT Exchange-Correlation Energy =       0.0000000000000000
    Empirical Dispersion Energy =           0.0000000000000000
    PCM Polarization Energy =               0.0000000000000000
    EFP Energy =                            0.0000000000000000
    Total Energy =                       -348.0933828768513649
    Molecular point group: c1
  Basis Set: 6-31G*
  Basis Set:

  -Total Gradient:
     Atom            X                  Y                   Z
    ------   -----------------  -----------------  -----------------
       1       -0.000000445331     0.000001563974    -0.000000492668
       2        0.000001497405    -0.000000205485    -0.000000096102
       3       -0.000275039430    -0.000025782892    -0.000527590644
       4       -0.000001114442    -0.000004768698    -0.000001358806
       5        0.000507713955     0.000180869267     0.000832073097
       6       -0.000001404526    -0.000000801511     0.000000289015
       7        0.000000203092    -0.000000077649    -0.000000205000
       8       -0.000672011984    -0.000735669844    -0.000634564270
       9        0.000000710898     0.000000317500     0.000001014373
      10       -0.000000867671     0.000000780544     0.000001423043
      11       -0.000000941043     0.000000357728    -0.000001564424
      12        0.000451388424     0.000578018394     0.000320607047
      13       -0.000005060804    -0.000000116590     0.000007620973
      14       -0.000008199992     0.000004179979     0.000004827574
      15        0.000005783633     0.000004341681    -0.000001102672
      16       -0.000003912504    -0.000006775738    -0.000002688830
      17       -0.000004824031     0.000002768277    -0.000000332882
      18        0.000002732136    -0.000001824885    -0.000005016722
      19        0.000003874775    -0.000000745267     0.000006292375
      20        0.000000216879     0.000001375622     0.000000904726
      21       -0.000000117009     0.000000580549     0.000000038923
      22       -0.000000182429     0.000001615043    -0.000000078128

  **** Optimization is complete! (in 21 steps) ****
    Final optimized geometry and variables:
    Molecular point group: c1

    Geometry (in Angstrom), charge = 0, multiplicity = 1:

    O           -1.852285030092     1.117967809266     1.506241854794
    C           -1.630835273977     1.029693335391     0.336829595188
    C           -0.271636921387     0.576417407433    -0.166856986183
    C           -2.690227580724     1.341365962602    -0.697243773858
    C           -0.182675038484    -0.959662250107    -0.144664485130
    H            0.472119825720     1.011276895133     0.486650356614
    H           -0.098085569649     0.942332654704    -1.175060632885
    C            1.076047144968    -1.567718681250    -0.781450529488
    H           -0.276725953302    -1.298392482960     0.882634508466
    H           -1.043923510899    -1.359799348367    -0.676316838062
    C            2.382954683949    -1.466323148061     0.023876377257
    H            1.228159854941    -1.138297831930    -1.770305566311
    H            0.868705603325    -2.622604734251    -0.940145055973
    C            3.146812143259    -0.145293585651    -0.098599551212
    H            3.042289367268    -2.261184775202    -0.315198933952
    H            2.178117963135    -1.675007841796     1.071588560557
    H            3.349773547688     0.090638960773    -1.139688328135
    H            4.101408586710    -0.211500710632     0.414322664364
    H            2.608178779925     0.690513928744     0.330813042455
    H           -2.410788441444     2.238738272216    -1.243163173011
    H           -3.643955435779     1.499718615503    -0.213381440053
    H           -2.772892485499     0.537843915266    -1.422964171253

  Mulliken Charges: (a.u.)
   Center  Symbol    Alpha    Beta     Spin     Total
       1     O     4.26205  4.26205  0.00000 -0.52410
       2     C     2.73767  2.73767  0.00000  0.52466
       3     C     3.20119  3.20119  0.00000 -0.40239
       4     C     3.28956  3.28956  0.00000 -0.57911
       5     C     3.16297  3.16297  0.00000 -0.32594
       6     H     0.39867  0.39867  0.00000  0.20265
       7     H     0.41721  0.41721  0.00000  0.16558
       8     C     3.15511  3.15511  0.00000 -0.31021
       9     H     0.40657  0.40657  0.00000  0.18685
      10     H     0.42002  0.42002  0.00000  0.15996
      11     C     3.15421  3.15421  0.00000 -0.30842
      12     H     0.42329  0.42329  0.00000  0.15341
      13     H     0.41740  0.41740  0.00000  0.16520
      14     C     3.24131  3.24131  0.00000 -0.48262
      15     H     0.41959  0.41959  0.00000  0.16082
      16     H     0.41955  0.41955  0.00000  0.16090
      17     H     0.42238  0.42238  0.00000  0.15524
      18     H     0.41801  0.41801  0.00000  0.16399
      19     H     0.41965  0.41965  0.00000  0.16070
      20     H     0.40661  0.40661  0.00000  0.18678
      21     H     0.39702  0.39702  0.00000  0.20596
      22     H     0.40995  0.40995  0.00000  0.18010

   Total alpha = 32.00000, Total beta = 32.00000, Total charge =  0.00000
