                              Psi4 1.0.54 Driver

  ==> Input File <==

--------------------------------------------------------------------------
set {
	reference rhf
	basis cc-pvtz
}

set_num_threads( 4 )
memory 2 gb

molecule MOL {
0 1

O	 -2.817697	 1.304178	 0.001046
C	 -2.664672	 0.129869	 0.003507
C	 -3.797908	 -0.860100	 -0.001145
O	 -1.481217	 -0.452708	 0.001092
H	 -4.408836	 -0.679689	 -0.875387
H	 -3.443486	 -1.878443	 -0.002770
H	 -4.412123	 -0.683688	 0.871605
C	 -0.332055	 0.384012	 -0.000250
C	 0.892252	 -0.506059	 -0.000295
H	 -0.360822	 1.020205	 -0.874146
H	 -0.359817	 1.021310	 0.872861
C	 2.188199	 0.299473	 -0.001416
H	 0.857046	 -1.152781	 -0.871031
H	 0.857910	 -1.151798	 0.871202
C	 3.431986	 -0.569514	 -0.165672
H	 2.157719	 1.034213	 -0.802169
H	 2.265898	 0.862484	 0.925383
C	 4.727307	 0.234945	 -0.165656
H	 3.356328	 -1.131305	 -1.092345
H	 3.463612	 -1.304034	 0.634057
H	 4.740478	 0.955699	 -0.976326
H	 5.589718	 -0.410676	 -0.283668
H	 4.848427	 0.781893	 0.763338

	symmetry c1
}
set optking {
	frozen_dihedral = ("
		16 12 9 13
	")
}

ee,wfn = optimize('scf', return_wfn=True)
oeprop( wfn, 'DIPOLE', 'QUADRUPOLE', 'MULLIKEN_CHARGES')
f=open( 'psi4out.xyz', 'w' )
f.write( "23  " )
f.write( str(ee) + "\n" )
f.write( MOL.save_string_xyz() )
f.close()
--------------------------------------------------------------------------

    Molecular point group: c1
  Charge       = 0
  Multiplicity = 1
  Basis Set: CC-PVTZ
  Basis Set:
  @DF-RHF Final Energy:  -423.13466185384527
    Total Energy =                       -423.1346618538455004
    Molecular point group: c1
  Basis Set: CC-PVTZ
  Basis Set:
  Basis Set: CC-PVTZ
  Basis Set:
  @DF-RHF Final Energy:  -423.13446085712940
    Total Energy =                       -423.1344608571290564
  Basis Set: CC-PVTZ
  Basis Set:
  Basis Set: CC-PVTZ
  Basis Set:
  @DF-RHF Final Energy:  -423.13466437802657
    Total Energy =                       -423.1346643780268550
  Basis Set: CC-PVTZ
  Basis Set:
  Basis Set: CC-PVTZ
  Basis Set:
  @DF-RHF Final Energy:  -423.13469173287746
    Total Energy =                       -423.1346917328776271
  Basis Set: CC-PVTZ
  Basis Set:
  Charge       = 0
  Multiplicity = 1
  Basis Set: CC-PVTZ
  Basis Set:

    Orbital Energies (a.u.)
    -----------------------

    Doubly Occupied:

       1A    -20.595982     2A    -20.529554     3A    -11.366429
       4A    -11.279551     5A    -11.230676     6A    -11.222267
       7A    -11.221320     8A    -11.219537     9A    -11.210906
      10A     -1.471211    11A     -1.364045    12A     -1.095298
      13A     -1.043346    14A     -1.004293    15A     -0.931762
      16A     -0.842456    17A     -0.803235    18A     -0.776194
      19A     -0.694722    20A     -0.688348    21A     -0.671371
      22A     -0.647773    23A     -0.607141    24A     -0.589326
      25A     -0.584160    26A     -0.567158    27A     -0.559740
      28A     -0.538643    29A     -0.524052    30A     -0.505747
      31A     -0.491582    32A     -0.478335    33A     -0.470845
      34A     -0.467294    35A     -0.455238    36A     -0.438955

  @DF-RHF Final Energy:  -423.13469209507980

   => Energetics <=

    Nuclear Repulsion Energy =            450.4570454666179558
    One-Electron Energy =               -1468.8064997157785001
    Two-Electron Energy =                 595.2147621540805176
    DFT Exchange-Correlation Energy =       0.0000000000000000
    Empirical Dispersion Energy =           0.0000000000000000
    PCM Polarization Energy =               0.0000000000000000
    EFP Energy =                            0.0000000000000000
    Total Energy =                       -423.1346920950800268
    Molecular point group: c1
  Basis Set: CC-PVTZ
  Basis Set:

  -Total Gradient:
     Atom            X                  Y                   Z
    ------   -----------------  -----------------  -----------------
       1       -0.000023354265    -0.000005761758    -0.000005925817
       2        0.000022428274    -0.000028686154     0.000007944025
       3       -0.000010672216     0.000028391922     0.000001801146
       4       -0.000046415755    -0.000005513465    -0.000026420215
       5        0.000015447557    -0.000002752127     0.000019116600
       6        0.000004108199     0.000007479581    -0.000000545553
       7        0.000013698973    -0.000001312622    -0.000021264728
       8        0.000055033070     0.000030529185     0.000030708227
       9       -0.000696334279     0.001148003640    -0.000510923974
      10       -0.000019813013    -0.000007044034    -0.000001274890
      11        0.000005015496    -0.000015991808    -0.000018189429
      12        0.000669749690    -0.001072562625    -0.000699758491
      13        0.000496667115    -0.000785605805     0.000569567946
      14       -0.000015973351     0.000001164831     0.000014929281
      15       -0.000015007202     0.000001332495    -0.000064643283
      16       -0.000442915198     0.000709336333     0.000674983614
      17        0.000000911980    -0.000003540787     0.000011102332
      18       -0.000001980495    -0.000000956210     0.000026226948
      19        0.000017271318     0.000009410980     0.000010182097
      20        0.000008116431     0.000027414630    -0.000022448525
      21       -0.000016788383    -0.000027735729     0.000012629112
      22       -0.000007621999    -0.000003580899     0.000009835130
      23       -0.000011571939    -0.000002019577    -0.000017631552

  **** Optimization is complete! (in 5 steps) ****
    Final optimized geometry and variables:
    Molecular point group: c1

    Geometry (in Angstrom), charge = 0, multiplicity = 1:

    O           -2.817818669554     1.300813840923     0.038316763361
    C           -2.664151784092     0.126565626462     0.044499959300
    C           -3.796879839675    -0.863940296959     0.063627763189
    O           -1.480418791759    -0.455187235245     0.035403682581
    H           -4.419783665946    -0.690830212081    -0.803628914079
    H           -3.441923678513    -1.882125128212     0.065411034234
    H           -4.399124503466    -0.680658929853     0.943314336265
    C           -0.332201350224     0.382179513914     0.016979854087
    C            0.892674225188    -0.506346302784     0.007052025071
    H           -0.371156634584     1.014158073294    -0.859550652990
    H           -0.349829102647     1.024011414609     0.887226738551
    C            2.189196946181     0.298862634872     0.015932160621
    H            0.860015498276    -1.150640695100    -0.865729044971
    H            0.859811472282    -1.159798032136     0.873070023046
    C            3.435249044900    -0.568955213404    -0.131503093297
    H            2.165905304811     1.037639120552    -0.781658016475
    H            2.254524382105     0.862877105361     0.943233200237
    C            4.730739046392     0.234161860724    -0.093407249606
    H            3.379517276643    -1.119615775853    -1.066183079273
    H            3.448839165568    -1.313024773103     0.660020571819
    H            4.761552009826     0.965200569301    -0.894369006297
    H            5.594901953491    -0.410919199053    -0.201365879128
    H            4.832426118197     0.769066036070     0.844877393699

  Mulliken Charges: (a.u.)
   Center  Symbol    Alpha    Beta     Spin     Total
       1     O     4.20244  4.20244  0.00000 -0.40487
       2     C     2.81523  2.81523  0.00000  0.36954
       3     C     3.14003  3.14003  0.00000 -0.28006
       4     O     4.14459  4.14459  0.00000 -0.28917
       5     H     0.44211  0.44211  0.00000  0.11578
       6     H     0.44185  0.44185  0.00000  0.11630
       7     H     0.44212  0.44212  0.00000  0.11576
       8     C     2.97880  2.97880  0.00000  0.04239
       9     C     3.08110  3.08110  0.00000 -0.16219
      10     H     0.45386  0.45386  0.00000  0.09229
      11     H     0.45418  0.45418  0.00000  0.09164
      12     C     3.09775  3.09775  0.00000 -0.19551
      13     H     0.45124  0.45124  0.00000  0.09752
      14     H     0.45061  0.45061  0.00000  0.09879
      15     C     3.08493  3.08493  0.00000 -0.16985
      16     H     0.45336  0.45336  0.00000  0.09329
      17     H     0.45263  0.45263  0.00000  0.09474
      18     C     3.14955  3.14955  0.00000 -0.29910
      19     H     0.45336  0.45336  0.00000  0.09328
      20     H     0.45354  0.45354  0.00000  0.09293
      21     H     0.45450  0.45450  0.00000  0.09101
      22     H     0.44770  0.44770  0.00000  0.10460
      23     H     0.45454  0.45454  0.00000  0.09092

   Total alpha = 36.00000, Total beta = 36.00000, Total charge = -0.00000

*** Psi4 exiting successfully. Buy a developer a beer!
