  ==> Input File <==

--------------------------------------------------------------------------
set {
	reference rhf
	basis 6-31G*
}

set_num_threads( 1 )
memory 2 gb

molecule MOL {
0 1

O	 2.862325	 1.357334	 0.000267
C	 2.843464	 0.164689	 -0.000222
C	 1.546494	 -0.624492	 -0.000609
C	 4.124123	 -0.644674	 -0.000428
C	 0.291004	 0.242674	 0.000989
H	 1.557904	 -1.283758	 -0.867573
H	 1.558622	 -1.285963	 0.864672
C	 0.458881	 1.515824	 0.832053
H	 -0.542716	 -0.339158	 0.381136
H	 0.035389	 0.500470	 -1.021924
C	 -0.794442	 2.392645	 0.842001
H	 0.718514	 1.250080	 1.855781
H	 1.297582	 2.093727	 0.446469
C	 -0.634444	 3.668030	 1.671343
H	 -1.633345	 1.816176	 1.227934
H	 -1.054425	 2.659629	 -0.180802
C	 -1.890594	 4.538514	 1.676623
H	 -0.375722	 3.402390	 2.694242
H	 0.202899	 4.245861	 1.285564
H	 -2.739100	 3.999718	 2.088797
H	 -1.746480	 5.434271	 2.272903
H	 -2.155734	 4.850139	 0.670275
H	 4.165367	 -1.288615	 -0.874074
H	 4.976217	 0.020734	 -0.001915
H	 4.166763	 -1.286207	 0.874930

	symmetry c1
}
set optking {
	frozen_dihedral = ("
		9 5 8 12,
		15 11 8 12,
		15 11 14 18,
		1 2 3 6
	")
}

ee = energy('scf')
oeprop('DIPOLE', 'QUADRUPOLE', 'MULLIKEN_CHARGES')
f=open( 'psi4out.xyz', 'w' )
f.write( "25  " )
f.write( str(ee) + "\n" )
f.write( MOL.save_string_xyz() )
f.close()
--------------------------------------------------------------------------

    Molecular point group: c1

    Geometry (in Angstrom), charge = 0, multiplicity = 1:

       Center              X                  Y                   Z               Mass
    ------------   -----------------  -----------------  -----------------  -----------------
           O          1.881884189007    -0.061119564747    -0.562278287215    15.994914619560
           C          1.863023189007    -1.253764564747    -0.562767287215    12.000000000000
           C          0.566053189007    -2.042945564747    -0.563154287215    12.000000000000
           C          3.143682189007    -2.063127564747    -0.562973287215    12.000000000000
           C         -0.689436810993    -1.175779564747    -0.561556287215    12.000000000000
           H          0.577463189007    -2.702211564747    -1.430118287215     1.007825032070
           H          0.578181189007    -2.704416564747     0.302126712785     1.007825032070
           C         -0.521559810993     0.097370435253     0.269507712785    12.000000000000
           H         -1.523156810993    -1.757611564747    -0.181409287215     1.007825032070
           H         -0.945051810993    -0.917983564747    -1.584469287215     1.007825032070
           C         -1.774882810993     0.974191435253     0.279455712785    12.000000000000
           H         -0.261926810993    -0.168373564747     1.293235712785     1.007825032070
           H          0.317141189007     0.675273435253    -0.116076287215     1.007825032070
           C         -1.614884810993     2.249576435253     1.108797712785    12.000000000000
           H         -2.613785810993     0.397722435253     0.665388712785     1.007825032070
           H         -2.034865810993     1.241175435253    -0.743347287215     1.007825032070
           C         -2.871034810993     3.120060435253     1.114077712785    12.000000000000
           H         -1.356162810993     1.983936435253     2.131696712785     1.007825032070
           H         -0.777541810993     2.827407435253     0.723018712785     1.007825032070
           H         -3.719540810993     2.581264435253     1.526251712785     1.007825032070
           H         -2.726920810993     4.015817435253     1.710357712785     1.007825032070
           H         -3.136174810993     3.431685435253     0.107729712785     1.007825032070
           H          3.184926189007    -2.707068564747    -1.436619287215     1.007825032070
           H          3.995776189007    -1.397719564747    -0.564460287215     1.007825032070
           H          3.186322189007    -2.704660564747     0.312384712785     1.007825032070

  Charge       = 0
  Multiplicity = 1
  Basis Set: 6-31G*
  Basis Set:

    Orbital Energies (a.u.)
    -----------------------

    Doubly Occupied:

       1A    -20.551916     2A    -11.332135     3A    -11.233675
       4A    -11.231228     5A    -11.215549     6A    -11.203741
       7A    -11.199821     8A    -11.198596     9A    -11.186769
      10A     -1.404985    11A     -1.084389    12A     -1.051492
      13A     -1.014592    14A     -0.961361    15A     -0.884185
      16A     -0.810591    17A     -0.780082    18A     -0.736203
      19A     -0.670765    20A     -0.642337    21A     -0.626716
      22A     -0.621620    23A     -0.590887    24A     -0.581265
      25A     -0.565624    26A     -0.550102    27A     -0.530829
      28A     -0.522078    29A     -0.511105    30A     -0.505576
      31A     -0.482963    32A     -0.467686    33A     -0.454050
      34A     -0.448442    35A     -0.431984    36A     -0.381075

  @DF-RHF Final Energy:  -387.11376692463972

   => Energetics <=

    Nuclear Repulsion Energy =            456.5491026765440097
    One-Electron Energy =               -1429.9928875048740338
    Two-Electron Energy =                 586.3300179036896225
    DFT Exchange-Correlation Energy =       0.0000000000000000
    Empirical Dispersion Energy =           0.0000000000000000
    PCM Polarization Energy =               0.0000000000000000
    EFP Energy =                            0.0000000000000000
    Total Energy =                       -387.1137669246404585

  Mulliken Charges: (a.u.)
   Center  Symbol    Alpha    Beta     Spin     Total
       1     O     4.26422  4.26422  0.00000 -0.52843
       2     C     2.73243  2.73243  0.00000  0.53515
       3     C     3.21373  3.21373  0.00000 -0.42746
       4     C     3.28689  3.28689  0.00000 -0.57378
       5     C     3.15073  3.15073  0.00000 -0.30145
       6     H     0.40640  0.40640  0.00000  0.18720
       7     H     0.40773  0.40773  0.00000  0.18453
       8     C     3.17136  3.17136  0.00000 -0.34273
       9     H     0.41935  0.41935  0.00000  0.16129
      10     H     0.41869  0.41869  0.00000  0.16263
      11     C     3.14813  3.14813  0.00000 -0.29625
      12     H     0.43376  0.43376  0.00000  0.13247
      13     H     0.37267  0.37267  0.00000  0.25465
      14     C     3.15034  3.15034  0.00000 -0.30067
      15     H     0.43165  0.43165  0.00000  0.13671
      16     H     0.42742  0.42742  0.00000  0.14517
      17     C     3.23860  3.23860  0.00000 -0.47719
      18     H     0.42508  0.42508  0.00000  0.14983
      19     H     0.42150  0.42150  0.00000  0.15699
      20     H     0.42350  0.42350  0.00000  0.15300
      21     H     0.42119  0.42119  0.00000  0.15763
      22     H     0.42290  0.42290  0.00000  0.15420
      23     H     0.40778  0.40778  0.00000  0.18444
      24     H     0.39615  0.39615  0.00000  0.20771
      25     H     0.40782  0.40782  0.00000  0.18437

   Total alpha = 36.00000, Total beta = 36.00000, Total charge =  0.00000
