                              Psi4 1.0.54 Driver

  ==> Input File <==

--------------------------------------------------------------------------
set {
	reference rhf
	basis cc-pvtz
}

set_num_threads( 4 )
memory 2 gb

molecule MOL {
0 1

O	 -1.278239	 1.034789	 -0.784693
C	 -1.204115	 0.062668	 -0.112312
C	 -2.386398	 -0.667698	 0.460323
O	 -0.068058	 -0.518372	 0.226882
H	 -2.382952	 -1.693172	 0.114333
H	 -3.296656	 -0.175702	 0.158400
H	 -2.312537	 -0.685191	 1.540100
C	 1.169086	 0.037484	 -0.230612
C	 2.185827	 -1.084963	 -0.171763
C	 1.548975	 1.228515	 0.630630
H	 1.030502	 0.359044	 -1.251632
H	 1.875715	 -1.915070	 -0.793456
H	 3.147699	 -0.733157	 -0.524958
H	 2.303728	 -1.443565	 0.843835
H	 2.491703	 1.643160	 0.293236
H	 0.797565	 2.003157	 0.567687
H	 1.659079	 0.928505	 1.666562

	symmetry c1
}
set optking {
	frozen_dihedral = ("
		11 8 4 2
	")
}

ee,wfn = optimize('scf', return_wfn=True)
oeprop( wfn, 'DIPOLE', 'QUADRUPOLE', 'MULLIKEN_CHARGES')
f=open( 'psi4out.xyz', 'w' )
f.write( "17  " )
f.write( str(ee) + "\n" )
f.write( MOL.save_string_xyz() )
f.close()
--------------------------------------------------------------------------

    Molecular point group: c1
  Charge       = 0
  Multiplicity = 1
  Basis Set: CC-PVTZ
  Basis Set:
  @DF-RHF Final Energy:  -345.04330288211560
    Total Energy =                       -345.0433028821156540
    Molecular point group: c1
  Basis Set: CC-PVTZ
  Basis Set:
  Basis Set: CC-PVTZ
  Basis Set:
  @DF-RHF Final Energy:  -345.04332132594078
    Total Energy =                       -345.0433213259406102
  Basis Set: CC-PVTZ
  Basis Set:
  Basis Set: CC-PVTZ
  Basis Set:
  @DF-RHF Final Energy:  -345.04321907613235
    Total Energy =                       -345.0432190761323454
  Basis Set: CC-PVTZ
  Basis Set:
  Basis Set: CC-PVTZ
  Basis Set:
  @DF-RHF Final Energy:  -345.04333430972980
    Total Energy =                       -345.0433343097301986
  Basis Set: CC-PVTZ
  Basis Set:
  Charge       = 0
  Multiplicity = 1
  Basis Set: CC-PVTZ
  Basis Set:

    Orbital Energies (a.u.)
    -----------------------

    Doubly Occupied:

       1A    -20.591378     2A    -20.531494     3A    -11.366679
       4A    -11.288538     5A    -11.230539     6A    -11.217617
       7A    -11.213604     8A     -1.468565     9A     -1.364493
      10A     -1.079635    11A     -1.005634    12A     -0.948568
      13A     -0.850317    14A     -0.766264    15A     -0.694699
      16A     -0.673978    17A     -0.661890    18A     -0.614541
      19A     -0.586917    20A     -0.578995    21A     -0.562961
      22A     -0.550612    23A     -0.538660    24A     -0.521440
      25A     -0.503979    26A     -0.483258    27A     -0.450869
      28A     -0.438775

  @DF-RHF Final Energy:  -345.04333470925968

   => Energetics <=

    Nuclear Repulsion Energy =            323.8381703529847186
    One-Electron Energy =               -1112.1932121884174194
    Two-Electron Energy =                 443.3117071261735873
    DFT Exchange-Correlation Energy =       0.0000000000000000
    Empirical Dispersion Energy =           0.0000000000000000
    PCM Polarization Energy =               0.0000000000000000
    EFP Energy =                            0.0000000000000000
    Total Energy =                       -345.0433347092591703
    Molecular point group: c1
  Basis Set: CC-PVTZ
  Basis Set:

  -Total Gradient:
     Atom            X                  Y                   Z
    ------   -----------------  -----------------  -----------------
       1       -0.000002263614    -0.000005921887     0.000004217397
       2        0.000043836876     0.000424772028     0.000585026448
       3       -0.000000744813     0.000000473124     0.000018322152
       4       -0.000026242823    -0.000792650289    -0.000911023186
       5        0.000001181887     0.000004001999    -0.000008528251
       6        0.000005341989     0.000002269410    -0.000003234217
       7        0.000001893655    -0.000003513459    -0.000003900332
       8       -0.000212581303     0.001117845954     0.000571053162
       9       -0.000015814925     0.000005077028     0.000002219936
      10       -0.000046342129     0.000013918684    -0.000002365829
      11        0.000222829735    -0.000740322203    -0.000258430976
      12        0.000001280120    -0.000002293134     0.000001585393
      13        0.000001768813    -0.000002214639    -0.000000150659
      14        0.000005198703    -0.000003986067     0.000000784235
      15        0.000005116757    -0.000009905501    -0.000001892975
      16        0.000007720785    -0.000007201378     0.000002526886
      17        0.000007820286    -0.000000349670     0.000003790814

  **** Optimization is complete! (in 5 steps) ****
    Final optimized geometry and variables:
    Molecular point group: c1

    Geometry (in Angstrom), charge = 0, multiplicity = 1:

    O           -1.274057762193     1.004185261029    -0.818446505305
    C           -1.200652841622     0.044878993520    -0.127838317128
    C           -2.383548138180    -0.676176320009     0.455254025205
    O           -0.064905571980    -0.530181196595     0.222131900041
    H           -2.378178207908    -1.707755132671     0.127941767557
    H           -3.293508527951    -0.190797646453     0.141998490239
    H           -2.312500287070    -0.673973091407     1.535348621209
    C            1.173671301763     0.029537988903    -0.226814889906
    C            2.187838192721    -1.095528910126    -0.165329635943
    C            1.556717043315     1.217726751111     0.636963558137
    H            1.041185298474     0.347457336693    -1.250297354326
    H            1.876425626417    -1.925525541962    -0.786469310683
    H            3.150946783193    -0.746341254555    -0.517618666774
    H            2.303520490928    -1.453354641395     0.850789205283
    H            2.503695267449     1.625160892294     0.302775998069
    H            0.811911173117     1.997915675126     0.573504937367
    H            1.662808379676     0.914481508824     1.672470812063

  Mulliken Charges: (a.u.)
   Center  Symbol    Alpha    Beta     Spin     Total
       1     O     4.19935  4.19935  0.00000 -0.39870
       2     C     2.80613  2.80613  0.00000  0.38773
       3     C     3.13890  3.13890  0.00000 -0.27779
       4     O     4.16345  4.16345  0.00000 -0.32691
       5     H     0.44581  0.44581  0.00000  0.10837
       6     H     0.43842  0.43842  0.00000  0.12316
       7     H     0.44629  0.44629  0.00000  0.10741
       8     C     2.93021  2.93021  0.00000  0.13958
       9     C     3.13824  3.13824  0.00000 -0.27649
      10     C     3.15552  3.15552  0.00000 -0.31104
      11     H     0.44321  0.44321  0.00000  0.11359
      12     H     0.44692  0.44692  0.00000  0.10616
      13     H     0.45427  0.45427  0.00000  0.09147
      14     H     0.45251  0.45251  0.00000  0.09499
      15     H     0.44982  0.44982  0.00000  0.10037
      16     H     0.43724  0.43724  0.00000  0.12553
      17     H     0.45371  0.45371  0.00000  0.09258

   Total alpha = 28.00000, Total beta = 28.00000, Total charge =  0.00000

*** Psi4 exiting successfully. Buy a developer a beer!
