  ==> Input File <==

--------------------------------------------------------------------------
set {
	reference rhf
	basis 6-31G*
}

set_num_threads( 4 )
memory 2 gb

molecule MOL {
0 1

H	 -3.413462	 0.226593	 1.683482
C	 -3.426955	 -0.025186	 0.615752
C	 -2.660244	 0.921717	 -0.272021
O	 -4.017293	 -0.983688	 0.235589
C	 -1.220012	 1.144545	 0.209990
H	 -2.686554	 0.537725	 -1.285217
H	 -3.192561	 1.872073	 -0.261204
C	 -0.252658	 0.041456	 -0.226725
H	 -0.873521	 2.100229	 -0.171974
H	 -1.211708	 1.231594	 1.295398
C	 1.180775	 0.282413	 0.250794
H	 -0.266029	 -0.034465	 -1.312038
H	 -0.597733	 -0.921000	 0.146291
C	 2.148627	 -0.814315	 -0.201312
H	 1.516199	 1.249228	 -0.115937
H	 1.192670	 0.346017	 1.338083
C	 3.580890	 -0.659131	 0.322722
H	 2.166869	 -0.852443	 -1.289387
H	 1.762857	 -1.776509	 0.128956
C	 4.324889	 0.564933	 -0.213704
H	 4.142010	 -1.551473	 0.056605
H	 3.564836	 -0.624694	 1.410140
H	 4.342616	 0.565491	 -1.300421
H	 3.866655	 1.493402	 0.110242
H	 5.353900	 0.572371	 0.132816

	symmetry c1
}
set optking {
	frozen_dihedral = ("
		6 3 5 8
	")
}

ee = optimize('scf')
oeprop('DIPOLE', 'QUADRUPOLE', 'MULLIKEN_CHARGES')
f=open( 'psi4out.xyz', 'w' )
f.write( "25  " )
f.write( str(ee) + "\n" )
f.write( MOL.save_string_xyz() )
f.close()
--------------------------------------------------------------------------

    Molecular point group: c1
  Charge       = 0
  Multiplicity = 1
  Basis Set: 6-31G*
  Basis Set:
  @DF-RHF Final Energy:  -387.12117955932359
    Total Energy =                       -387.1211795593238776
    Molecular point group: c1
  Basis Set: 6-31G*
  Basis Set:
  Basis Set: 6-31G*
  Basis Set:
  @DF-RHF Final Energy:  -387.12107513437502
    Total Energy =                       -387.1210751343751326
  Basis Set: 6-31G*
  Basis Set:
  Basis Set: 6-31G*
  Basis Set:
  @DF-RHF Final Energy:  -387.12019385622409
    Total Energy =                       -387.1201938562243186
  Basis Set: 6-31G*
  Basis Set:
  Basis Set: 6-31G*
  Basis Set:
  @DF-RHF Final Energy:  -387.12125958362708
    Total Energy =                       -387.1212595836266246
  Basis Set: 6-31G*
  Basis Set:
  Basis Set: 6-31G*
  Basis Set:
  @DF-RHF Final Energy:  -387.12131034467956
    Total Energy =                       -387.1213103446791592
  Basis Set: 6-31G*
  Basis Set:
  Basis Set: 6-31G*
  Basis Set:
  @DF-RHF Final Energy:  -387.12131704161374
    Total Energy =                       -387.1213170416142475
  Basis Set: 6-31G*
  Basis Set:
  Charge       = 0
  Multiplicity = 1
  Basis Set: 6-31G*
  Basis Set:

    Orbital Energies (a.u.)
    -----------------------

    Doubly Occupied:

       1A    -20.562412     2A    -11.326092     3A    -11.235415
       4A    -11.234641     5A    -11.223284     6A    -11.219328
       7A    -11.217795     8A    -11.216689     9A    -11.210553
      10A     -1.402268    11A     -1.103381    12A     -1.069302
      13A     -1.013136    14A     -0.942593    15A     -0.874901
      16A     -0.817340    17A     -0.790973    18A     -0.780524
      19A     -0.666535    20A     -0.661543    21A     -0.632579
      22A     -0.624521    23A     -0.602681    24A     -0.590843
      25A     -0.575618    26A     -0.551626    27A     -0.532808
      28A     -0.524257    29A     -0.510958    30A     -0.494886
      31A     -0.489775    32A     -0.480138    33A     -0.464351
      34A     -0.458582    35A     -0.441018    36A     -0.409486

  @DF-RHF Final Energy:  -387.12131715438778

   => Energetics <=

    Nuclear Repulsion Energy =            438.4053891084083148
    One-Electron Energy =               -1393.1477490830907300
    Two-Electron Energy =                 567.6210428202939511
    DFT Exchange-Correlation Energy =       0.0000000000000000
    Empirical Dispersion Energy =           0.0000000000000000
    PCM Polarization Energy =               0.0000000000000000
    EFP Energy =                            0.0000000000000000
    Total Energy =                       -387.1213171543884073
    Molecular point group: c1
  Basis Set: 6-31G*
  Basis Set:

  -Total Gradient:
     Atom            X                  Y                   Z
    ------   -----------------  -----------------  -----------------
       1       -0.000037999612     0.000003502428    -0.000012323839
       2        0.000092345627    -0.000117742684    -0.000024942017
       3        0.000184238496     0.003654628590    -0.001926282574
       4       -0.000067558169     0.000074115754     0.000018655513
       5       -0.000557924008    -0.002007078932     0.002576059130
       6        0.000068727239    -0.002585245242     0.001071771521
       7       -0.000071422008     0.000023126138    -0.000030579681
       8        0.000445647614     0.001097686878    -0.001822084706
       9        0.000009246553    -0.000007694481     0.000012612669
      10       -0.000022069683    -0.000024879532     0.000009777859
      11       -0.000013396308    -0.000041050733     0.000038989926
      12       -0.000001182953    -0.000066106583    -0.000016959523
      13        0.000000196651     0.000030359905     0.000078962363
      14       -0.000004452366    -0.000015260871    -0.000000674762
      15        0.000024404263     0.000028082512     0.000031603194
      16        0.000005275234    -0.000035670962     0.000019670006
      17        0.000028569386    -0.000024768903    -0.000069085966
      18       -0.000018083628    -0.000052512701    -0.000001749492
      19       -0.000001109515     0.000028759722     0.000039029522
      20       -0.000025833039     0.000014472423     0.000016956866
      21        0.000007771066     0.000013438440    -0.000020804928
      22        0.000005312005    -0.000028579556    -0.000004061445
      23        0.000008502135    -0.000009761506     0.000010057365
      24       -0.000057334367     0.000030206957    -0.000005373004
      25       -0.000001870598     0.000017972943     0.000010776002

  **** Optimization is complete! (in 7 steps) ****
    Final optimized geometry and variables:
    Molecular point group: c1

    Geometry (in Angstrom), charge = 0, multiplicity = 1:

    H           -3.390189162458     0.203318489266     1.610534500651
    C           -3.366008836476    -0.081709319414     0.551396899640
    C           -2.643808832826     0.885141616075    -0.354242015414
    O           -3.884974398701    -1.088624847960     0.192676678804
    C           -1.196330947412     1.127061469033     0.105399610858
    H           -2.678458076656     0.476277080947    -1.357190025927
    H           -3.199248526837     1.820849493745    -0.339735185719
    C           -0.236329087128     0.013474436063    -0.320157704045
    H           -0.850026045072     2.069389886206    -0.309107767514
    H           -1.171264261487     1.248281559186     1.187095416090
    C            1.196672360640     0.241682215893     0.164295346196
    H           -0.244483137137    -0.062307912734    -1.405340329603
    H           -0.595404228778    -0.944109787470     0.052497892340
    C            2.159429280861    -0.856949166551    -0.294182169667
    H            1.539678743938     1.209951935397    -0.191631045234
    H            1.205095177554     0.294538090558     1.252078510788
    C            3.591003739045    -0.714804076030     0.235254510849
    H            2.181216773850    -0.884994271254    -1.382447628258
    H            1.766789790972    -1.819747858081     0.025815532294
    C            4.338786381430     0.517665364657    -0.276758984125
    H            4.150671195121    -1.603546730471    -0.045382929551
    H            3.572099158769    -0.700069650264     1.323136786025
    H            4.364628315931     0.534974773152    -1.363074888306
    H            3.878238047345     1.441252013720     0.058099751981
    H            5.365146448092     0.519887915391     0.077057896920

  Mulliken Charges: (a.u.)
   Center  Symbol    Alpha    Beta     Spin     Total
       1     H     0.43242  0.43242  0.00000  0.13516
       2     C     2.83180  2.83180  0.00000  0.33640
       3     C     3.20853  3.20853  0.00000 -0.41707
       4     O     4.23694  4.23694  0.00000 -0.47387
       5     C     3.16806  3.16806  0.00000 -0.33612
       6     H     0.39912  0.39912  0.00000  0.20176
       7     H     0.40665  0.40665  0.00000  0.18669
       8     C     3.15359  3.15359  0.00000 -0.30719
       9     H     0.41336  0.41336  0.00000  0.17328
      10     H     0.41899  0.41899  0.00000  0.16202
      11     C     3.15454  3.15454  0.00000 -0.30907
      12     H     0.41893  0.41893  0.00000  0.16213
      13     H     0.41681  0.41681  0.00000  0.16638
      14     C     3.15307  3.15307  0.00000 -0.30615
      15     H     0.42116  0.42116  0.00000  0.15767
      16     H     0.42365  0.42365  0.00000  0.15271
      17     C     3.15270  3.15270  0.00000 -0.30540
      18     H     0.42337  0.42337  0.00000  0.15327
      19     H     0.42039  0.42039  0.00000  0.15922
      20     C     3.24139  3.24139  0.00000 -0.48279
      21     H     0.42000  0.42000  0.00000  0.16000
      22     H     0.42318  0.42318  0.00000  0.15364
      23     H     0.42202  0.42202  0.00000  0.15597
      24     H     0.42065  0.42065  0.00000  0.15870
      25     H     0.41867  0.41867  0.00000  0.16267

   Total alpha = 36.00000, Total beta = 36.00000, Total charge = -0.00000
