                              Psi4 1.0.54 Driver

  ==> Input File <==

--------------------------------------------------------------------------
set {
	reference rhf
	basis cc-pvtz
}

set_num_threads( 4 )
memory 2 gb

molecule MOL {
0 1

O	 1.847685	 1.294399	 -0.000190
C	 1.704209	 0.119472	 -0.000093
C	 0.380337	 -0.600947	 -0.000234
O	 2.715427	 -0.733672	 0.000025
C	 -0.824290	 0.329213	 -0.000115
H	 0.371455	 -1.255476	 -0.865660
H	 0.371410	 -1.255787	 0.864952
C	 -1.084474	 0.941951	 1.372792
H	 -1.699181	 -0.219172	 -0.330436
H	 -0.668983	 1.115034	 -0.730632
C	 -2.288967	 1.878579	 1.392629
H	 -1.236911	 0.148567	 2.101185
H	 -0.202139	 1.487773	 1.699599
C	 -2.549351	 2.490624	 2.764858
H	 -3.171000	 1.334207	 1.067307
H	 -2.137072	 2.672324	 0.666643
H	 -2.739292	 1.722160	 3.506896
H	 -3.410006	 3.149082	 2.743864
H	 -1.697346	 3.071187	 3.102896
C	 4.020999	 -0.192556	 0.000019
H	 4.182809	 0.412891	 -0.879449
H	 4.692590	 -1.035653	 0.000152
H	 4.182726	 0.413087	 0.879368

	symmetry c1
}
set optking {
	frozen_dihedral = ("
		9 5 3 6
	")
}

ee,wfn = optimize('scf', return_wfn=True)
oeprop( wfn, 'DIPOLE', 'QUADRUPOLE', 'MULLIKEN_CHARGES')
f=open( 'psi4out.xyz', 'w' )
f.write( "23  " )
f.write( str(ee) + "\n" )
f.write( MOL.save_string_xyz() )
f.close()
--------------------------------------------------------------------------

    Molecular point group: c1
  Charge       = 0
  Multiplicity = 1
  Basis Set: CC-PVTZ
  Basis Set:
  @DF-RHF Final Energy:  -423.13000698690996
    Total Energy =                       -423.1300069869099616
    Molecular point group: c1
  Basis Set: CC-PVTZ
  Basis Set:
  Basis Set: CC-PVTZ
  Basis Set:
  @DF-RHF Final Energy:  -423.13023065038061
    Total Energy =                       -423.1302306503806676
  Basis Set: CC-PVTZ
  Basis Set:
  Basis Set: CC-PVTZ
  Basis Set:
  @DF-RHF Final Energy:  -423.13006467270435
    Total Energy =                       -423.1300646727047479
  Basis Set: CC-PVTZ
  Basis Set:
  Basis Set: CC-PVTZ
  Basis Set:
  @DF-RHF Final Energy:  -423.13031624133049
    Total Energy =                       -423.1303162413307746
  Basis Set: CC-PVTZ
  Basis Set:
  Basis Set: CC-PVTZ
  Basis Set:
  @DF-RHF Final Energy:  -423.13034188295018
    Total Energy =                       -423.1303418829502334
  Basis Set: CC-PVTZ
  Basis Set:
  Basis Set: CC-PVTZ
  Basis Set:
  @DF-RHF Final Energy:  -423.13035317378967
    Total Energy =                       -423.1303531737896719
  Basis Set: CC-PVTZ
  Basis Set:
  Charge       = 0
  Multiplicity = 1
  Basis Set: CC-PVTZ
  Basis Set:

    Orbital Energies (a.u.)
    -----------------------

    Doubly Occupied:

       1A    -20.597124     2A    -20.534813     3A    -11.365496
       4A    -11.279059     5A    -11.233961     6A    -11.217250
       7A    -11.211256     8A    -11.210163     9A    -11.204445
      10A     -1.473053    11A     -1.366458    12A     -1.092082
      13A     -1.042639    14A     -0.987104    15A     -0.931157
      16A     -0.844010    17A     -0.794165    18A     -0.768358
      19A     -0.704625    20A     -0.684034    21A     -0.675760
      22A     -0.640657    23A     -0.613816    24A     -0.600341
      25A     -0.569499    26A     -0.558745    27A     -0.553741
      28A     -0.532194    29A     -0.524232    30A     -0.500186
      31A     -0.491687    32A     -0.467007    33A     -0.465347
      34A     -0.458685    35A     -0.452374    36A     -0.440172

  @DF-RHF Final Energy:  -423.13035369023942

   => Energetics <=

    Nuclear Repulsion Energy =            462.4555774245147859
    One-Electron Energy =               -1493.0004703077395334
    Two-Electron Energy =                 607.4145391929854441
    DFT Exchange-Correlation Energy =       0.0000000000000000
    Empirical Dispersion Energy =           0.0000000000000000
    PCM Polarization Energy =               0.0000000000000000
    EFP Energy =                            0.0000000000000000
    Total Energy =                       -423.1303536902393034
    Molecular point group: c1
  Basis Set: CC-PVTZ
  Basis Set:

  -Total Gradient:
     Atom            X                  Y                   Z
    ------   -----------------  -----------------  -----------------
       1        0.000038277645    -0.000036656626    -0.000022359118
       2       -0.000075348912    -0.000030853281     0.000071691570
       3        0.000944498527     0.001404224133    -0.001225400129
       4       -0.000137370395     0.000026158701    -0.000035107013
       5       -0.000488001298    -0.000720122506     0.001808865696
       6       -0.000758660109    -0.000999710384     0.000734387256
       7       -0.000002472333    -0.000004708424    -0.000006277586
       8       -0.000036034430    -0.000061591139     0.000015471209
       9        0.000280555778     0.000391278220    -0.001319086752
      10       -0.000007360501     0.000008541935    -0.000031144845
      11       -0.000036480020    -0.000021966431    -0.000004126522
      12       -0.000010482357     0.000000442736     0.000013482830
      13        0.000014209195    -0.000009904627     0.000010187461
      14        0.000039210399     0.000025590158    -0.000013286327
      15        0.000008556198    -0.000013815538     0.000008190946
      16       -0.000009098363    -0.000001623643    -0.000006341330
      17       -0.000004624138    -0.000002382280    -0.000017887634
      18        0.000012042278     0.000005301044    -0.000012072145
      19        0.000005140050     0.000004323313     0.000020845423
      20        0.000181695187     0.000036780672     0.000017365829
      21        0.000007221209    -0.000009150280     0.000021454289
      22        0.000019659412     0.000023641094    -0.000005878334
      23        0.000014866980    -0.000013796845    -0.000022974773

  **** Optimization is complete! (in 7 steps) ****
    Final optimized geometry and variables:
    Molecular point group: c1

    Geometry (in Angstrom), charge = 0, multiplicity = 1:

    O            1.398035280230     0.671526181041    -0.777485722772
    C            1.249029689588    -0.494119904879    -0.632803023172
    C           -0.075619301464    -1.215803848100    -0.622146890860
    O            2.255759006242    -1.337676739833    -0.478148576442
    C           -1.292828530448    -0.297316313409    -0.610968742010
    H           -0.084216806950    -1.860901691440    -1.494664675929
    H           -0.077499539370    -1.885420334672     0.230797857301
    C           -1.586688249968     0.319266149182     0.753814594134
    H           -2.153105033211    -0.868263246086    -0.946070818017
    H           -1.144413782565     0.490681111368    -1.339580458843
    C           -2.793436501612     1.252766568368     0.739024036574
    H           -1.757820493009    -0.475360722702     1.477227314077
    H           -0.715166431780     0.868702906246     1.094973204503
    C           -3.090991896002     1.866625787459     2.102853416470
    H           -3.666839978624     0.707297748039     0.391137390072
    H           -2.621128097467     2.045907728586     0.017289339448
    H           -3.302475096164     1.099237551104     2.840315235321
    H           -3.949782158154     2.526478331573     2.057484319592
    H           -2.247350090043     2.445935735318     2.462654657047
    C            3.563116918714    -0.800363419510    -0.499726345745
    H            3.761184566729    -0.317134459175    -1.444936253703
    H            4.230384321638    -1.635519674753    -0.361710715089
    H            3.693636429441    -0.083212204365     0.296951681744

  Mulliken Charges: (a.u.)
   Center  Symbol    Alpha    Beta     Spin     Total
       1     O     4.19944  4.19944  0.00000 -0.39889
       2     C     2.80304  2.80304  0.00000  0.39392
       3     C     3.11148  3.11148  0.00000 -0.22296
       4     O     4.14596  4.14596  0.00000 -0.29193
       5     C     3.09323  3.09323  0.00000 -0.18645
       6     H     0.43193  0.43193  0.00000  0.13614
       7     H     0.43906  0.43906  0.00000  0.12187
       8     C     3.08665  3.08665  0.00000 -0.17331
       9     H     0.44644  0.44644  0.00000  0.10713
      10     H     0.44471  0.44471  0.00000  0.11058
      11     C     3.08569  3.08569  0.00000 -0.17137
      12     H     0.45781  0.45781  0.00000  0.08439
      13     H     0.44731  0.44731  0.00000  0.10537
      14     C     3.15014  3.15014  0.00000 -0.30028
      15     H     0.45599  0.45599  0.00000  0.08801
      16     H     0.45169  0.45169  0.00000  0.09663
      17     H     0.45631  0.45631  0.00000  0.08739
      18     H     0.44869  0.44869  0.00000  0.10263
      19     H     0.45372  0.45372  0.00000  0.09255
      20     C     3.03673  3.03673  0.00000 -0.07347
      21     H     0.45433  0.45433  0.00000  0.09134
      22     H     0.44533  0.44533  0.00000  0.10935
      23     H     0.45431  0.45431  0.00000  0.09137

   Total alpha = 36.00000, Total beta = 36.00000, Total charge = -0.00000

*** Psi4 exiting successfully. Buy a developer a beer!
