  ==> Input File <==

--------------------------------------------------------------------------
set {
	reference rhf
	basis 6-31G*
}

set_num_threads( 4 )
memory 2 gb

molecule MOL {
0 1

H	 2.734370	 0.868716	 -2.277273
O	 1.805768	 0.722208	 -2.390592
C	 1.181709	 0.623749	 -1.196755
C	 1.861827	 0.731053	 0.009574
C	 -0.185356	 0.408064	 -1.203464
H	 2.925713	 0.898904	 0.012574
C	 1.175182	 0.622719	 1.207260
H	 -0.711903	 0.324990	 -2.134551
C	 -0.865228	 0.300799	 0.000000
H	 1.712312	 0.707463	 2.134454
C	 -0.191076	 0.407162	 1.209949
C	 -2.333960	 0.069074	 0.000000
H	 -0.726418	 0.322700	 2.139078
O	 -2.847347	 -1.003763	 0.000000
H	 -2.943845	 0.977528	 0.000000

	symmetry c1
}
set optking {
	frozen_dihedral = ("
		11 9 12 14
	")
}

ee = optimize('scf')
oeprop('DIPOLE', 'QUADRUPOLE', 'MULLIKEN_CHARGES')
f=open( 'psi4out.xyz', 'w' )
f.write( "15  " )
f.write( str(ee) + "\n" )
f.write( MOL.save_string_xyz() )
f.close()
--------------------------------------------------------------------------

    Molecular point group: c1
  Charge       = 0
  Multiplicity = 1
  Basis Set: 6-31G*
  Basis Set:
  @DF-RHF Final Energy:  -418.27314818670862
    Total Energy =                       -418.2731481867081129
    Molecular point group: c1
  Basis Set: 6-31G*
  Basis Set:
  Basis Set: 6-31G*
  Basis Set:
  @DF-RHF Final Energy:  -418.27340835050734
    Total Energy =                       -418.2734083505073386
  Basis Set: 6-31G*
  Basis Set:
  Basis Set: 6-31G*
  Basis Set:
  @DF-RHF Final Energy:  -418.27265291784028
    Total Energy =                       -418.2726529178401051
  Basis Set: 6-31G*
  Basis Set:
  Basis Set: 6-31G*
  Basis Set:
  @DF-RHF Final Energy:  -418.27347928962308
    Total Energy =                       -418.2734792896234239
  Basis Set: 6-31G*
  Basis Set:
  Basis Set: 6-31G*
  Basis Set:
  @DF-RHF Final Energy:  -418.27348226245351
    Total Energy =                       -418.2734822624536264
  Basis Set: 6-31G*
  Basis Set:
  Charge       = 0
  Multiplicity = 1
  Basis Set: 6-31G*
  Basis Set:

    Orbital Energies (a.u.)
    -----------------------

    Doubly Occupied:

       1A    -20.602825     2A    -20.573754     3A    -11.337147
       4A    -11.313530     5A    -11.257592     6A    -11.251740
       7A    -11.241626     8A    -11.239644     9A    -11.239331
      10A     -1.422643    11A     -1.412871    12A     -1.167456
      13A     -1.047706    14A     -1.023217    15A     -0.898771
      16A     -0.841460    17A     -0.817506    18A     -0.738363
      19A     -0.699482    20A     -0.675726    21A     -0.663524
      22A     -0.638450    23A     -0.613271    24A     -0.600523
      25A     -0.582162    26A     -0.543449    27A     -0.528297
      28A     -0.511508    29A     -0.492564    30A     -0.423031
      31A     -0.353055    32A     -0.323723

  @DF-RHF Final Energy:  -418.27348270352752

   => Energetics <=

    Nuclear Repulsion Energy =            401.7784860464984149
    One-Electron Energy =               -1365.9520396921282099
    Two-Electron Energy =                 545.9000709421022748
    DFT Exchange-Correlation Energy =       0.0000000000000000
    Empirical Dispersion Energy =           0.0000000000000000
    PCM Polarization Energy =               0.0000000000000000
    EFP Energy =                            0.0000000000000000
    Total Energy =                       -418.2734827035275202
    Molecular point group: c1
  Basis Set: 6-31G*
  Basis Set:

  -Total Gradient:
     Atom            X                  Y                   Z
    ------   -----------------  -----------------  -----------------
       1       -0.000004159746     0.000012024868     0.000001190958
       2        0.000007350979     0.000017219358     0.000012129642
       3       -0.000067241900    -0.000087996721    -0.000060392133
       4        0.000007759593     0.000009379950     0.000102792666
       5        0.000041191591     0.000015855118    -0.000040395417
       6       -0.000002178542     0.000004371681    -0.000008121100
       7        0.000102442086     0.000019802805    -0.000067149970
       8        0.000006615205     0.000008590772     0.000001119140
       9        0.000058901693    -0.000227209996     0.000030835221
      10       -0.000008497976    -0.000000734933     0.000007277843
      11       -0.000138065467     0.000158415753    -0.000067248095
      12       -0.000068323449     0.000021759638     0.000316280725
      13        0.000009061783     0.000005454922     0.000004218380
      14        0.000031449417     0.000039719858    -0.000231585071
      15        0.000023694728     0.000003346933    -0.000000952783

  **** Optimization is complete! (in 6 steps) ****
    Final optimized geometry and variables:
    Molecular point group: c1

    Geometry (in Angstrom), charge = 0, multiplicity = 1:

    H            2.780181097797     0.546840769616    -1.972542784460
    O            1.848066886083     0.417831703905    -2.079425813014
    C            1.235489427050     0.317575016331    -0.880887059029
    C            1.919942048905     0.425966077279     0.318996325975
    C           -0.135486163376     0.100131177884    -0.884803303980
    H            2.983258952193     0.595952332309     0.321265642999
    C            1.228400303199     0.313831201604     1.514526221050
    H           -0.643809029623     0.014867460152    -1.827694726069
    C           -0.813411139516    -0.013595570357     0.315212617242
    H            1.764296700570     0.395585955187     2.442951058036
    C           -0.137017577339     0.096967206060     1.524367789883
    C           -2.299202063672    -0.237416446808     0.306775682173
    H           -0.666128057744     0.005594696506     2.455552892082
    O           -2.805433697348    -1.310867294528     0.310080784189
    H           -2.915220071634     0.666271289854     0.297297063127

  Mulliken Charges: (a.u.)
   Center  Symbol    Alpha    Beta     Spin     Total
       1     H     0.27008  0.27008  0.00000  0.45985
       2     O     4.37631  4.37631  0.00000 -0.75263
       3     C     2.79022  2.79022  0.00000  0.41955
       4     C     3.14265  3.14265  0.00000 -0.28530
       5     C     3.12893  3.12893  0.00000 -0.25786
       6     H     0.40068  0.40068  0.00000  0.19864
       7     C     3.08844  3.08844  0.00000 -0.17687
       8     H     0.38424  0.38424  0.00000  0.23153
       9     C     3.02079  3.02079  0.00000 -0.04158
      10     H     0.39361  0.39361  0.00000  0.21279
      11     C     3.11775  3.11775  0.00000 -0.23551
      12     C     2.85203  2.85203  0.00000  0.29594
      13     H     0.39260  0.39260  0.00000  0.21480
      14     O     4.21985  4.21985  0.00000 -0.43969
      15     H     0.42183  0.42183  0.00000  0.15634

   Total alpha = 32.00000, Total beta = 32.00000, Total charge =  0.00000
