  ==> Input File <==

--------------------------------------------------------------------------
set {
	reference rhf
	basis 6-31G*
}

set_num_threads( 4 )
memory 2 gb

molecule MOL {
0 1

H	 1.074631	 -1.200010	 -0.478972
O	 1.261547	 -0.349576	 -0.852706
C	 0.709265	 0.639550	 -0.033818
C	 -0.793441	 0.596080	 0.058728
H	 1.020883	 1.588943	 -0.454234
H	 1.130427	 0.590717	 0.969807
C	 -1.530462	 -0.493172	 -0.025500
H	 -1.268471	 1.554324	 0.202247
H	 -1.092586	 -1.461565	 -0.186463
H	 -2.602122	 -0.450675	 0.050101

	symmetry c1
}
set optking {
	frozen_dihedral = ("
		5 3 4 7
	")
}

ee = optimize('scf')
oeprop('DIPOLE', 'QUADRUPOLE', 'MULLIKEN_CHARGES')
f=open( 'psi4out.xyz', 'w' )
f.write( "10  " )
f.write( str(ee) + "\n" )
f.write( MOL.save_string_xyz() )
f.close()
--------------------------------------------------------------------------

    Molecular point group: c1
  Charge       = 0
  Multiplicity = 1
  Basis Set: 6-31G*
  Basis Set:
  @DF-RHF Final Energy:  -191.91261098858672
    Total Energy =                       -191.9126109885867493
    Molecular point group: c1
  Basis Set: 6-31G*
  Basis Set:
  Basis Set: 6-31G*
  Basis Set:
  @DF-RHF Final Energy:  -191.91324500459683
    Total Energy =                       -191.9132450045968881
  Basis Set: 6-31G*
  Basis Set:
  Basis Set: 6-31G*
  Basis Set:
  @DF-RHF Final Energy:  -191.91336985114918
    Total Energy =                       -191.9133698511491559
  Basis Set: 6-31G*
  Basis Set:
  Basis Set: 6-31G*
  Basis Set:
  @DF-RHF Final Energy:  -191.91338001376261
    Total Energy =                       -191.9133800137624917
  Basis Set: 6-31G*
  Basis Set:
  Basis Set: 6-31G*
  Basis Set:
  @DF-RHF Final Energy:  -191.91338182882652
    Total Energy =                       -191.9133818288265161
  Basis Set: 6-31G*
  Basis Set:
  Charge       = 0
  Multiplicity = 1
  Basis Set: 6-31G*
  Basis Set:

    Orbital Energies (a.u.)
    -----------------------

    Doubly Occupied:

       1A    -20.560942     2A    -11.278923     3A    -11.231414
       4A    -11.220961     5A     -1.369378     6A     -1.058751
       7A     -0.929416     8A     -0.766805     9A     -0.695827
      10A     -0.659735    11A     -0.619324    12A     -0.569507
      13A     -0.526975    14A     -0.505115    15A     -0.443526
      16A     -0.364800

  @DF-RHF Final Energy:  -191.91338263260334

   => Energetics <=

    Nuclear Repulsion Energy =            118.8967971245394608
    One-Electron Energy =                -496.0175614920200360
    Two-Electron Energy =                 185.2073817348771740
    DFT Exchange-Correlation Energy =       0.0000000000000000
    Empirical Dispersion Energy =           0.0000000000000000
    PCM Polarization Energy =               0.0000000000000000
    EFP Energy =                            0.0000000000000000
    Total Energy =                       -191.9133826326033727
    Molecular point group: c1
  Basis Set: 6-31G*
  Basis Set:

  -Total Gradient:
     Atom            X                  Y                   Z
    ------   -----------------  -----------------  -----------------
       1       -0.000116229167    -0.000032552798    -0.000022690254
       2        0.000086610413     0.000106783782     0.000081545530
       3       -0.000217437594    -0.002850043315    -0.003371068793
       4       -0.000375206238     0.001317826648    -0.005905783048
       5        0.000264811369     0.001947891405     0.004521987898
       6        0.000016921892     0.000057633135     0.000045400326
       7        0.000314647583    -0.000598697169     0.004507627155
       8       -0.000013138313     0.000019016579     0.000032638782
       9        0.000039027214     0.000027824413     0.000045564844
      10       -0.000000007161     0.000004317323     0.000064777560

  **** Optimization is complete! (in 6 steps) ****
    Final optimized geometry and variables:
    Molecular point group: c1

    Geometry (in Angstrom), charge = 0, multiplicity = 1:

    H            1.231330105861    -1.265339938009    -0.139560692718
    O            1.289374851364    -0.441229069690    -0.601118538652
    C            0.724406211713     0.572389626719     0.176549493848
    C           -0.780389184973     0.535573278945     0.283480820068
    H            1.039490600274     1.519900585772    -0.242273211468
    H            1.137348290418     0.554750426897     1.186087632314
    C           -1.531985270027    -0.543465791088     0.203337733867
    H           -1.239864347344     1.478867570053     0.534708023327
    H           -1.127673675707    -1.509346057866    -0.044740865838
    H           -2.596279712954    -0.497577494512     0.347356844567

  Mulliken Charges: (a.u.)
   Center  Symbol    Alpha    Beta     Spin     Total
       1     H     0.27901  0.27901  0.00000  0.44199
       2     O     4.36378  4.36378  0.00000 -0.72755
       3     C     3.00846  3.00846  0.00000 -0.01692
       4     C     3.08035  3.08035  0.00000 -0.16069
       5     H     0.41094  0.41094  0.00000  0.17812
       6     H     0.42339  0.42339  0.00000  0.15322
       7     C     3.19736  3.19736  0.00000 -0.39471
       8     H     0.40983  0.40983  0.00000  0.18034
       9     H     0.41722  0.41722  0.00000  0.16556
      10     H     0.40968  0.40968  0.00000  0.18065

   Total alpha = 16.00000, Total beta = 16.00000, Total charge =  0.00000
