  ==> Input File <==

--------------------------------------------------------------------------
set {
	reference rhf
	basis 6-31G*
}

set_num_threads( 4 )
memory 2 gb

molecule MOL {
0 1

O	 -1.276010	 1.052711	 -0.768302
C	 -1.204840	 0.067374	 -0.106123
C	 -2.388195	 -0.672128	 0.458071
O	 -0.067104	 -0.527208	 0.221609
H	 -2.388023	 -1.694060	 0.097175
H	 -3.300579	 -0.174919	 0.164318
H	 -2.315377	 -0.706351	 1.539059
C	 0.813584	 0.118528	 1.151846
C	 2.203262	 -0.412371	 0.847659
C	 0.362407	 -0.174035	 2.574340
H	 0.770510	 1.181639	 0.966248
H	 2.479171	 -0.197356	 -0.178446
H	 2.932556	 0.052001	 1.503267
H	 2.244195	 -1.486292	 0.994868
H	 1.038312	 0.292918	 3.283653
H	 -0.632415	 0.215413	 2.749371
H	 0.359024	 -1.243633	 2.758611

	symmetry c1
}
set optking {
	frozen_dihedral = ("
		8 4 2 1
	")
}

ee = optimize('scf')
oeprop('DIPOLE', 'QUADRUPOLE', 'MULLIKEN_CHARGES')
f=open( 'psi4out.xyz', 'w' )
f.write( "17  " )
f.write( str(ee) + "\n" )
f.write( MOL.save_string_xyz() )
f.close()
--------------------------------------------------------------------------

    Molecular point group: c1
  Charge       = 0
  Multiplicity = 1
  Basis Set: 6-31G*
  Basis Set:
  @DF-RHF Final Energy:  -344.89616726397946
    Total Energy =                       -344.8961672639793505
    Molecular point group: c1
  Basis Set: 6-31G*
  Basis Set:
  Basis Set: 6-31G*
  Basis Set:
  @DF-RHF Final Energy:  -344.89716351981053
    Total Energy =                       -344.8971635198101922
  Basis Set: 6-31G*
  Basis Set:
  Basis Set: 6-31G*
  Basis Set:
  @DF-RHF Final Energy:  -344.89808401084628
    Total Energy =                       -344.8980840108464463
  Basis Set: 6-31G*
  Basis Set:
  Basis Set: 6-31G*
  Basis Set:
  @DF-RHF Final Energy:  -344.89819597133709
    Total Energy =                       -344.8981959713371452
  Basis Set: 6-31G*
  Basis Set:
  Basis Set: 6-31G*
  Basis Set:
  @DF-RHF Final Energy:  -344.89820098772617
    Total Energy =                       -344.8982009877258861
  Basis Set: 6-31G*
  Basis Set:
  Basis Set: 6-31G*
  Basis Set:
  @DF-RHF Final Energy:  -344.89820672943682
    Total Energy =                       -344.8982067294369926
  Basis Set: 6-31G*
  Basis Set:
  Charge       = 0
  Multiplicity = 1
  Basis Set: 6-31G*
  Basis Set:

    Orbital Energies (a.u.)
    -----------------------

    Doubly Occupied:

       1A    -20.582403     2A    -20.552514     3A    -11.375420
       4A    -11.298196     5A    -11.234025     6A    -11.227470
       7A    -11.220395     8A     -1.456364     9A     -1.363308
      10A     -1.075639    11A     -1.010345    12A     -0.954025
      13A     -0.846831    14A     -0.764636    15A     -0.695946
      16A     -0.667170    17A     -0.657498    18A     -0.625276
      19A     -0.587038    20A     -0.581208    21A     -0.563056
      22A     -0.552438    23A     -0.547729    24A     -0.523089
      25A     -0.499664    26A     -0.485516    27A     -0.445264
      28A     -0.435374

  @DF-RHF Final Energy:  -344.89820698515075

   => Energetics <=

    Nuclear Repulsion Energy =            322.5320119983570066
    One-Electron Energy =               -1109.2047572653618772
    Two-Electron Energy =                 441.7745382818538928
    DFT Exchange-Correlation Energy =       0.0000000000000000
    Empirical Dispersion Energy =           0.0000000000000000
    PCM Polarization Energy =               0.0000000000000000
    EFP Energy =                            0.0000000000000000
    Total Energy =                       -344.8982069851509777
    Molecular point group: c1
  Basis Set: 6-31G*
  Basis Set:

  -Total Gradient:
     Atom            X                  Y                   Z
    ------   -----------------  -----------------  -----------------
       1       -0.000802481153    -0.004601126996    -0.007952657373
       2       -0.000405495991     0.004693655674     0.014566474153
       3       -0.000015459525     0.000039708458    -0.000101877444
       4        0.004260681480     0.003947037880    -0.011872374366
       5        0.000002927137     0.000006990839     0.000045723775
       6       -0.000044284846    -0.000011997364     0.000024168866
       7        0.000033321546     0.000016266334    -0.000011000330
       8       -0.002963513643    -0.004097558787     0.005298687749
       9        0.000030918011    -0.000018741041    -0.000009367304
      10       -0.000046682772    -0.000015991375    -0.000042068721
      11       -0.000021674818     0.000031380014     0.000028948386
      12        0.000001265860    -0.000001328586    -0.000003033949
      13        0.000004529449     0.000002479654    -0.000005897206
      14       -0.000009833265     0.000006666707     0.000000971471
      15       -0.000012852857     0.000003618601    -0.000027678152
      16       -0.000010512292     0.000005488199     0.000033997276
      17       -0.000000852320    -0.000006548209     0.000026983166

  **** Optimization is complete! (in 7 steps) ****
    Final optimized geometry and variables:
    Molecular point group: c1

    Geometry (in Angstrom), charge = 0, multiplicity = 1:

    O           -1.136131970471     1.207603245830    -1.227869877060
    C           -1.018424182176     0.174182657762    -0.663034137030
    C           -2.171095278304    -0.700021569662    -0.247581220956
    O            0.181171800460    -0.403521800047    -0.457129012499
    H           -2.099921159784    -1.647815356352    -0.769893181815
    H           -3.107884078411    -0.217654732874    -0.485041116882
    H           -2.119392499715    -0.912828282239     0.813909155585
    C            1.087659183350     0.197690949355     0.472330141650
    C            2.445618529314    -0.420133191633     0.193528335903
    C            0.620777773620    -0.030047381784     1.903321744474
    H            1.121643992991     1.260208542620     0.262007320706
    H            2.732927444602    -0.246121675754    -0.836214035892
    H            3.198982462923     0.014259559649     0.842382874363
    H            2.417421707075    -1.490795909471     0.365700263436
    H            1.340551658503     0.387592312189     2.599513043481
    H           -0.333772026462     0.450180294144     2.094077747239
    H            0.520788175377    -1.090956266692     2.107465383722

  Mulliken Charges: (a.u.)
   Center  Symbol    Alpha    Beta     Spin     Total
       1     O     4.25942  4.25942  0.00000 -0.51884
       2     C     2.62109  2.62109  0.00000  0.75781
       3     C     3.28511  3.28511  0.00000 -0.57022
       4     O     4.32413  4.32413  0.00000 -0.64826
       5     H     0.39814  0.39814  0.00000  0.20372
       6     H     0.39819  0.39819  0.00000  0.20363
       7     H     0.40551  0.40551  0.00000  0.18897
       8     C     2.92528  2.92528  0.00000  0.14943
       9     C     3.24261  3.24261  0.00000 -0.48522
      10     C     3.25302  3.25302  0.00000 -0.50604
      11     H     0.40639  0.40639  0.00000  0.18723
      12     H     0.40601  0.40601  0.00000  0.18799
      13     H     0.41876  0.41876  0.00000  0.16248
      14     H     0.41396  0.41396  0.00000  0.17209
      15     H     0.41374  0.41374  0.00000  0.17252
      16     H     0.41601  0.41601  0.00000  0.16798
      17     H     0.41263  0.41263  0.00000  0.17474

   Total alpha = 28.00000, Total beta = 28.00000, Total charge =  0.00000
