  ==> Input File <==

--------------------------------------------------------------------------
set {
	reference rhf
	basis 6-31G*
}

set_num_threads( 1 )
memory 2 gb

molecule MOL {
0 1

H	 -2.172150	 0.880146	 0.502514
C	 -2.018062	 -0.000025	 -0.114509
O	 -0.774054	 0.001095	 -0.743181
H	 -2.760490	 0.003458	 -0.901350
H	 -2.173624	 -0.884374	 0.496163
C	 -0.562849	 0.821299	 -1.878605
C	 0.890732	 0.546260	 -2.257374
C	 -1.488249	 0.418343	 -3.031190
C	 -0.740976	 2.302769	 -1.531282
H	 1.026171	 -0.506556	 -2.477980
H	 1.546431	 0.804534	 -1.433524
H	 1.183807	 1.123719	 -3.128183
H	 -1.407965	 -0.646569	 -3.222360
H	 -1.213841	 0.949325	 -3.936927
H	 -2.527068	 0.650055	 -2.822099
H	 -0.135484	 2.561781	 -0.669108
H	 -0.430926	 2.924234	 -2.365058
H	 -1.773674	 2.549836	 -1.309641

	symmetry c1
}
set optking {
	frozen_dihedral = ("
		2 3 6 7
	")
}

ee = energy('scf')
oeprop('DIPOLE', 'QUADRUPOLE', 'MULLIKEN_CHARGES')
f=open( 'psi4out.xyz', 'w' )
f.write( "18  " )
f.write( str(ee) + "\n" )
f.write( MOL.save_string_xyz() )
f.close()
--------------------------------------------------------------------------

    Molecular point group: c1

    Geometry (in Angstrom), charge = 0, multiplicity = 1:

       Center              X                  Y                   Z               Mass
    ------------   -----------------  -----------------  -----------------  -----------------
           H         -1.373667210820     0.203870461542     2.081336565830     1.007825032070
           C         -1.219579210820    -0.676300538458     1.464313565830    12.000000000000
           O          0.024428789180    -0.675180538458     0.835641565830    15.994914619560
           H         -1.962007210820    -0.672817538458     0.677472565830     1.007825032070
           H         -1.375141210820    -1.560649538458     2.074985565830     1.007825032070
           C          0.235633789180     0.145023461542    -0.299782434170    12.000000000000
           C          1.689214789180    -0.130015538458    -0.678551434170    12.000000000000
           C         -0.689766210820    -0.257932538458    -1.452367434170    12.000000000000
           C          0.057506789180     1.626493461542     0.047540565830    12.000000000000
           H          1.824653789180    -1.182831538458    -0.899157434170     1.007825032070
           H          2.344913789180     0.128258461542     0.145298565830     1.007825032070
           H          1.982289789180     0.447443461542    -1.549360434170     1.007825032070
           H         -0.609482210820    -1.322844538458    -1.643537434170     1.007825032070
           H         -0.415358210820     0.273049461542    -2.358104434170     1.007825032070
           H         -1.728585210820    -0.026220538458    -1.243276434170     1.007825032070
           H          0.662998789180     1.885505461542     0.909714565830     1.007825032070
           H          0.367556789180     2.247958461542    -0.786235434170     1.007825032070
           H         -0.975191210820     1.873560461542     0.269181565830     1.007825032070

  Charge       = 0
  Multiplicity = 1
  Basis Set: 6-31G*
  Basis Set:

    Orbital Energies (a.u.)
    -----------------------

    Doubly Occupied:

       1A    -20.544647     2A    -11.282417     3A    -11.260559
       4A    -11.209154     5A    -11.208837     6A    -11.203457
       7A     -1.369376     8A     -1.072893     9A     -0.946684
      10A     -0.940180    11A     -0.911639    12A     -0.752312
      13A     -0.654321    14A     -0.645452    15A     -0.639922
      16A     -0.593004    17A     -0.575909    18A     -0.549725
      19A     -0.534302    20A     -0.525204    21A     -0.515020
      22A     -0.489315    23A     -0.486612    24A     -0.435862
      25A     -0.402990

  @DF-RHF Final Energy:  -271.17210869937213

   => Energetics <=

    Nuclear Repulsion Energy =            272.4773851560073012
    One-Electron Energy =                -907.7990833633150487
    Two-Electron Energy =                 364.1495895079357297
    DFT Exchange-Correlation Energy =       0.0000000000000000
    Empirical Dispersion Energy =           0.0000000000000000
    PCM Polarization Energy =               0.0000000000000000
    EFP Energy =                            0.0000000000000000
    Total Energy =                       -271.1721086993719609

  Mulliken Charges: (a.u.)
   Center  Symbol    Alpha    Beta     Spin     Total
       1     H     0.42838  0.42838  0.00000  0.14325
       2     C     3.07680  3.07680  0.00000 -0.15360
       3     O     4.32029  4.32029  0.00000 -0.64059
       4     H     0.43212  0.43212  0.00000  0.13576
       5     H     0.41354  0.41354  0.00000  0.17292
       6     C     2.84331  2.84331  0.00000  0.31337
       7     C     3.23269  3.23269  0.00000 -0.46537
       8     C     3.24861  3.24861  0.00000 -0.49722
       9     C     3.24665  3.24665  0.00000 -0.49330
      10     H     0.41399  0.41399  0.00000  0.17203
      11     H     0.41384  0.41384  0.00000  0.17233
      12     H     0.42520  0.42520  0.00000  0.14959
      13     H     0.41282  0.41282  0.00000  0.17436
      14     H     0.41899  0.41899  0.00000  0.16202
      15     H     0.41937  0.41937  0.00000  0.16125
      16     H     0.41312  0.41312  0.00000  0.17376
      17     H     0.41983  0.41983  0.00000  0.16033
      18     H     0.42046  0.42046  0.00000  0.15909

   Total alpha = 25.00000, Total beta = 25.00000, Total charge = -0.00000
