  ==> Input File <==

--------------------------------------------------------------------------
set {
	reference rhf
	basis 6-31G*
}

set_num_threads( 1 )
memory 2 gb

molecule MOL {
0 1

O	 3.225979	 0.970355	 -0.599647
C	 2.701189	 0.057885	 -0.047330
C	 1.245376	 -0.013843	 0.345420
O	 3.347903	 -1.046386	 0.304773
C	 0.426388	 1.168081	 -0.168808
H	 0.863910	 -0.962128	 -0.018491
H	 1.206024	 -0.074633	 1.430064
C	 -1.029652	 1.164493	 0.309135
H	 0.457226	 1.180590	 -1.254170
H	 0.904131	 2.086529	 0.154665
C	 -1.883193	 0.013241	 -0.230492
H	 -1.485135	 2.105159	 0.008457
H	 -1.053845	 1.152419	 1.397840
C	 -3.351940	 0.115655	 0.185795
H	 -1.817804	 -0.001561	 -1.317379
H	 -1.486777	 -0.939779	 0.112405
C	 -4.213402	 -1.032355	 -0.343437
H	 -3.760298	 1.061738	 -0.165494
H	 -3.417289	 0.141319	 1.272428
C	 -5.679464	 -0.920553	 0.073532
H	 -4.148446	 -1.060072	 -1.429096
H	 -3.809338	 -1.978631	 0.010224
H	 -6.263988	 -1.748091	 -0.316493
H	 -6.122784	 0.000142	 -0.295229
H	 -5.780900	 -0.924882	 1.155181
C	 4.728119	 -1.109107	 -0.004993
H	 4.882018	 -1.033965	 -1.071845
H	 5.068212	 -2.067527	 0.355250
H	 5.265056	 -0.311663	 0.488280

	symmetry c1
}
set optking {
	frozen_dihedral = ("
		21 17 14 11,
		17 14 11 15,
		15 11 8 5,
		6 3 5 9,
		11 8 5 9,
		2 4 26 27,
		1 2 4 26
	")
}

ee = energy('scf')
oeprop('DIPOLE', 'QUADRUPOLE', 'MULLIKEN_CHARGES')
f=open( 'psi4out.xyz', 'w' )
f.write( "29  " )
f.write( str(ee) + "\n" )
f.write( MOL.save_string_xyz() )
f.close()
--------------------------------------------------------------------------

    Molecular point group: c1

    Geometry (in Angstrom), charge = 0, multiplicity = 1:

       Center              X                  Y                   Z               Mass
    ------------   -----------------  -----------------  -----------------  -----------------
           O          3.227185009232     1.041787002515    -0.582129962391    15.994914619560
           C          2.702395009232     0.129317002515    -0.029812962391    12.000000000000
           C          1.246582009232     0.057589002515     0.362937037609    12.000000000000
           O          3.349109009232    -0.974953997485     0.322290037609    15.994914619560
           C          0.427594009232     1.239513002515    -0.151290962391    12.000000000000
           H          0.865116009232    -0.890695997485    -0.000973962391     1.007825032070
           H          1.207230009232    -0.003200997485     1.447581037609     1.007825032070
           C         -1.028445990768     1.235925002515     0.326652037609    12.000000000000
           H          0.458432009232     1.252022002515    -1.236652962391     1.007825032070
           H          0.905337009232     2.157961002515     0.172182037609     1.007825032070
           C         -1.881986990768     0.084673002515    -0.212974962391    12.000000000000
           H         -1.483928990768     2.176591002515     0.025974037609     1.007825032070
           H         -1.052638990768     1.223851002515     1.415357037609     1.007825032070
           C         -3.350733990768     0.187087002515     0.203312037609    12.000000000000
           H         -1.816597990768     0.069871002515    -1.299861962391     1.007825032070
           H         -1.485570990768    -0.868346997485     0.129922037609     1.007825032070
           C         -4.212195990768    -0.960922997485    -0.325919962391    12.000000000000
           H         -3.759091990768     1.133170002515    -0.147976962391     1.007825032070
           H         -3.416082990768     0.212751002515     1.289945037609     1.007825032070
           C         -5.678257990768    -0.849120997485     0.091049037609    12.000000000000
           H         -4.147239990768    -0.988639997485    -1.411578962391     1.007825032070
           H         -3.808131990768    -1.907198997485     0.027741037609     1.007825032070
           H         -6.262781990768    -1.676658997485    -0.298975962391     1.007825032070
           H         -6.121577990768     0.071574002515    -0.277711962391     1.007825032070
           H         -5.779693990768    -0.853449997485     1.172698037609     1.007825032070
           C          4.729325009232    -1.037674997485     0.012524037609    12.000000000000
           H          4.883224009232    -0.962532997485    -1.054327962391     1.007825032070
           H          5.069418009232    -1.996094997485     0.372767037609     1.007825032070
           H          5.266262009232    -0.240230997485     0.505797037609     1.007825032070

  Charge       = 0
  Multiplicity = 1
  Basis Set: 6-31G*
  Basis Set:

    Orbital Energies (a.u.)
    -----------------------

    Doubly Occupied:

       1A    -20.603449     2A    -20.545205     3A    -11.372025
       4A    -11.280667     5A    -11.234696     6A    -11.219163
       7A    -11.217655     8A    -11.215985     9A    -11.215858
      10A    -11.214464    11A    -11.209065    12A     -1.469104
      13A     -1.362537    14A     -1.098089    15A     -1.066821
      16A     -1.019506    17A     -0.977247    18A     -0.928567
      19A     -0.861596    20A     -0.799284    21A     -0.790488
      22A     -0.763984    23A     -0.700717    24A     -0.682224
      25A     -0.672211    26A     -0.650861    27A     -0.628622
      28A     -0.604807    29A     -0.595169    30A     -0.580963
      31A     -0.566314    32A     -0.550154    33A     -0.531385
      34A     -0.530611    35A     -0.515847    36A     -0.512053
      37A     -0.496347    38A     -0.477892    39A     -0.470261
      40A     -0.462491    41A     -0.458954    42A     -0.455579
      43A     -0.440753    44A     -0.435685

  @DF-RHF Final Energy:  -501.04407906189749

   => Energetics <=

    Nuclear Repulsion Energy =            610.2593770678022338
    One-Electron Energy =               -1891.6362484400367521
    Two-Electron Energy =                 780.3327923103386183
    DFT Exchange-Correlation Energy =       0.0000000000000000
    Empirical Dispersion Energy =           0.0000000000000000
    PCM Polarization Energy =               0.0000000000000000
    EFP Energy =                            0.0000000000000000
    Total Energy =                       -501.0440790618958999

  Mulliken Charges: (a.u.)
   Center  Symbol    Alpha    Beta     Spin     Total
       1     O     4.28594  4.28594  0.00000 -0.57188
       2     C     2.60459  2.60459  0.00000  0.79081
       3     C     3.21009  3.21009  0.00000 -0.42019
       4     O     4.30742  4.30742  0.00000 -0.61485
       5     C     3.15407  3.15407  0.00000 -0.30814
       6     H     0.39901  0.39901  0.00000  0.20198
       7     H     0.40092  0.40092  0.00000  0.19816
       8     C     3.15666  3.15666  0.00000 -0.31332
       9     H     0.41410  0.41410  0.00000  0.17181
      10     H     0.40749  0.40749  0.00000  0.18502
      11     C     3.15504  3.15504  0.00000 -0.31007
      12     H     0.41822  0.41822  0.00000  0.16356
      13     H     0.42380  0.42380  0.00000  0.15239
      14     C     3.15030  3.15030  0.00000 -0.30060
      15     H     0.42274  0.42274  0.00000  0.15453
      16     H     0.42350  0.42350  0.00000  0.15299
      17     C     3.15145  3.15145  0.00000 -0.30291
      18     H     0.42333  0.42333  0.00000  0.15334
      19     H     0.42397  0.42397  0.00000  0.15206
      20     C     3.23935  3.23935  0.00000 -0.47870
      21     H     0.42283  0.42283  0.00000  0.15434
      22     H     0.42342  0.42342  0.00000  0.15317
      23     H     0.41923  0.41923  0.00000  0.16153
      24     H     0.42155  0.42155  0.00000  0.15690
      25     H     0.42182  0.42182  0.00000  0.15636
      26     C     3.09244  3.09244  0.00000 -0.18489
      27     H     0.40904  0.40904  0.00000  0.18193
      28     H     0.40851  0.40851  0.00000  0.18298
      29     H     0.40915  0.40915  0.00000  0.18170

   Total alpha = 44.00000, Total beta = 44.00000, Total charge =  0.00000
