  ==> Input File <==

--------------------------------------------------------------------------
set {
	reference rhf
	basis cc-pvtz
}

set_num_threads( 4 )
memory 2 gb

molecule MOL {
0 1

H	 3.315141	 0.886714	 -0.717613
C	 2.604761	 0.702993	 0.077928
C	 1.322304	 0.099773	 -0.484271
H	 3.073068	 0.036684	 0.793533
H	 2.411596	 1.647006	 0.574785
C	 0.308557	 -0.162619	 0.622645
H	 1.539311	 -0.832958	 -0.989894
H	 0.882135	 0.770875	 -1.211465
N	 -1.069352	 -0.004081	 0.085342
H	 0.371632	 -1.172932	 0.991288
H	 0.400391	 0.548875	 1.426218
O	 -1.584901	 -0.965470	 -0.377818
O	 -1.548033	 1.079343	 0.130056

	symmetry c1
}
set optking {
	frozen_dihedral = ("
		7 3 6 9
	")
}

ee = optimize('scf')
oeprop('DIPOLE', 'QUADRUPOLE', 'MULLIKEN_CHARGES')
f=open( 'psi4out.xyz', 'w' )
f.write( "13  " )
f.write( str(ee) + "\n" )
f.write( MOL.save_string_xyz() )
f.close()
--------------------------------------------------------------------------

    Molecular point group: c1
  Charge       = 0
  Multiplicity = 1
  Basis Set: CC-PVTZ
  Basis Set:
  @DF-RHF Final Energy:  -321.85837029706749
    Total Energy =                       -321.8583702970671538
    Molecular point group: c1
  Basis Set: CC-PVTZ
  Basis Set:
  Basis Set: CC-PVTZ
  Basis Set:
  @DF-RHF Final Energy:  -321.85731518054524
    Total Energy =                       -321.8573151805450152
  Basis Set: CC-PVTZ
  Basis Set:
  Basis Set: CC-PVTZ
  Basis Set:
  @DF-RHF Final Energy:  -321.85522422579243
    Total Energy =                       -321.8552242257923126
  Basis Set: CC-PVTZ
  Basis Set:
  Basis Set: CC-PVTZ
  Basis Set:
  @DF-RHF Final Energy:  -321.85843701277417
    Total Energy =                       -321.8584370127744023
  Basis Set: CC-PVTZ
  Basis Set:
  @DF-RHF Final Energy:  -321.85851128628360
    Total Energy =                       -321.8585112862837718
  Basis Set: CC-PVTZ
  Basis Set:
  @DF-RHF Final Energy:  -321.85863865852514
    Total Energy =                       -321.8586386585250239
  Basis Set: CC-PVTZ
  Basis Set:
  Basis Set: CC-PVTZ
  Basis Set:
  @DF-RHF Final Energy:  -321.85864500309179
    Total Energy =                       -321.8586450030916239
  Basis Set: CC-PVTZ
  Basis Set:
  Basis Set: CC-PVTZ
  Basis Set:
  @DF-RHF Final Energy:  -321.85864650675035
    Total Energy =                       -321.8586465067505742
  Basis Set: CC-PVTZ
  Basis Set:
  Charge       = 0
  Multiplicity = 1
  Basis Set: CC-PVTZ
  Basis Set:

    Orbital Energies (a.u.)
    -----------------------

    Doubly Occupied:

       1A    -20.590547     2A    -20.590085     3A    -15.836821
       4A    -11.297337     5A    -11.255066     6A    -11.236114
       7A     -1.635909     8A     -1.420202     9A     -1.132919
      10A     -1.027733    11A     -0.883616    12A     -0.834572
      13A     -0.761994    14A     -0.738280    15A     -0.727699
      16A     -0.669055    17A     -0.607705    18A     -0.591581
      19A     -0.545233    20A     -0.520321    21A     -0.515358
      22A     -0.485779    23A     -0.474817    24A     -0.453481

  @DF-RHF Final Energy:  -321.85864655129831

   => Energetics <=

    Nuclear Repulsion Energy =            248.1855949323598907
    One-Electron Energy =                -930.4240322317602931
    Two-Electron Energy =                 360.3797907481020388
    DFT Exchange-Correlation Energy =       0.0000000000000000
    Empirical Dispersion Energy =           0.0000000000000000
    PCM Polarization Energy =               0.0000000000000000
    EFP Energy =                            0.0000000000000000
    Total Energy =                       -321.8586465512983636
    Molecular point group: c1
  Basis Set: CC-PVTZ
  Basis Set:

  -Total Gradient:
     Atom            X                  Y                   Z
    ------   -----------------  -----------------  -----------------
       1        0.000000049870    -0.000000699138     0.000001301690
       2        0.000003692474    -0.000003541061     0.000000329180
       3       -0.004044038087     0.001955192266    -0.003186738211
       4        0.000002313266     0.000001307758     0.000001170715
       5       -0.000000250026     0.000000178849     0.000000252114
       6        0.000743466666    -0.004303487940    -0.000429649834
       7        0.003281785502    -0.000748348987     0.002807379722
       8        0.000000464637     0.000001492231     0.000000792953
       9       -0.000006570799     0.003070518002     0.000792675469
      10       -0.000004070641     0.000004122219    -0.000000145217
      11        0.000000126619     0.000005540552     0.000002277347
      12        0.000007465419    -0.000000127933     0.000005700116
      13        0.000015565094     0.000017853183     0.000004653955

  **** Optimization is complete! (in 9 steps) ****
    Final optimized geometry and variables:
    Molecular point group: c1

    Geometry (in Angstrom), charge = 0, multiplicity = 1:

    H            3.369763836534     0.718709133273    -0.722774942371
    C            2.640917105931     0.576279972738     0.064817426563
    C            1.347919905656    -0.002928919981    -0.503437086892
    H            3.078624378908    -0.086951151145     0.803250304996
    H            2.465917958136     1.535558360575     0.537451484239
    C            0.333517083390    -0.284068272129     0.609991569789
    H            1.576294278610    -0.927753502896    -1.016402672003
    H            0.920412000937     0.687128971140    -1.218556113399
    N           -1.048954885668    -0.139198639024     0.082153390897
    H            0.413068812744    -1.285558722665     0.996481589642
    H            0.409917493656     0.440148019419     1.403431642304
    O           -1.552069598290    -1.099487783032    -0.397127939597
    O           -1.543250859355     0.936190463034     0.147306644161

  Mulliken Charges: (a.u.)
   Center  Symbol    Alpha    Beta     Spin     Total
       1     H     0.44300  0.44300  0.00000  0.11400
       2     C     3.15072  3.15072  0.00000 -0.30144
       3     C     3.09201  3.09201  0.00000 -0.18401
       4     H     0.45240  0.45240  0.00000  0.09519
       5     H     0.44957  0.44957  0.00000  0.10086
       6     C     3.03752  3.03752  0.00000 -0.07504
       7     H     0.44162  0.44162  0.00000  0.11675
       8     H     0.43787  0.43787  0.00000  0.12426
       9     N     3.27937  3.27937  0.00000  0.44126
      10     H     0.43293  0.43293  0.00000  0.13413
      11     H     0.43716  0.43716  0.00000  0.12567
      12     O     4.17285  4.17285  0.00000 -0.34571
      13     O     4.17296  4.17296  0.00000 -0.34591

   Total alpha = 24.00000, Total beta = 24.00000, Total charge =  0.00000
