  ==> Input File <==

--------------------------------------------------------------------------
set {
	reference rhf
	basis 6-31G*
}

set_num_threads( 4 )
memory 2 gb

molecule MOL {
0 1

H	 2.233508	 -0.590042	 0.311931
C	 1.817904	 -0.574895	 -0.702882
C	 0.537048	 0.203385	 -0.859812
O	 2.373890	 -1.146379	 -1.584026
C	 -0.558097	 -0.297372	 0.091132
H	 0.223041	 0.135893	 -1.894860
H	 0.754501	 1.248224	 -0.641051
C	 -1.850991	 0.512573	 -0.019058
H	 -0.767688	 -1.342949	 -0.122441
H	 -0.195761	 -0.258458	 1.116830
C	 -3.096943	 -0.368295	 -0.099594
H	 -1.800724	 1.150330	 -0.898172
H	 -1.931651	 1.177355	 0.838044
H	 -3.060452	 -1.020287	 -0.967456
H	 -3.996858	 0.233488	 -0.175704
H	 -3.191959	 -0.995686	 0.782074

	symmetry c1
}
set optking {
	frozen_dihedral = ("
		9 5 8 12
	")
}

ee = optimize('scf')
oeprop('DIPOLE', 'QUADRUPOLE', 'MULLIKEN_CHARGES')
f=open( 'psi4out.xyz', 'w' )
f.write( "16  " )
f.write( str(ee) + "\n" )
f.write( MOL.save_string_xyz() )
f.close()
--------------------------------------------------------------------------

    Molecular point group: c1
  Charge       = 0
  Multiplicity = 1
  Basis Set: 6-31G*
  Basis Set:
  @DF-RHF Final Energy:  -270.01465930991310
    Total Energy =                       -270.0146593099130996
    Molecular point group: c1
  Basis Set: 6-31G*
  Basis Set:
  Basis Set: 6-31G*
  Basis Set:
  @DF-RHF Final Energy:  -270.01485189177947
    Total Energy =                       -270.0148518917796423
  Basis Set: 6-31G*
  Basis Set:
  Basis Set: 6-31G*
  Basis Set:
  @DF-RHF Final Energy:  -270.01194259729095
    Total Energy =                       -270.0119425972908402
  Basis Set: 6-31G*
  Basis Set:
  Basis Set: 6-31G*
  Basis Set:
  @DF-RHF Final Energy:  -270.01498470563985
    Total Energy =                       -270.0149847056397903
  Basis Set: 6-31G*
  Basis Set:
  Basis Set: 6-31G*
  Basis Set:
  @DF-RHF Final Energy:  -270.01501035840118
    Total Energy =                       -270.0150103584011845
  Basis Set: 6-31G*
  Basis Set:
  Basis Set: 6-31G*
  Basis Set:
  @DF-RHF Final Energy:  -270.01501607030445
    Total Energy =                       -270.0150160703043412
  Basis Set: 6-31G*
  Basis Set:
  Basis Set: 6-31G*
  Basis Set:
  @DF-RHF Final Energy:  -270.01501825586791
    Total Energy =                       -270.0150182558682559
  Basis Set: 6-31G*
  Basis Set:
  Charge       = 0
  Multiplicity = 1
  Basis Set: 6-31G*
  Basis Set:

    Orbital Energies (a.u.)
    -----------------------

    Doubly Occupied:

       1A    -20.562575     2A    -11.326421     3A    -11.236364
       4A    -11.235657     5A    -11.228994     6A    -11.218356
       7A     -1.402288     8A     -1.094092     9A     -1.018467
      10A     -0.905644    11A     -0.812964    12A     -0.794385
      13A     -0.674385    14A     -0.649116    15A     -0.624956
      16A     -0.601614    17A     -0.587919    18A     -0.550301
      19A     -0.520664    20A     -0.516871    21A     -0.488345
      22A     -0.478853    23A     -0.473562    24A     -0.408773

  @DF-RHF Final Energy:  -270.01501771092580

   => Energetics <=

    Nuclear Repulsion Energy =            228.9621151816177189
    One-Electron Energy =                -819.1311340492145519
    Two-Electron Energy =                 320.1540011566710291
    DFT Exchange-Correlation Energy =       0.0000000000000000
    Empirical Dispersion Energy =           0.0000000000000000
    PCM Polarization Energy =               0.0000000000000000
    EFP Energy =                            0.0000000000000000
    Total Energy =                       -270.0150177109258038
    Molecular point group: c1
  Basis Set: 6-31G*
  Basis Set:

  -Total Gradient:
     Atom            X                  Y                   Z
    ------   -----------------  -----------------  -----------------
       1        0.000010241871    -0.000033908424    -0.000008276899
       2        0.000021823936     0.000037385842    -0.000066983894
       3       -0.000014650854    -0.000003489740     0.000047928081
       4        0.000026933591    -0.000029133588     0.000035367646
       5        0.001084237957     0.001264705600    -0.003571059398
       6       -0.000016959888     0.000014718161     0.000015750678
       7        0.000012398745     0.000002622240     0.000004487271
       8       -0.001897718759    -0.003181338133    -0.001610867235
       9       -0.000575012721    -0.000565470251     0.003289260543
      10        0.000033696460     0.000011135425    -0.000017208395
      11       -0.000012763505     0.000053309871     0.000045772795
      12        0.001386148751     0.002434651958     0.001844593420
      13       -0.000042762926    -0.000010875960    -0.000009838561
      14        0.000001820986     0.000045045784    -0.000008013124
      15       -0.000023938084    -0.000009748610     0.000021779202
      16        0.000006504435    -0.000029610172    -0.000012692126

  **** Optimization is complete! (in 8 steps) ****
    Final optimized geometry and variables:
    Molecular point group: c1

    Geometry (in Angstrom), charge = 0, multiplicity = 1:

    H            2.363096876718    -0.284631890146     0.871757819610
    C            1.967115971948    -0.275007827318    -0.150832668507
    C            0.680456736086     0.487521445713    -0.333924176149
    O            2.545429792531    -0.843052614568    -1.019824364103
    C           -0.429819019561    -0.028027634045     0.589864653323
    H            0.388693551541     0.419988462378    -1.375419241605
    H            0.879074093396     1.534463469012    -0.106833091712
    C           -1.734137197346     0.791608191984     0.492537508402
    H           -0.631758696148    -1.073968911417     0.373843454279
    H           -0.072915698856    -0.013862734845     1.617319084075
    C           -2.993514892732    -0.071376979462     0.453247467037
    H           -1.699698955297     1.437733641162    -0.380633304924
    H           -1.793233989161     1.467667190469     1.341422390969
    H           -2.998673223237    -0.715095859871    -0.421420208148
    H           -3.888194282652     0.542195123934     0.420768694802
    H           -3.059277375292    -0.706944379608     1.331746783991

  Mulliken Charges: (a.u.)
   Center  Symbol    Alpha    Beta     Spin     Total
       1     H     0.43214  0.43214  0.00000  0.13573
       2     C     2.83038  2.83038  0.00000  0.33924
       3     C     3.20930  3.20930  0.00000 -0.41861
       4     O     4.23699  4.23699  0.00000 -0.47398
       5     C     3.16800  3.16800  0.00000 -0.33600
       6     H     0.39901  0.39901  0.00000  0.20198
       7     H     0.40939  0.40939  0.00000  0.18122
       8     C     3.15440  3.15440  0.00000 -0.30881
       9     H     0.41063  0.41063  0.00000  0.17873
      10     H     0.41732  0.41732  0.00000  0.16537
      11     C     3.24097  3.24097  0.00000 -0.48194
      12     H     0.41734  0.41734  0.00000  0.16532
      13     H     0.41812  0.41812  0.00000  0.16377
      14     H     0.41869  0.41869  0.00000  0.16261
      15     H     0.41751  0.41751  0.00000  0.16498
      16     H     0.41980  0.41980  0.00000  0.16039

   Total alpha = 24.00000, Total beta = 24.00000, Total charge =  0.00000
