  ==> Input File <==

--------------------------------------------------------------------------
set {
	reference rhf
	basis cc-pvtz
}

set_num_threads( 4 )
memory 2 gb

molecule MOL {
0 1

H	 -2.266619	 1.169943	 0.000098
O	 -1.438073	 1.611259	 0.000041
C	 -0.408657	 0.734701	 0.000005
C	 0.205639	 0.492847	 -1.214719
C	 0.022980	 0.099030	 1.158334
H	 -0.156715	 1.002996	 -2.085568
C	 1.262272	 -0.389794	 -1.288483
C	 1.086642	 -0.782678	 1.054693
C	 -0.648433	 0.364049	 2.483163
H	 1.734270	 -0.572594	 -2.234940
C	 1.709762	 -1.034080	 -0.151347
H	 1.432127	 -1.282001	 1.940855
H	 -1.700562	 0.093977	 2.463021
H	 -0.183513	 -0.213718	 3.268959
H	 -0.579745	 1.410296	 2.767722
H	 2.531159	 -1.721974	 -0.201140

	symmetry c1
}
set optking {
	frozen_dihedral = ("
		4 3 2 1
	")
}

ee = optimize('scf')
oeprop('DIPOLE', 'QUADRUPOLE', 'MULLIKEN_CHARGES')
f=open( 'psi4out.xyz', 'w' )
f.write( "16  " )
f.write( str(ee) + "\n" )
f.write( MOL.save_string_xyz() )
f.close()
--------------------------------------------------------------------------

    Molecular point group: c1
  Charge       = 0
  Multiplicity = 1
  Basis Set: CC-PVTZ
  Basis Set:
  @DF-RHF Final Energy:  -344.71528593792709
    Total Energy =                       -344.7152859379273195
    Molecular point group: c1
  Basis Set: CC-PVTZ
  Basis Set:
  Basis Set: CC-PVTZ
  Basis Set:
  @DF-RHF Final Energy:  -344.71611248507452
    Total Energy =                       -344.7161124850748024
  Basis Set: CC-PVTZ
  Basis Set:
  Basis Set: CC-PVTZ
  Basis Set:
  @DF-RHF Final Energy:  -344.71618506710479
    Total Energy =                       -344.7161850671049024
  Basis Set: CC-PVTZ
  Basis Set:
  Basis Set: CC-PVTZ
  Basis Set:
  @DF-RHF Final Energy:  -344.71619745171199
    Total Energy =                       -344.7161974517116505
  Basis Set: CC-PVTZ
  Basis Set:
  Basis Set: CC-PVTZ
  Basis Set:
  @DF-RHF Final Energy:  -344.71620070780585
    Total Energy =                       -344.7162007078063084
  Basis Set: CC-PVTZ
  Basis Set:
  Charge       = 0
  Multiplicity = 1
  Basis Set: CC-PVTZ
  Basis Set:

    Orbital Energies (a.u.)
    -----------------------

    Doubly Occupied:

       1A    -20.569929     2A    -11.282590     3A    -11.233882
       4A    -11.226993     5A    -11.226372     6A    -11.222950
       7A    -11.222498     8A    -11.219913     9A     -1.396193
      10A     -1.153647    11A     -1.048595    12A     -1.007132
      13A     -0.936337    14A     -0.831575    15A     -0.810800
      16A     -0.730122    17A     -0.671389    18A     -0.658380
      19A     -0.625563    20A     -0.594433    21A     -0.573793
      22A     -0.569153    23A     -0.547389    24A     -0.522121
      25A     -0.503026    26A     -0.488083    27A     -0.466450
      28A     -0.333621    29A     -0.322387

  @DF-RHF Final Energy:  -344.71620156749401

   => Energetics <=

    Nuclear Repulsion Energy =            350.4679999615752308
    One-Electron Energy =               -1162.3777708010936749
    Two-Electron Energy =                 467.1935692720244333
    DFT Exchange-Correlation Energy =       0.0000000000000000
    Empirical Dispersion Energy =           0.0000000000000000
    PCM Polarization Energy =               0.0000000000000000
    EFP Energy =                            0.0000000000000000
    Total Energy =                       -344.7162015674939539
    Molecular point group: c1
  Basis Set: CC-PVTZ
  Basis Set:

  -Total Gradient:
     Atom            X                  Y                   Z
    ------   -----------------  -----------------  -----------------
       1       -0.000002163460     0.000038479308    -0.000671142038
       2       -0.000240295671    -0.000149652239     0.000790904487
       3        0.000590829759     0.000437156871    -0.000032006118
       4       -0.000416310495    -0.000270027876    -0.000124107360
       5        0.000036176083    -0.000024063285     0.000040512764
       6        0.000011085959    -0.000013268649     0.000024976621
       7        0.000071070616    -0.000078529050     0.000046062347
       8       -0.000099423379     0.000075259191     0.000044905774
       9       -0.000006829094    -0.000026752927    -0.000040334574
      10        0.000008360141    -0.000006349680    -0.000010581119
      11        0.000031645746     0.000011922960    -0.000099834107
      12        0.000004066453    -0.000007461106     0.000009499397
      13        0.000002764149     0.000001533242    -0.000006172245
      14        0.000003706424     0.000002176890     0.000016632686
      15        0.000016837120     0.000006643551     0.000006555347
      16       -0.000011520351     0.000002932801     0.000004128140

  **** Optimization is complete! (in 6 steps) ****
    Final optimized geometry and variables:
    Molecular point group: c1

    Geometry (in Angstrom), charge = 0, multiplicity = 1:

    H           -2.416505798918     1.023424454705    -0.238409648833
    O           -1.581186792782     1.457295739141    -0.232963989031
    C           -0.560855042422     0.545097862444    -0.291033671960
    C            0.055403449039     0.310689753690    -1.501952559439
    C           -0.134332889831    -0.090177051591     0.868702196388
    H           -0.297517594194     0.832044020999    -2.370485734136
    C            1.115171236208    -0.573554255654    -1.580159927466
    C            0.927016324502    -0.973700269106     0.767331167583
    C           -0.809458202867     0.185557659746     2.186969659877
    H            1.593945783306    -0.752288331343    -2.523782411985
    C            1.550983304793    -1.219620213806    -0.442292911861
    H            1.274158257595    -1.475192800356     1.651371042054
    H           -1.840606205603    -0.152523312450     2.183759288849
    H           -0.298183475527    -0.323574981390     2.992518731796
    H           -0.821522129646     1.246212110307     2.402652855129
    H            2.373427460882    -1.907135668730    -0.490379253165

  Mulliken Charges: (a.u.)
   Center  Symbol    Alpha    Beta     Spin     Total
       1     H     0.38990  0.38990  0.00000  0.22020
       2     O     4.18875  4.18875  0.00000 -0.37750
       3     C     2.88577  2.88577  0.00000  0.22846
       4     C     3.10642  3.10642  0.00000 -0.21284
       5     C     2.99503  2.99503  0.00000  0.00994
       6     H     0.41790  0.41790  0.00000  0.16421
       7     C     3.07693  3.07693  0.00000 -0.15387
       8     C     3.09432  3.09432  0.00000 -0.18864
       9     C     3.14786  3.14786  0.00000 -0.29571
      10     H     0.42204  0.42204  0.00000  0.15593
      11     C     3.07912  3.07912  0.00000 -0.15824
      12     H     0.42454  0.42454  0.00000  0.15092
      13     H     0.45567  0.45567  0.00000  0.08867
      14     H     0.45128  0.45128  0.00000  0.09744
      15     H     0.44049  0.44049  0.00000  0.11902
      16     H     0.42399  0.42399  0.00000  0.15203

   Total alpha = 29.00000, Total beta = 29.00000, Total charge = -0.00000
