                              Psi4 1.0.54 Driver

  ==> Input File <==

--------------------------------------------------------------------------
set {
	reference rhf
	basis cc-pvtz
}

set_num_threads( 4 )
memory 2 gb

molecule MOL {
0 1

H	 2.342730	 0.877684	 -1.045694
C	 2.360424	 0.000000	 -0.411793
C	 1.173749	 0.000000	 0.526870
H	 3.286567	 0.000000	 0.151574
H	 2.342730	 -0.877684	 -1.045694
O	 0.000000	 0.000000	 -0.223739
H	 1.203779	 0.876757	 1.172538
H	 1.203779	 -0.876757	 1.172538
C	 -1.173749	 0.000000	 0.526870
C	 -2.309026	 -0.513585	 -0.331421
H	 -1.392380	 1.007804	 0.877616
H	 -1.053114	 -0.628734	 1.408137
H	 -2.442294	 0.117187	 -1.201385
H	 -3.234294	 -0.522329	 0.233315
H	 -2.102669	 -1.521081	 -0.670303

	symmetry c1
}
set optking {
	frozen_dihedral = ("
		11 9 6 3
	")
}

ee,wfn = optimize('scf', return_wfn=True)
oeprop( wfn, 'DIPOLE', 'QUADRUPOLE', 'MULLIKEN_CHARGES')
f=open( 'psi4out.xyz', 'w' )
f.write( "15  " )
f.write( str(ee) + "\n" )
f.write( MOL.save_string_xyz() )
f.close()
--------------------------------------------------------------------------

    Molecular point group: c1
  Charge       = 0
  Multiplicity = 1
  Basis Set: CC-PVTZ
  Basis Set:
  @DF-RHF Final Energy:  -232.23261352345915
    Total Energy =                       -232.2326135234591220
    Molecular point group: c1
  Basis Set: CC-PVTZ
  Basis Set:
  Basis Set: CC-PVTZ
  Basis Set:
  @DF-RHF Final Energy:  -232.23266838589851
    Total Energy =                       -232.2326683858984779
  Basis Set: CC-PVTZ
  Basis Set:
  Basis Set: CC-PVTZ
  Basis Set:
  @DF-RHF Final Energy:  -232.23268217592647
    Total Energy =                       -232.2326821759264135
  Basis Set: CC-PVTZ
  Basis Set:
  Charge       = 0
  Multiplicity = 1
  Basis Set: CC-PVTZ
  Basis Set:

    Orbital Energies (a.u.)
    -----------------------

    Doubly Occupied:

       1A    -20.544777     2A    -11.266425     3A    -11.266056
       4A    -11.207183     5A    -11.206959     6A     -1.380403
       7A     -1.044948     8A     -0.983339     9A     -0.847506
      10A     -0.825912    11A     -0.678607    12A     -0.668510
      13A     -0.614427    14A     -0.593197    15A     -0.549665
      16A     -0.532431    17A     -0.522735    18A     -0.494668
      19A     -0.487551    20A     -0.466349    21A     -0.412524

  @DF-RHF Final Energy:  -232.23268240873873

   => Energetics <=

    Nuclear Repulsion Energy =            191.2979195937549264
    One-Electron Energy =                -693.8728641170883975
    Two-Electron Energy =                 270.3422621145948597
    DFT Exchange-Correlation Energy =       0.0000000000000000
    Empirical Dispersion Energy =           0.0000000000000000
    PCM Polarization Energy =               0.0000000000000000
    EFP Energy =                            0.0000000000000000
    Total Energy =                       -232.2326824087385830
    Molecular point group: c1
  Basis Set: CC-PVTZ
  Basis Set:

  -Total Gradient:
     Atom            X                  Y                   Z
    ------   -----------------  -----------------  -----------------
       1       -0.000006844319    -0.000004617013     0.000008684303
       2        0.000006716083    -0.000008727852     0.000000473375
       3        0.000020462535    -0.002022755784     0.000029347756
       4        0.000012996511    -0.000001545482    -0.000001260395
       5        0.000002750730     0.000003178893    -0.000001340628
       6       -0.000393400613     0.003027497315    -0.000573376654
       7       -0.000007353564    -0.000004575544    -0.000003136906
       8       -0.000007786301     0.000004400759    -0.000006691874
       9        0.001713321693    -0.001393615740     0.002651766976
      10       -0.000011825306     0.000013251747     0.000004634843
      11       -0.001317314458     0.000387417200    -0.002106622006
      12       -0.000002398384     0.000002235491    -0.000000993426
      13       -0.000007587539    -0.000011140376     0.000003773109
      14       -0.000003869010    -0.000001331768    -0.000009061393
      15        0.000002131940     0.000010328155     0.000003802922

  **** Optimization is complete! (in 4 steps) ****
    Final optimized geometry and variables:
    Molecular point group: c1

    Geometry (in Angstrom), charge = 0, multiplicity = 1:

    H            2.322203176995     0.999720071194    -1.064552163838
    C            2.349981060050     0.120534367119    -0.433048584633
    C            1.168191391190     0.107933111894     0.511655105508
    H            3.279079247103     0.126328686920     0.125672829484
    H            2.335750313596    -0.755587699046    -1.069374212215
    O           -0.008890862402     0.090385448097    -0.234030101665
    H            1.193634008323     0.986253628368     1.155963299009
    H            1.211048147171    -0.767291509437     1.157962863525
    C           -1.186764587259     0.098040288422     0.512794355477
    C           -2.322464598768    -0.410514527271    -0.350465909101
    H           -1.407926506645     1.111503776577     0.843857477446
    H           -1.078947852926    -0.526091600987     1.397174051346
    H           -2.427066575059     0.203357401553    -1.236453660297
    H           -3.256659708847    -0.382175287344     0.199290019552
    H           -2.136495738207    -1.430246022565    -0.664084338108

  Mulliken Charges: (a.u.)
   Center  Symbol    Alpha    Beta     Spin     Total
       1     H     0.45148  0.45148  0.00000  0.09703
       2     C     3.13562  3.13562  0.00000 -0.27123
       3     C     2.96639  2.96639  0.00000  0.06722
       4     H     0.45897  0.45897  0.00000  0.08205
       5     H     0.45165  0.45165  0.00000  0.09671
       6     O     4.18012  4.18012  0.00000 -0.36025
       7     H     0.47410  0.47410  0.00000  0.05179
       8     H     0.47257  0.47257  0.00000  0.05486
       9     C     2.96828  2.96828  0.00000  0.06345
      10     C     3.13465  3.13465  0.00000 -0.26931
      11     H     0.46861  0.46861  0.00000  0.06277
      12     H     0.47431  0.47431  0.00000  0.05139
      13     H     0.45093  0.45093  0.00000  0.09814
      14     H     0.45923  0.45923  0.00000  0.08154
      15     H     0.45309  0.45309  0.00000  0.09382

   Total alpha = 21.00000, Total beta = 21.00000, Total charge =  0.00000

*** Psi4 exiting successfully. Buy a developer a beer!
