  ==> Input File <==

--------------------------------------------------------------------------
set {
	reference rhf
	basis 6-31G*
}

set_num_threads( 4 )
memory 2 gb

molecule MOL {
0 1

H	 2.603957	 -0.947225	 -1.850757
C	 1.884017	 -1.171124	 -1.071987
C	 1.322923	 0.120767	 -0.479465
H	 1.099185	 -1.779120	 -1.511023
H	 2.387640	 -1.766185	 -0.316435
C	 0.306652	 -0.176050	 0.621399
H	 0.839891	 0.707398	 -1.254043
H	 2.122531	 0.722897	 -0.064340
N	 -1.068537	 -0.011044	 0.085269
H	 0.372515	 -1.192590	 0.973735
H	 0.391664	 0.520566	 1.441230
O	 -1.656956	 -0.997225	 -0.235017
O	 -1.478635	 1.104830	 -0.018026

	symmetry c1
}
set optking {
	frozen_dihedral = ("
		7 3 6 9
	")
}

ee = optimize('scf')
oeprop('DIPOLE', 'QUADRUPOLE', 'MULLIKEN_CHARGES')
f=open( 'psi4out.xyz', 'w' )
f.write( "13  " )
f.write( str(ee) + "\n" )
f.write( MOL.save_string_xyz() )
f.close()
--------------------------------------------------------------------------

    Molecular point group: c1
  Charge       = 0
  Multiplicity = 1
  Basis Set: 6-31G*
  Basis Set:
  @DF-RHF Final Energy:  -321.73089193364933
    Total Energy =                       -321.7308919336494455
    Molecular point group: c1
  Basis Set: 6-31G*
  Basis Set:
  Basis Set: 6-31G*
  Basis Set:
  @DF-RHF Final Energy:  -321.73105568831323
    Total Energy =                       -321.7310556883131767
  Basis Set: 6-31G*
  Basis Set:
  Basis Set: 6-31G*
  Basis Set:
  @DF-RHF Final Energy:  -321.73099089576169
    Total Energy =                       -321.7309908957613516
  Basis Set: 6-31G*
  Basis Set:
  Basis Set: 6-31G*
  Basis Set:
  @DF-RHF Final Energy:  -321.73085794578787
    Total Energy =                       -321.7308579457878750
  Basis Set: 6-31G*
  Basis Set:
  @DF-RHF Final Energy:  -321.73123601593585
    Total Energy =                       -321.7312360159356786
  @DF-RHF Final Energy:  -321.73133399033509
    Total Energy =                       -321.7313339903350879
  @DF-RHF Final Energy:  -321.73134121659336
    Total Energy =                       -321.7313412165933073
  @DF-RHF Final Energy:  -321.73134643504079
    Total Energy =                       -321.7313464350407912
  @DF-RHF Final Energy:  -321.73135664829829
    Total Energy =                       -321.7313566482983447
  @DF-RHF Final Energy:  -321.73115467268633
    Total Energy =                       -321.7311546726865004
  @DF-RHF Final Energy:  -321.73136716080506
    Total Energy =                       -321.7313671608052346
  @DF-RHF Final Energy:  -321.73137909538366
    Total Energy =                       -321.7313790953837724
  @DF-RHF Final Energy:  -321.73138280292676
    Total Energy =                       -321.7313828029266460
  @DF-RHF Final Energy:  -321.73139079085695
    Total Energy =                       -321.7313907908567217
  @DF-RHF Final Energy:  -321.73139265301864
    Total Energy =                       -321.7313926530187587
  Basis Set: 6-31G*
  Basis Set:
  @DF-RHF Final Energy:  -321.73138918366271
    Total Energy =                       -321.7313891836627135
  Basis Set: 6-31G*
  Basis Set:
  Basis Set: 6-31G*
  Basis Set:
  @DF-RHF Final Energy:  -321.73136192377626
    Total Energy =                       -321.7313619237762623
  Basis Set: 6-31G*
  Basis Set:
  Basis Set: 6-31G*
  Basis Set:
  @DF-RHF Final Energy:  -321.73139314616134
    Total Energy =                       -321.7313931461614516
  Basis Set: 6-31G*
  Basis Set:
  Charge       = 0
  Multiplicity = 1
  Basis Set: 6-31G*
  Basis Set:

    Orbital Energies (a.u.)
    -----------------------

    Doubly Occupied:

       1A    -20.602025     2A    -20.599842     3A    -15.847154
       4A    -11.299570     5A    -11.258415     6A    -11.232166
       7A     -1.630835     8A     -1.416194     9A     -1.132999
      10A     -1.024838    11A     -0.885941    12A     -0.831244
      13A     -0.760297    14A     -0.732944    15A     -0.722802
      16A     -0.651382    17A     -0.623375    18A     -0.591634
      19A     -0.531213    20A     -0.522489    21A     -0.516229
      22A     -0.481161    23A     -0.472598    24A     -0.449157

  @DF-RHF Final Energy:  -321.73139403816458

   => Energetics <=

    Nuclear Repulsion Energy =            250.0818728285765076
    One-Electron Energy =                -933.9935234839090299
    Two-Electron Energy =                 362.1802566171681406
    DFT Exchange-Correlation Energy =       0.0000000000000000
    Empirical Dispersion Energy =           0.0000000000000000
    PCM Polarization Energy =               0.0000000000000000
    EFP Energy =                            0.0000000000000000
    Total Energy =                       -321.7313940381644102
    Molecular point group: c1
  Basis Set: 6-31G*
  Basis Set:

  -Total Gradient:
     Atom            X                  Y                   Z
    ------   -----------------  -----------------  -----------------
       1       -0.000007805427    -0.000001655415    -0.000009545907
       2        0.000136682989     0.000049930472     0.000006751055
       3        0.000990948661     0.003829217943     0.001938827286
       4       -0.000006705546     0.000000146727     0.000003402382
       5        0.000002558832    -0.000010865288    -0.000008446163
       6       -0.000116314223    -0.003503412252    -0.001004383645
       7       -0.000831718300    -0.002774772984    -0.001459878596
       8       -0.000129463451     0.000153046096    -0.000025980569
       9       -0.000004881827     0.002348986613     0.000725826641
      10       -0.000021273624    -0.000046641105    -0.000147367972
      11       -0.000039220687    -0.000087339232     0.000104073717
      12       -0.000026991490    -0.000022978666    -0.000011624838
      13        0.000054184094     0.000066337094    -0.000111653389

  **** Optimization is complete! (in 19 steps) ****
    Final optimized geometry and variables:
    Molecular point group: c1

    Geometry (in Angstrom), charge = 0, multiplicity = 1:

    H            2.743895551114    -0.801069748462    -1.687602868226
    C            2.045240728049    -1.016321480016    -0.886473943130
    C            1.473290762192     0.279453710994    -0.311608420846
    H            1.255385863623    -1.642469664574    -1.285679601587
    H            2.575057932609    -1.582701330486    -0.126419368531
    C            0.449336035042     0.036870981742     0.814085720866
    H            0.995795553432     0.838694456138    -1.108546047564
    H            2.269241313871     0.901435290469     0.080124708668
    N           -0.926544093757     0.194190707582     0.278862006653
    H            0.504126796282    -0.965369226772     1.208678982951
    H            0.531658045860     0.760725445541     1.607525511003
    O           -1.388365741245    -0.734449273127    -0.312852109988
    O           -1.462553154870     1.246545761732     0.439468533912

  Mulliken Charges: (a.u.)
   Center  Symbol    Alpha    Beta     Spin     Total
       1     H     0.41169  0.41169  0.00000  0.17662
       2     C     3.24695  3.24695  0.00000 -0.49390
       3     C     3.17229  3.17229  0.00000 -0.34458
       4     H     0.40322  0.40322  0.00000  0.19356
       5     H     0.41839  0.41839  0.00000  0.16323
       6     C     3.08977  3.08977  0.00000 -0.17954
       7     H     0.39699  0.39699  0.00000  0.20602
       8     H     0.40497  0.40497  0.00000  0.19006
       9     N     3.22506  3.22506  0.00000  0.54987
      10     H     0.38664  0.38664  0.00000  0.22671
      11     H     0.38507  0.38507  0.00000  0.22987
      12     O     4.23090  4.23090  0.00000 -0.46181
      13     O     4.22806  4.22806  0.00000 -0.45611

   Total alpha = 24.00000, Total beta = 24.00000, Total charge =  0.00000
