  ==> Input File <==

--------------------------------------------------------------------------
set {
	reference rhf
	basis cc-pvtz
}

set_num_threads( 4 )
memory 2 gb

molecule MOL {
0 1

H	 -2.044944	 1.589841	 1.152201
C	 -2.267262	 0.536088	 1.050221
C	 -0.995481	 -0.296683	 1.093607
H	 -2.787068	 0.402238	 0.111019
H	 -2.933244	 0.247137	 1.854508
C	 0.000000	 0.039916	 0.000014
H	 -1.224588	 -1.356080	 1.015598
H	 -0.488904	 -0.178843	 2.047748
C	 1.286532	 -0.763243	 0.000268
O	 -0.215201	 0.882539	 -0.808722
C	 2.547023	 0.087626	 -0.000114
H	 1.264245	 -1.421103	 -0.864380
H	 1.264290	 -1.420353	 0.865489
H	 2.584452	 0.725630	 -0.872909
H	 3.427035	 -0.544422	 0.000125
H	 2.584484	 0.726356	 0.872143

	symmetry c1
}
set optking {
	frozen_dihedral = ("
		3 6 9 12
	")
}

ee = optimize('scf')
oeprop('DIPOLE', 'QUADRUPOLE', 'MULLIKEN_CHARGES')
f=open( 'psi4out.xyz', 'w' )
f.write( "16  " )
f.write( str(ee) + "\n" )
f.write( MOL.save_string_xyz() )
f.close()
--------------------------------------------------------------------------

    Molecular point group: c1
  Charge       = 0
  Multiplicity = 1
  Basis Set: CC-PVTZ
  Basis Set:
  @DF-RHF Final Energy:  -270.12961669227724
    Total Energy =                       -270.1296166922772954
    Molecular point group: c1
  Basis Set: CC-PVTZ
  Basis Set:
  Basis Set: CC-PVTZ
  Basis Set:
  @DF-RHF Final Energy:  -270.13024604261955
    Total Energy =                       -270.1302460426194330
  Basis Set: CC-PVTZ
  Basis Set:
  Basis Set: CC-PVTZ
  Basis Set:
  @DF-RHF Final Energy:  -270.13026233491905
    Total Energy =                       -270.1302623349189389
  Basis Set: CC-PVTZ
  Basis Set:
  Basis Set: CC-PVTZ
  Basis Set:
  @DF-RHF Final Energy:  -270.13010708793388
    Total Energy =                       -270.1301070879339363
  Basis Set: CC-PVTZ
  Basis Set:
  Basis Set: CC-PVTZ
  Basis Set:
  @DF-RHF Final Energy:  -270.13027050288474
    Total Energy =                       -270.1302705028847413
  Basis Set: CC-PVTZ
  Basis Set:
  Charge       = 0
  Multiplicity = 1
  Basis Set: CC-PVTZ
  Basis Set:

    Orbital Energies (a.u.)
    -----------------------

    Doubly Occupied:

       1A    -20.537460     2A    -11.317949     3A    -11.233158
       4A    -11.230938     5A    -11.217645     6A    -11.211860
       7A     -1.398368     8A     -1.069693     9A     -1.037823
      10A     -0.915337    11A     -0.850381    12A     -0.726714
      13A     -0.668115    14A     -0.644274    15A     -0.624381
      16A     -0.604122    17A     -0.565033    18A     -0.536290
      19A     -0.528558    20A     -0.512523    21A     -0.502967
      22A     -0.497408    23A     -0.480733    24A     -0.398872

  @DF-RHF Final Energy:  -270.13027061140144

   => Energetics <=

    Nuclear Repulsion Energy =            240.4335130963987410
    One-Electron Energy =                -842.5063610844820232
    Two-Electron Energy =                 331.9425773766818111
    DFT Exchange-Correlation Energy =       0.0000000000000000
    Empirical Dispersion Energy =           0.0000000000000000
    PCM Polarization Energy =               0.0000000000000000
    EFP Energy =                            0.0000000000000000
    Total Energy =                       -270.1302706114014427
    Molecular point group: c1
  Basis Set: CC-PVTZ
  Basis Set:

  -Total Gradient:
     Atom            X                  Y                   Z
    ------   -----------------  -----------------  -----------------
       1        0.000000585030    -0.000002572890     0.000000420280
       2        0.000000439879     0.000003897382     0.000001834186
       3        0.000290212189     0.000434086545     0.000424689691
       4        0.000001593824    -0.000000481926     0.000000960596
       5       -0.000001477474     0.000001624126     0.000000657961
       6       -0.000343390740    -0.000498509231    -0.000699559728
       7       -0.000003861620    -0.000004539931     0.000001914154
       8       -0.000001180861    -0.000000489292    -0.000008074134
       9       -0.000337021416    -0.000555864743     0.000746946770
      10        0.000005726014    -0.000006963367    -0.000005136776
      11       -0.000015264395    -0.000002716185    -0.000007932051
      12        0.000401393335     0.000631525754    -0.000461696491
      13       -0.000002457258     0.000001889572     0.000001438210
      14        0.000002474154     0.000000493333    -0.000001675220
      15        0.000001769213    -0.000000431755     0.000001418328
      16        0.000000460129    -0.000000947393     0.000003794223

  **** Optimization is complete! (in 6 steps) ****
    Final optimized geometry and variables:
    Molecular point group: c1

    Geometry (in Angstrom), charge = 0, multiplicity = 1:

    H           -2.132775436220     1.493280432867     0.894288726651
    C           -2.349235483405     0.438331729947     0.792947134816
    C           -1.076022297923    -0.388193497633     0.869165368583
    H           -2.846196350000     0.297829623586    -0.157818398322
    H           -3.033309079164     0.150986454579     1.582477663481
    C           -0.052166627318    -0.053711417848    -0.193399326231
    H           -1.292737818588    -1.451015398333     0.791882697494
    H           -0.586694010398    -0.264646572993     1.832732652436
    C            1.222550300473    -0.881527970327    -0.205497932332
    O           -0.224371162803     0.812475514189    -0.987930980762
    C            2.477296208140    -0.012426659941    -0.256640658630
    H            1.177392153683    -1.502707026860    -1.095021884174
    H            1.249555038285    -1.545748685735     0.649751707348
    H            2.449797613859     0.642645433336    -1.115571147141
    H            3.363976262553    -0.630996414817    -0.320949980870
    H            2.563582962036     0.602506086846     0.632298396321

  Mulliken Charges: (a.u.)
   Center  Symbol    Alpha    Beta     Spin     Total
       1     H     0.44724  0.44724  0.00000  0.10552
       2     C     3.14114  3.14114  0.00000 -0.28228
       3     C     3.10213  3.10213  0.00000 -0.20427
       4     H     0.44825  0.44825  0.00000  0.10351
       5     H     0.45080  0.45080  0.00000  0.09841
       6     C     2.86745  2.86745  0.00000  0.26511
       7     H     0.44514  0.44514  0.00000  0.10971
       8     H     0.44585  0.44585  0.00000  0.10830
       9     C     3.09503  3.09503  0.00000 -0.19007
      10     O     4.17665  4.17665  0.00000 -0.35330
      11     C     3.14429  3.14429  0.00000 -0.28857
      12     H     0.44436  0.44436  0.00000  0.11127
      13     H     0.44686  0.44686  0.00000  0.10627
      14     H     0.44010  0.44010  0.00000  0.11979
      15     H     0.44921  0.44921  0.00000  0.10159
      16     H     0.45549  0.45549  0.00000  0.08901

   Total alpha = 24.00000, Total beta = 24.00000, Total charge =  0.00000
