  ==> Input File <==

--------------------------------------------------------------------------
set {
	reference rhf
	basis 6-31G*
}

set_num_threads( 1 )
memory 2 gb

molecule MOL {
0 1

O	 2.948497	 1.215988	 -0.553844
C	 2.843464	 0.164689	 -0.000222
C	 1.546494	 -0.624492	 -0.000609
C	 4.008208	 -0.454541	 0.744816
C	 0.291004	 0.242674	 0.000989
H	 1.557904	 -1.283758	 -0.867573
H	 1.558622	 -1.285963	 0.864672
C	 -0.994322	 -0.586602	 0.000262
H	 0.309117	 0.896430	 -0.865270
H	 0.309661	 0.894078	 0.869017
C	 -2.259874	 0.272531	 0.000494
H	 -1.004862	 -1.240012	 -0.870939
H	 -1.005220	 -1.241071	 0.870675
C	 -3.549786	 -0.549746	 -0.000374
H	 -2.250389	 0.926680	 -0.869574
H	 -2.250838	 0.925513	 0.871430
C	 -4.809590	 0.315458	 -0.000369
H	 -3.560515	 -1.202009	 -0.871156
H	 -3.561123	 -1.202955	 0.869711
H	 -4.844746	 0.956611	 -0.876632
H	 -5.706986	 -0.295590	 -0.001609
H	 -4.845960	 0.954827	 0.877144
H	 4.249896	 -1.428123	 0.328471
H	 4.871535	 0.192440	 0.674699
H	 3.752262	 -0.605449	 1.789494

	symmetry c1
}
set optking {
	frozen_dihedral = ("
		9 5 8 12,
		15 11 8 12,
		15 11 14 18,
		9 5 3 6
	")
}

ee = energy('scf')
oeprop('DIPOLE', 'QUADRUPOLE', 'MULLIKEN_CHARGES')
f=open( 'psi4out.xyz', 'w' )
f.write( "25  " )
f.write( str(ee) + "\n" )
f.write( MOL.save_string_xyz() )
f.close()
--------------------------------------------------------------------------

    Molecular point group: c1

    Geometry (in Angstrom), charge = 0, multiplicity = 1:

       Center              X                  Y                   Z               Mass
    ------------   -----------------  -----------------  -----------------  -----------------
           O          2.952014854909     1.210217438433    -0.576444419739    15.994914619560
           C          2.846981854909     0.158918438433    -0.022822419739    12.000000000000
           C          1.550011854909    -0.630262561567    -0.023209419739    12.000000000000
           C          4.011725854909    -0.460311561567     0.722215580261    12.000000000000
           C          0.294521854909     0.236903438433    -0.021611419739    12.000000000000
           H          1.561421854909    -1.289528561567    -0.890173419739     1.007825032070
           H          1.562139854909    -1.291733561567     0.842071580261     1.007825032070
           C         -0.990804145091    -0.592372561567    -0.022338419739    12.000000000000
           H          0.312634854909     0.890659438433    -0.887870419739     1.007825032070
           H          0.313178854909     0.888307438433     0.846416580261     1.007825032070
           C         -2.256356145091     0.266760438433    -0.022106419739    12.000000000000
           H         -1.001344145091    -1.245782561567    -0.893539419739     1.007825032070
           H         -1.001702145091    -1.246841561567     0.848074580261     1.007825032070
           C         -3.546268145091    -0.555516561567    -0.022974419739    12.000000000000
           H         -2.246871145091     0.920909438433    -0.892174419739     1.007825032070
           H         -2.247320145091     0.919742438433     0.848829580261     1.007825032070
           C         -4.806072145091     0.309687438433    -0.022969419739    12.000000000000
           H         -3.556997145091    -1.207779561567    -0.893756419739     1.007825032070
           H         -3.557605145091    -1.208725561567     0.847110580261     1.007825032070
           H         -4.841228145091     0.950840438433    -0.899232419739     1.007825032070
           H         -5.703468145091    -0.301360561567    -0.024209419739     1.007825032070
           H         -4.842442145091     0.949056438433     0.854543580261     1.007825032070
           H          4.253413854909    -1.433893561567     0.305870580261     1.007825032070
           H          4.875052854909     0.186669438433     0.652098580261     1.007825032070
           H          3.755779854909    -0.611219561567     1.766893580261     1.007825032070

  Charge       = 0
  Multiplicity = 1
  Basis Set: 6-31G*
  Basis Set:

    Orbital Energies (a.u.)
    -----------------------

    Doubly Occupied:

       1A    -20.549374     2A    -11.325962     3A    -11.231182
       4A    -11.228098     5A    -11.220257     6A    -11.218313
       7A    -11.216269     8A    -11.214734     9A    -11.209032
      10A     -1.394903    11A     -1.095122    12A     -1.057173
      13A     -1.014373    14A     -0.969602    15A     -0.891619
      16A     -0.815477    17A     -0.792132    18A     -0.730565
      19A     -0.662873    20A     -0.650167    21A     -0.634333
      22A     -0.619110    23A     -0.597584    24A     -0.585114
      25A     -0.567789    26A     -0.559662    27A     -0.541040
      28A     -0.530565    29A     -0.511416    30A     -0.492190
      31A     -0.487747    32A     -0.473391    33A     -0.465063
      34A     -0.463606    35A     -0.451655    36A     -0.397619

  @DF-RHF Final Energy:  -387.13522149432873

   => Energetics <=

    Nuclear Repulsion Energy =            438.1967427078059814
    One-Electron Energy =               -1392.9337705351449586
    Two-Electron Energy =                 567.6018063330106997
    DFT Exchange-Correlation Energy =       0.0000000000000000
    Empirical Dispersion Energy =           0.0000000000000000
    PCM Polarization Energy =               0.0000000000000000
    EFP Energy =                            0.0000000000000000
    Total Energy =                       -387.1352214943283343

  Mulliken Charges: (a.u.)
   Center  Symbol    Alpha    Beta     Spin     Total
       1     O     4.26219  4.26219  0.00000 -0.52437
       2     C     2.73418  2.73418  0.00000  0.53163
       3     C     3.20878  3.20878  0.00000 -0.41757
       4     C     3.28874  3.28874  0.00000 -0.57748
       5     C     3.15195  3.15195  0.00000 -0.30389
       6     H     0.40382  0.40382  0.00000  0.19236
       7     H     0.41578  0.41578  0.00000  0.16843
       8     C     3.15362  3.15362  0.00000 -0.30724
       9     H     0.40532  0.40532  0.00000  0.18937
      10     H     0.41814  0.41814  0.00000  0.16372
      11     C     3.15104  3.15104  0.00000 -0.30208
      12     H     0.42332  0.42332  0.00000  0.15337
      13     H     0.42465  0.42465  0.00000  0.15070
      14     C     3.15163  3.15163  0.00000 -0.30326
      15     H     0.42172  0.42172  0.00000  0.15655
      16     H     0.42312  0.42312  0.00000  0.15375
      17     C     3.23938  3.23938  0.00000 -0.47877
      18     H     0.42309  0.42309  0.00000  0.15383
      19     H     0.42356  0.42356  0.00000  0.15289
      20     H     0.42111  0.42111  0.00000  0.15778
      21     H     0.41933  0.41933  0.00000  0.16134
      22     H     0.42155  0.42155  0.00000  0.15689
      23     H     0.40844  0.40844  0.00000  0.18311
      24     H     0.39718  0.39718  0.00000  0.20564
      25     H     0.40836  0.40836  0.00000  0.18329

   Total alpha = 36.00000, Total beta = 36.00000, Total charge = -0.00000
