                              Psi4 1.0.54 Driver

  ==> Input File <==

--------------------------------------------------------------------------
set {
	reference rhf
	basis cc-pvtz
}

set_num_threads( 4 )
memory 2 gb

molecule MOL {
0 1

H	 2.867672	 -0.456275	 0.875795
C	 2.403497	 -0.020426	 0.000000
N	 0.989899	 -0.304564	 0.000000
H	 2.867672	 -0.456275	 -0.875795
H	 2.620366	 1.051270	 0.000000
C	 0.315497	 0.242468	 -1.159096
C	 0.338896	 0.126057	 1.219970
H	 0.405308	 1.332556	 -1.196334
H	 0.772220	 -0.155117	 -2.058017
C	 -1.153373	 -0.134300	 -1.132445
H	 0.812787	 -0.356943	 2.066649
H	 0.430467	 1.207389	 1.361674
C	 -1.130575	 -0.247720	 1.185494
H	 -1.682847	 0.345629	 -1.943588
H	 -1.254406	 -1.211973	 -1.244306
O	 -1.759359	 0.280769	 0.055681
H	 -1.643570	 0.150225	 2.049845
H	 -1.230428	 -1.331262	 1.193579

	symmetry c1
}
set optking {
	frozen_dihedral = ("
		6 3 2 5
	")
}

ee,wfn = optimize('scf', return_wfn=True)
oeprop( wfn, 'DIPOLE', 'QUADRUPOLE', 'MULLIKEN_CHARGES')
f=open( 'psi4out.xyz', 'w' )
f.write( "18  " )
f.write( str(ee) + "\n" )
f.write( MOL.save_string_xyz() )
f.close()
--------------------------------------------------------------------------

    Molecular point group: c1
  Charge       = 0
  Multiplicity = 1
  Basis Set: CC-PVTZ
  Basis Set:
  @DF-RHF Final Energy:  -325.14580827174069
    Total Energy =                       -325.1458082717406342
    Molecular point group: c1
  Basis Set: CC-PVTZ
  Basis Set:
  Charge       = 0
  Multiplicity = 1
  Basis Set: CC-PVTZ
  Basis Set:

    Orbital Energies (a.u.)
    -----------------------

    Doubly Occupied:

       1A    -20.547646     2A    -15.544728     3A    -11.264446
       4A    -11.264423     5A    -11.242574     6A    -11.242542
       7A    -11.239238     8A     -1.386569     9A     -1.234588
      10A     -1.039238    11A     -0.982238    12A     -0.884121
      13A     -0.869563    14A     -0.774782    15A     -0.685254
      16A     -0.646730    17A     -0.645434    18A     -0.635475
      19A     -0.631313    20A     -0.574432    21A     -0.557212
      22A     -0.540474    23A     -0.527423    24A     -0.501787
      25A     -0.485287    26A     -0.454093    27A     -0.410809
      28A     -0.356247

  @DF-RHF Final Energy:  -325.14581236694056

   => Energetics <=

    Nuclear Repulsion Energy =            342.0034693626784588
    One-Electron Energy =               -1119.9612413190120606
    Two-Electron Energy =                 452.8119595893928704
    DFT Exchange-Correlation Energy =       0.0000000000000000
    Empirical Dispersion Energy =           0.0000000000000000
    PCM Polarization Energy =               0.0000000000000000
    EFP Energy =                            0.0000000000000000
    Total Energy =                       -325.1458123669406746
    Molecular point group: c1
  Basis Set: CC-PVTZ
  Basis Set:

  -Total Gradient:
     Atom            X                  Y                   Z
    ------   -----------------  -----------------  -----------------
       1        0.000015853057     0.000002656878     0.000031348584
       2       -0.000169432583     0.000159202501     0.000816558850
       3        0.000060908969    -0.000609536663    -0.000591993294
       4       -0.000036880818     0.000003535363     0.000030340061
       5        0.000024667090     0.000013219070    -0.000638790411
       6        0.000031902163     0.000412680044     0.000396587405
       7        0.000038823901    -0.000015524431    -0.000122804290
       8        0.000005085194    -0.000000498219     0.000008349477
       9        0.000030046478    -0.000005868092     0.000004827059
      10        0.000005254730    -0.000042770963     0.000002727796
      11        0.000007314369    -0.000002007275    -0.000025970804
      12       -0.000052709151     0.000028911260     0.000067697591
      13        0.000046808289     0.000040259046     0.000055172617
      14        0.000008517839     0.000000983174    -0.000003264815
      15        0.000001174052     0.000000139257    -0.000004726441
      16       -0.000024501131     0.000017068513    -0.000035220875
      17        0.000000302595    -0.000009737031     0.000012139152
      18        0.000006864959     0.000007287570    -0.000002977660

  **** Optimization is complete! (in 2 steps) ****
    Final optimized geometry and variables:
    Molecular point group: c1

    Geometry (in Angstrom), charge = 0, multiplicity = 1:

    H            2.870634540764    -0.457670520025     0.847161604773
    C            2.402826997153    -0.018776496214    -0.025022532964
    N            0.989913136741    -0.305925702198    -0.023337573662
    H            2.865163673819    -0.449704830684    -0.904526646756
    H            2.617602566070     1.053387419611    -0.024304052516
    C            0.316348591179     0.242169820394    -1.182129012310
    C            0.338315041948     0.128430767784     1.195229924967
    H            0.406030581119     1.332333887016    -1.217248440078
    H            0.774248246915    -0.153544566679    -2.081532810176
    C           -1.152540026541    -0.134877155058    -1.157405005126
    H            0.811273826859    -0.352551398324     2.043603458407
    H            0.429130803672     1.210211571742     1.334765784888
    C           -1.131196090382    -0.245536641990     1.160707764067
    H           -1.680796398947     0.344706683095    -1.969634153165
    H           -1.253019501954    -1.212641022067    -1.269317671809
    O           -1.760015286856     0.280531824471     0.029780443563
    H           -1.644416741242     0.153469368214     2.024521948935
    H           -1.230294073941    -1.329188640218     1.170757455629

  Mulliken Charges: (a.u.)
   Center  Symbol    Alpha    Beta     Spin     Total
       1     H     0.45169  0.45169  0.00000  0.09661
       2     C     3.09495  3.09495  0.00000 -0.18989
       3     N     3.61694  3.61694  0.00000 -0.23389
       4     H     0.45133  0.45133  0.00000  0.09735
       5     H     0.46951  0.46951  0.00000  0.06098
       6     C     3.04129  3.04129  0.00000 -0.08257
       7     C     3.04085  3.04085  0.00000 -0.08170
       8     H     0.46860  0.46860  0.00000  0.06279
       9     H     0.45401  0.45401  0.00000  0.09198
      10     C     2.98342  2.98342  0.00000  0.03316
      11     H     0.45389  0.45389  0.00000  0.09222
      12     H     0.46898  0.46898  0.00000  0.06205
      13     C     2.98357  2.98357  0.00000  0.03287
      14     H     0.44975  0.44975  0.00000  0.10050
      15     H     0.46749  0.46749  0.00000  0.06502
      16     O     4.18649  4.18649  0.00000 -0.37299
      17     H     0.44972  0.44972  0.00000  0.10057
      18     H     0.46752  0.46752  0.00000  0.06495

   Total alpha = 28.00000, Total beta = 28.00000, Total charge =  0.00000

*** Psi4 exiting successfully. Buy a developer a beer!
