                              Psi4 1.0.54 Driver

  ==> Input File <==

--------------------------------------------------------------------------
set {
	reference rhf
	basis cc-pvtz
}

set_num_threads( 4 )
memory 2 gb

molecule MOL {
0 1

H	 -3.162190	 0.493205	 -0.000107
C	 -2.363908	 -0.234727	 0.000005
O	 -1.158738	 0.454634	 -0.000087
H	 -2.464314	 -0.863616	 -0.882153
H	 -2.464327	 -0.863359	 0.882345
C	 -0.349682	 0.201467	 -1.105370
C	 0.926712	 1.009416	 -0.985237
H	 -0.876515	 0.465448	 -2.022648
H	 -0.117115	 -0.862145	 -1.162689
C	 1.869888	 0.786555	 -2.162141
H	 0.665246	 2.059104	 -0.909630
H	 1.418624	 0.742024	 -0.056541
H	 1.405420	 1.071098	 -3.100433
H	 2.772270	 1.375051	 -2.050779
H	 2.164067	 -0.254711	 -2.241464

	symmetry c1
}
set optking {
	frozen_dihedral = ("
		6 3 2 4
	")
}

ee,wfn = optimize('scf', return_wfn=True)
oeprop( wfn, 'DIPOLE', 'QUADRUPOLE', 'MULLIKEN_CHARGES')
f=open( 'psi4out.xyz', 'w' )
f.write( "15  " )
f.write( str(ee) + "\n" )
f.write( MOL.save_string_xyz() )
f.close()
--------------------------------------------------------------------------

    Molecular point group: c1
  Charge       = 0
  Multiplicity = 1
  Basis Set: CC-PVTZ
  Basis Set:
  @DF-RHF Final Energy:  -232.22407235608850
    Total Energy =                       -232.2240723560886408
    Molecular point group: c1
  Basis Set: CC-PVTZ
  Basis Set:
  Basis Set: CC-PVTZ
  Basis Set:
  @DF-RHF Final Energy:  -232.22445621796510
    Total Energy =                       -232.2244562179650416
  Basis Set: CC-PVTZ
  Basis Set:
  Basis Set: CC-PVTZ
  Basis Set:
  @DF-RHF Final Energy:  -232.22456881399037
    Total Energy =                       -232.2245688139902882
  Basis Set: CC-PVTZ
  Basis Set:
  Charge       = 0
  Multiplicity = 1
  Basis Set: CC-PVTZ
  Basis Set:

    Orbital Energies (a.u.)
    -----------------------

    Doubly Occupied:

       1A    -20.543844     2A    -11.264898     3A    -11.261259
       4A    -11.212193     5A    -11.210438     6A     -1.376719
       7A     -1.057998     8A     -0.956097     9A     -0.877403
      10A     -0.809164    11A     -0.673041    12A     -0.653756
      13A     -0.631567    14A     -0.608388    15A     -0.563485
      16A     -0.545858    17A     -0.502880    18A     -0.489391
      19A     -0.479256    20A     -0.461935    21A     -0.410900

  @DF-RHF Final Energy:  -232.22456955649491

   => Energetics <=

    Nuclear Repulsion Energy =            189.6587909646350170
    One-Electron Energy =                -690.5857814929033793
    Two-Electron Energy =                 268.7024209717734493
    DFT Exchange-Correlation Energy =       0.0000000000000000
    Empirical Dispersion Energy =           0.0000000000000000
    PCM Polarization Energy =               0.0000000000000000
    EFP Energy =                            0.0000000000000000
    Total Energy =                       -232.2245695564948846
    Molecular point group: c1
  Basis Set: CC-PVTZ
  Basis Set:

  -Total Gradient:
     Atom            X                  Y                   Z
    ------   -----------------  -----------------  -----------------
       1       -0.000025968051    -0.000009444223     0.000005752187
       2        0.000018281093     0.000113394208     0.000016237888
       3       -0.000142929853    -0.000073167368     0.000002651923
       4        0.000045271602    -0.000003252153    -0.000002249766
       5        0.000016110252    -0.000010800383    -0.000001154890
       6        0.000077721135    -0.000043353616     0.000008831199
       7       -0.000019225283    -0.000005723509    -0.000013236808
       8       -0.000006470957     0.000007488386     0.000042471599
       9       -0.000005411014     0.000006531203    -0.000016853262
      10        0.000036824507     0.000023094370    -0.000017127070
      11        0.000007876126    -0.000000041232     0.000000105355
      12       -0.000019572120    -0.000005470501    -0.000009286477
      13        0.000004007612    -0.000002626622    -0.000000835663
      14        0.000016731024    -0.000001202958    -0.000018817391
      15       -0.000003246073     0.000004574397     0.000003511178

  **** Optimization is complete! (in 4 steps) ****
    Final optimized geometry and variables:
    Molecular point group: c1

    Geometry (in Angstrom), charge = 0, multiplicity = 1:

    H           -2.964922798632     0.049516488927     0.833906102755
    C           -2.144864126667    -0.659638291488     0.832273440744
    O           -0.928873925562     0.022410607746     0.815490302878
    H           -2.258467468717    -1.308693798602    -0.029905412789
    H           -2.212883393978    -1.268541255241     1.726709888591
    C           -0.092837128815    -0.236355422662    -0.269888248482
    C            1.172745253342     0.584324747661    -0.125136096447
    H           -0.596681275288     0.016431970117    -1.202438118164
    H            0.153049047190    -1.297111653213    -0.312374696656
    C            2.146817720081     0.360327354598    -1.276649094830
    H            0.900054506513     1.632211816128    -0.064830604498
    H            1.643785084037     0.329365865578     0.817814610166
    H            1.703141354860     0.632627478970    -2.228598237298
    H            3.040999133633     0.958013103557    -1.148424381092
    H            2.452286941279    -0.678859715363    -1.339690059072

  Mulliken Charges: (a.u.)
   Center  Symbol    Alpha    Beta     Spin     Total
       1     H     0.45794  0.45794  0.00000  0.08411
       2     C     3.02870  3.02870  0.00000 -0.05740
       3     O     4.17677  4.17677  0.00000 -0.35354
       4     H     0.47324  0.47324  0.00000  0.05352
       5     H     0.45795  0.45795  0.00000  0.08410
       6     C     2.95530  2.95530  0.00000  0.08940
       7     C     3.08224  3.08224  0.00000 -0.16448
       8     H     0.47575  0.47575  0.00000  0.04849
       9     H     0.47574  0.47574  0.00000  0.04853
      10     C     3.15594  3.15594  0.00000 -0.31187
      11     H     0.45120  0.45120  0.00000  0.09761
      12     H     0.45120  0.45120  0.00000  0.09760
      13     H     0.45587  0.45587  0.00000  0.08826
      14     H     0.44630  0.44630  0.00000  0.10741
      15     H     0.45587  0.45587  0.00000  0.08826

   Total alpha = 21.00000, Total beta = 21.00000, Total charge = -0.00000

*** Psi4 exiting successfully. Buy a developer a beer!
