  ==> Input File <==

--------------------------------------------------------------------------
set {
	reference rhf
	basis cc-pvtz
}

set_num_threads( 4 )
memory 2 gb

molecule MOL {
0 1

O	 1.640162	 -0.274913	 -0.722971
C	 0.860843	 0.273204	 -0.013120
C	 -0.623368	 -0.117453	 -0.005652
C	 1.331591	 1.386349	 0.901935
C	 -0.892588	 -1.253841	 -1.002900
C	 -1.473463	 1.100646	 -0.372896
C	 -0.981836	 -0.579025	 1.418506
H	 -0.609333	 -0.970024	 -2.010649
H	 -1.950451	 -1.487353	 -1.013175
H	 -0.360848	 -2.161259	 -0.746463
H	 -1.232203	 1.461623	 -1.364827
H	 -2.524364	 0.834451	 -0.354500
H	 -1.312381	 1.914833	 0.318657
H	 -2.035706	 -0.826342	 1.468082
H	 -0.425078	 -1.458934	 1.716857
H	 -0.788494	 0.205047	 2.140903
H	 1.434738	 0.999299	 1.909564
H	 2.296501	 1.729970	 0.562314
H	 0.636850	 2.214058	 0.940199

	symmetry c1
}
set optking {
	frozen_dihedral = ("
		1 2 3 5
	")
}

ee = optimize('scf')
oeprop('DIPOLE', 'QUADRUPOLE', 'MULLIKEN_CHARGES')
f=open( 'psi4out.xyz', 'w' )
f.write( "19  " )
f.write( str(ee) + "\n" )
f.write( MOL.save_string_xyz() )
f.close()
--------------------------------------------------------------------------

    Molecular point group: c1
  Charge       = 0
  Multiplicity = 1
  Basis Set: CC-PVTZ
  Basis Set:
  @DF-RHF Final Energy:  -309.17282269022604
    Total Energy =                       -309.1728226902255869
    Molecular point group: c1
  Basis Set: CC-PVTZ
  Basis Set:
  Basis Set: CC-PVTZ
  Basis Set:
  @DF-RHF Final Energy:  -309.17195586346264
    Total Energy =                       -309.1719558634628129
  Basis Set: CC-PVTZ
  Basis Set:
  Basis Set: CC-PVTZ
  Basis Set:
  @DF-RHF Final Energy:  -309.17213629624734
    Total Energy =                       -309.1721362962472313
  Basis Set: CC-PVTZ
  Basis Set:
  Basis Set: CC-PVTZ
  Basis Set:
  @DF-RHF Final Energy:  -309.17383792544655
    Total Energy =                       -309.1738379254466054
  Basis Set: CC-PVTZ
  Basis Set:
  Basis Set: CC-PVTZ
  Basis Set:
  @DF-RHF Final Energy:  -309.17356719601042
    Total Energy =                       -309.1735671960101399
  Basis Set: CC-PVTZ
  Basis Set:
  Basis Set: CC-PVTZ
  Basis Set:
  @DF-RHF Final Energy:  -309.17383434215964
    Total Energy =                       -309.1738343421599211
  Basis Set: CC-PVTZ
  Basis Set:
  Basis Set: CC-PVTZ
  Basis Set:
  @DF-RHF Final Energy:  -309.17390778208022
    Total Energy =                       -309.1739077820800503
  Basis Set: CC-PVTZ
  Basis Set:
  Charge       = 0
  Multiplicity = 1
  Basis Set: CC-PVTZ
  Basis Set:

    Orbital Energies (a.u.)
    -----------------------

    Doubly Occupied:

       1A    -20.537568     2A    -11.317733     3A    -11.245809
       4A    -11.224733     5A    -11.222759     6A    -11.222349
       7A    -11.205738     8A     -1.398566     9A     -1.110743
      10A     -1.002549    11A     -0.948271    12A     -0.935416
      13A     -0.835952    14A     -0.705409    15A     -0.666785
      16A     -0.633533    17A     -0.620487    18A     -0.600969
      19A     -0.594682    20A     -0.566060    21A     -0.546190
      22A     -0.544221    23A     -0.523230    24A     -0.514229
      25A     -0.501360    26A     -0.472078    27A     -0.469804
      28A     -0.395152

  @DF-RHF Final Energy:  -309.17390852435506

   => Energetics <=

    Nuclear Repulsion Energy =            326.8046697980953468
    One-Electron Energy =               -1066.8324142296532955
    Two-Electron Energy =                 430.8538359072031199
    DFT Exchange-Correlation Energy =       0.0000000000000000
    Empirical Dispersion Energy =           0.0000000000000000
    PCM Polarization Energy =               0.0000000000000000
    EFP Energy =                            0.0000000000000000
    Total Energy =                       -309.1739085243548288
    Molecular point group: c1
  Basis Set: CC-PVTZ
  Basis Set:

  -Total Gradient:
     Atom            X                  Y                   Z
    ------   -----------------  -----------------  -----------------
       1        0.000218485918    -0.000973910574     0.000989562413
       2       -0.000400051481     0.001678738902    -0.001700963096
       3        0.000351623680    -0.001061104028     0.001285369047
       4        0.000114975257    -0.000088990260     0.000083194900
       5       -0.000174469189     0.000560057303    -0.000546191843
       6        0.000005937524     0.000052338547     0.000026579083
       7       -0.000038578242    -0.000145062941    -0.000018808711
       8       -0.000003002172     0.000047080084    -0.000016622489
       9        0.000021971576    -0.000010009301    -0.000007949352
      10       -0.000018350283    -0.000053010353    -0.000018611073
      11       -0.000025861299     0.000011458485    -0.000003285494
      12        0.000010709467    -0.000018000034     0.000012307392
      13        0.000016055493    -0.000011160898    -0.000034874059
      14       -0.000019778439    -0.000024307472     0.000016795225
      15       -0.000014350571     0.000000965561     0.000021796149
      16       -0.000010510401    -0.000010421532    -0.000083312691
      17        0.000006993179     0.000079433489     0.000048738259
      18       -0.000034357707    -0.000010332093    -0.000012921506
      19       -0.000007442310    -0.000023762886    -0.000040802153

  **** Optimization is complete! (in 8 steps) ****
    Final optimized geometry and variables:
    Molecular point group: c1

    Geometry (in Angstrom), charge = 0, multiplicity = 1:

    O            1.642535396697    -0.357619568360    -0.781769841269
    C            0.879266093587     0.198445550754    -0.060692094390
    C           -0.606596236586    -0.185916340312    -0.020920541518
    C            1.389280663031     1.276038323193     0.877306571031
    C           -0.863146712326    -1.324025127761    -1.010592767835
    C           -1.464130251846     1.028119805420    -0.418954033268
    C           -0.976108345660    -0.638435949285     1.400702157788
    H           -0.612875450891    -1.028290255531    -2.020340605593
    H           -1.910368627529    -1.603581062730    -0.984587007384
    H           -0.270391300492    -2.196284804586    -0.770612269176
    H           -1.175666975313     1.410314091369    -1.391818488785
    H           -2.505211901476     0.733633528860    -0.476282505305
    H           -1.394390095721     1.837049778862     0.296401021586
    H           -2.011507768724    -0.956743543096     1.426210411412
    H           -0.364569218297    -1.475790493997     1.717889245005
    H           -0.860745190700     0.158435689551     2.124844289600
    H            1.527196158566     0.848071158880     1.864064642640
    H            2.346063807897     1.621817849028     0.517257214670
    H            0.708520696127     2.109338714380     0.973485604887

  Mulliken Charges: (a.u.)
   Center  Symbol    Alpha    Beta     Spin     Total
       1     O     4.17381  4.17381  0.00000 -0.34761
       2     C     2.85464  2.85464  0.00000  0.29073
       3     C     3.00756  3.00756  0.00000 -0.01511
       4     C     3.16200  3.16200  0.00000 -0.32399
       5     C     3.14928  3.14928  0.00000 -0.29857
       6     C     3.16287  3.16287  0.00000 -0.32574
       7     C     3.16292  3.16292  0.00000 -0.32585
       8     H     0.44319  0.44319  0.00000  0.11361
       9     H     0.45225  0.45225  0.00000  0.09549
      10     H     0.44312  0.44312  0.00000  0.11377
      11     H     0.44231  0.44231  0.00000  0.11539
      12     H     0.44403  0.44403  0.00000  0.11194
      13     H     0.44588  0.44588  0.00000  0.10825
      14     H     0.44330  0.44330  0.00000  0.11340
      15     H     0.44220  0.44220  0.00000  0.11560
      16     H     0.44635  0.44635  0.00000  0.10729
      17     H     0.44584  0.44584  0.00000  0.10831
      18     H     0.43185  0.43185  0.00000  0.13629
      19     H     0.44660  0.44660  0.00000  0.10679

   Total alpha = 28.00000, Total beta = 28.00000, Total charge =  0.00000
