  ==> Input File <==

--------------------------------------------------------------------------
set {
	reference rhf
	basis 6-31G*
}

set_num_threads( 1 )
memory 2 gb

molecule MOL {
0 1

H	 1.136379	 0.211822	 1.465562
C	 1.135357	 0.094285	 0.374742
C	 0.065331	 0.871482	 -0.349150
O	 1.941633	 -0.601957	 -0.151457
C	 0.065002	 0.599764	 -1.860325
H	 0.204433	 1.925073	 -0.135822
H	 -0.892846	 0.567878	 0.070233
C	 1.316908	 1.119457	 -2.568190
H	 -0.814956	 1.064639	 -2.293427
H	 -0.039524	 -0.468920	 -2.035334
H	 1.421391	 2.191786	 -2.435071
H	 1.269531	 0.918533	 -3.633414
H	 2.219443	 0.652827	 -2.184683

	symmetry c1
}
set optking {
	frozen_dihedral = ("
		6 3 5 9
	")
}

ee = energy('scf')
oeprop('DIPOLE', 'QUADRUPOLE', 'MULLIKEN_CHARGES')
f=open( 'psi4out.xyz', 'w' )
f.write( "13  " )
f.write( str(ee) + "\n" )
f.write( MOL.save_string_xyz() )
f.close()
--------------------------------------------------------------------------

    Molecular point group: c1

    Geometry (in Angstrom), charge = 0, multiplicity = 1:

       Center              X                  Y                   Z               Mass
    ------------   -----------------  -----------------  -----------------  -----------------
           H          0.212304336164    -0.200494694870     2.388811616119     1.007825032070
           C          0.211282336164    -0.318031694870     1.297991616119    12.000000000000
           C         -0.858743663836     0.459165305130     0.574099616119    12.000000000000
           O          1.017558336164    -1.014273694870     0.771792616119    15.994914619560
           C         -0.859072663836     0.187447305130    -0.937075383881    12.000000000000
           H         -0.719641663836     1.512756305130     0.787427616119     1.007825032070
           H         -1.816920663836     0.155561305130     0.993482616119     1.007825032070
           C          0.392833336164     0.707140305130    -1.644940383881    12.000000000000
           H         -1.739030663836     0.652322305130    -1.370177383881     1.007825032070
           H         -0.963598663836    -0.881236694870    -1.112084383881     1.007825032070
           H          0.497316336164     1.779469305130    -1.511821383881     1.007825032070
           H          0.345456336164     0.506216305130    -2.710164383881     1.007825032070
           H          1.295368336164     0.240510305130    -1.261433383881     1.007825032070

  Charge       = 0
  Multiplicity = 1
  Basis Set: 6-31G*
  Basis Set:

    Orbital Energies (a.u.)
    -----------------------

    Doubly Occupied:

       1A    -20.565725     2A    -11.330023     3A    -11.237942
       4A    -11.224233     5A    -11.204255     6A     -1.407053
       7A     -1.075636     8A     -0.970086     9A     -0.846278
      10A     -0.767226    11A     -0.686638    12A     -0.643211
      13A     -0.621548    14A     -0.574362    15A     -0.566099
      16A     -0.521554    17A     -0.491070    18A     -0.483133
      19A     -0.480552    20A     -0.410377

  @DF-RHF Final Energy:  -230.98446966542542

   => Energetics <=

    Nuclear Repulsion Energy =            177.7885236821809372
    One-Electron Energy =                -665.3320294784170983
    Two-Electron Energy =                 256.5590361308109095
    DFT Exchange-Correlation Energy =       0.0000000000000000
    Empirical Dispersion Energy =           0.0000000000000000
    PCM Polarization Energy =               0.0000000000000000
    EFP Energy =                            0.0000000000000000
    Total Energy =                       -230.9844696654252516

  Mulliken Charges: (a.u.)
   Center  Symbol    Alpha    Beta     Spin     Total
       1     H     0.42735  0.42735  0.00000  0.14530
       2     C     2.83612  2.83612  0.00000  0.32775
       3     C     3.21363  3.21363  0.00000 -0.42726
       4     O     4.23664  4.23664  0.00000 -0.47329
       5     C     3.15135  3.15135  0.00000 -0.30270
       6     H     0.40547  0.40547  0.00000  0.18905
       7     H     0.40605  0.40605  0.00000  0.18790
       8     C     3.24728  3.24728  0.00000 -0.49456
       9     H     0.41908  0.41908  0.00000  0.16185
      10     H     0.41161  0.41161  0.00000  0.17678
      11     H     0.42699  0.42699  0.00000  0.14602
      12     H     0.41940  0.41940  0.00000  0.16119
      13     H     0.39902  0.39902  0.00000  0.20196

   Total alpha = 20.00000, Total beta = 20.00000, Total charge =  0.00000
