  ==> Input File <==

--------------------------------------------------------------------------
set {
	reference rhf
	basis 6-31G*
}

set_num_threads( 1 )
memory 2 gb

molecule MOL {
0 1

H	 -4.236494	 0.538104	 0.039757
O	 -3.517110	 -0.026191	 -0.205115
C	 -2.306886	 0.532354	 0.237577
C	 -1.177863	 -0.397191	 -0.171080
H	 -2.156308	 1.517575	 -0.201710
H	 -2.315015	 0.655684	 1.319734
C	 0.198102	 0.111031	 0.262842
H	 -1.208843	 -0.518759	 -1.250427
H	 -1.368741	 -1.376554	 0.258909
C	 1.331804	 -0.827780	 -0.158768
H	 0.361943	 1.100838	 -0.156218
H	 0.217265	 0.229072	 1.345532
C	 2.723619	 -0.410569	 0.329459
H	 1.342964	 -0.912588	 -1.244120
H	 1.116806	 -1.824343	 0.220779
C	 3.877625	 -0.891749	 -0.552056
H	 2.866573	 -0.801110	 1.334014
H	 2.763809	 0.673302	 0.417632
H	 3.855419	 -1.972027	 -0.668445
H	 3.843369	 -0.451499	 -1.543108
H	 4.834440	 -0.627455	 -0.112274

	symmetry c1
}
set optking {
	frozen_dihedral = ("
		2 3 4 8,
		8 4 7 10,
		4 7 10 14,
		1 2 3 5
	")
}

ee = energy('scf')
oeprop('DIPOLE', 'QUADRUPOLE', 'MULLIKEN_CHARGES')
f=open( 'psi4out.xyz', 'w' )
f.write( "21  " )
f.write( str(ee) + "\n" )
f.write( MOL.save_string_xyz() )
f.close()
--------------------------------------------------------------------------

    Molecular point group: c1

    Geometry (in Angstrom), charge = 0, multiplicity = 1:

       Center              X                  Y                   Z               Mass
    ------------   -----------------  -----------------  -----------------  -----------------
           H         -4.329494116521     0.800825412660     0.080371594932     1.007825032070
           O         -3.610110116521     0.236530412660    -0.164500405068    15.994914619560
           C         -2.399886116521     0.795075412660     0.278191594932    12.000000000000
           C         -1.270863116521    -0.134469587340    -0.130465405068    12.000000000000
           H         -2.249308116521     1.780296412660    -0.161095405068     1.007825032070
           H         -2.408015116521     0.918405412660     1.360348594932     1.007825032070
           C          0.105101883479     0.373752412660     0.303456594932    12.000000000000
           H         -1.301843116521    -0.256037587340    -1.209812405068     1.007825032070
           H         -1.461741116521    -1.113832587340     0.299523594932     1.007825032070
           C          1.238803883479    -0.565058587340    -0.118153405068    12.000000000000
           H          0.268942883479     1.363559412660    -0.115603405068     1.007825032070
           H          0.124264883479     0.491793412660     1.386146594932     1.007825032070
           C          2.630618883479    -0.147847587340     0.370073594932    12.000000000000
           H          1.249963883479    -0.649866587340    -1.203505405068     1.007825032070
           H          1.023805883479    -1.561621587340     0.261393594932     1.007825032070
           C          3.784624883479    -0.629027587340    -0.511441405068    12.000000000000
           H          2.773572883479    -0.538388587340     1.374628594932     1.007825032070
           H          2.670808883479     0.936023412660     0.458246594932     1.007825032070
           H          3.762418883479    -1.709305587340    -0.627830405068     1.007825032070
           H          3.750368883479    -0.188777587340    -1.502493405068     1.007825032070
           H          4.741439883479    -0.364733587340    -0.071659405068     1.007825032070

  Charge       = 0
  Multiplicity = 1
  Basis Set: 6-31G*
  Basis Set:

    Orbital Energies (a.u.)
    -----------------------

    Doubly Occupied:

       1A    -20.551923     2A    -11.267181     3A    -11.216695
       4A    -11.214439     5A    -11.212949     6A    -11.210716
       7A    -11.208604     8A     -1.358746     9A     -1.085361
      10A     -1.034199    11A     -0.956910    12A     -0.868606
      13A     -0.802615    14A     -0.789459    15A     -0.692046
      16A     -0.662998    17A     -0.629748    18A     -0.597513
      19A     -0.583506    20A     -0.562063    21A     -0.545754
      22A     -0.522651    23A     -0.507538    24A     -0.484679
      25A     -0.478233    26A     -0.460331    27A     -0.457793
      28A     -0.443816    29A     -0.434052

  @DF-RHF Final Energy:  -310.21164560736918

   => Energetics <=

    Nuclear Repulsion Energy =            308.6524039206852876
    One-Electron Energy =               -1032.0459939998747814
    Two-Electron Energy =                 413.1819444718195768
    DFT Exchange-Correlation Energy =       0.0000000000000000
    Empirical Dispersion Energy =           0.0000000000000000
    PCM Polarization Energy =               0.0000000000000000
    EFP Energy =                            0.0000000000000000
    Total Energy =                       -310.2116456073699169

  Mulliken Charges: (a.u.)
   Center  Symbol    Alpha    Beta     Spin     Total
       1     H     0.28116  0.28116  0.00000  0.43768
       2     O     4.37175  4.37175  0.00000 -0.74350
       3     C     2.98976  2.98976  0.00000  0.02048
       4     C     3.15976  3.15976  0.00000 -0.31951
       5     H     0.43291  0.43291  0.00000  0.13418
       6     H     0.43280  0.43280  0.00000  0.13440
       7     C     3.16117  3.16117  0.00000 -0.32233
       8     H     0.41462  0.41462  0.00000  0.17076
       9     H     0.41466  0.41466  0.00000  0.17067
      10     C     3.15154  3.15154  0.00000 -0.30308
      11     H     0.42297  0.42297  0.00000  0.15406
      12     H     0.42350  0.42350  0.00000  0.15300
      13     C     3.15246  3.15246  0.00000 -0.30492
      14     H     0.42212  0.42212  0.00000  0.15576
      15     H     0.42152  0.42152  0.00000  0.15695
      16     C     3.23984  3.23984  0.00000 -0.47968
      17     H     0.42207  0.42207  0.00000  0.15586
      18     H     0.42293  0.42293  0.00000  0.15414
      19     H     0.42144  0.42144  0.00000  0.15711
      20     H     0.42108  0.42108  0.00000  0.15784
      21     H     0.41993  0.41993  0.00000  0.16014

   Total alpha = 29.00000, Total beta = 29.00000, Total charge = -0.00000
