  ==> Input File <==

--------------------------------------------------------------------------
set {
	reference rhf
	basis 6-31G*
}

set_num_threads( 4 )
memory 2 gb

molecule MOL {
0 1

O	 1.612303	 -0.122546	 0.824537
C	 0.861134	 0.272526	 -0.014869
C	 -0.623889	 -0.118271	 -0.003699
C	 1.377329	 1.174979	 -1.121724
C	 -0.895332	 -1.256461	 -1.002431
C	 -1.473649	 1.103340	 -0.370799
C	 -0.983900	 -0.581483	 1.422328
H	 -0.615301	 -0.972064	 -2.012700
H	 -1.954261	 -1.493213	 -1.010207
H	 -0.360539	 -2.164946	 -0.747760
H	 -1.227476	 1.468527	 -1.361691
H	 -2.526716	 0.838935	 -0.358521
H	 -1.314819	 1.915855	 0.325860
H	 -2.039679	 -0.828001	 1.472951
H	 -0.427637	 -1.464071	 1.720694
H	 -0.789023	 0.202493	 2.147048
H	 1.115642	 2.205368	 -0.899735
H	 2.454909	 1.094611	 -1.160194
H	 0.956563	 0.933391	 -2.090131

	symmetry c1
}
set optking {
	frozen_dihedral = ("
		1 2 3 5
	")
}

ee = optimize('scf')
oeprop('DIPOLE', 'QUADRUPOLE', 'MULLIKEN_CHARGES')
f=open( 'psi4out.xyz', 'w' )
f.write( "19  " )
f.write( str(ee) + "\n" )
f.write( MOL.save_string_xyz() )
f.close()
--------------------------------------------------------------------------

    Molecular point group: c1
  Charge       = 0
  Multiplicity = 1
  Basis Set: 6-31G*
  Basis Set:
  @DF-RHF Final Energy:  -309.06199408070648
    Total Energy =                       -309.0619940807062562
    Molecular point group: c1
  Basis Set: 6-31G*
  Basis Set:
  Basis Set: 6-31G*
  Basis Set:
  @DF-RHF Final Energy:  -309.06182135861332
    Total Energy =                       -309.0618213586133152
  Basis Set: 6-31G*
  Basis Set:
  Basis Set: 6-31G*
  Basis Set:
  @DF-RHF Final Energy:  -309.06099429916412
    Total Energy =                       -309.0609942991638945
  Basis Set: 6-31G*
  Basis Set:
  Basis Set: 6-31G*
  Basis Set:
  @DF-RHF Final Energy:  -309.06303390692807
    Total Energy =                       -309.0630339069279557
  Basis Set: 6-31G*
  Basis Set:
  Basis Set: 6-31G*
  Basis Set:
  @DF-RHF Final Energy:  -309.06281727817674
    Total Energy =                       -309.0628172781769649
  Basis Set: 6-31G*
  Basis Set:
  Basis Set: 6-31G*
  Basis Set:
  @DF-RHF Final Energy:  -309.06309394260012
    Total Energy =                       -309.0630939426002897
  Basis Set: 6-31G*
  Basis Set:
  Basis Set: 6-31G*
  Basis Set:
  @DF-RHF Final Energy:  -309.06309839703385
    Total Energy =                       -309.0630983970339116
  Basis Set: 6-31G*
  Basis Set:
  Charge       = 0
  Multiplicity = 1
  Basis Set: 6-31G*
  Basis Set:

    Orbital Energies (a.u.)
    -----------------------

    Doubly Occupied:

       1A    -20.548250     2A    -11.322835     3A    -11.246427
       4A    -11.226880     5A    -11.224456     6A    -11.223930
       7A    -11.208591     8A     -1.394606     9A     -1.109616
      10A     -1.002144    11A     -0.946669    12A     -0.934951
      13A     -0.834998    14A     -0.703625    15A     -0.664492
      16A     -0.631679    17A     -0.620219    18A     -0.596422
      19A     -0.591330    20A     -0.565665    21A     -0.546265
      22A     -0.544955    23A     -0.524412    24A     -0.512685
      25A     -0.499048    26A     -0.471727    27A     -0.465399
      28A     -0.392463

  @DF-RHF Final Energy:  -309.06309874363438

   => Energetics <=

    Nuclear Repulsion Energy =            326.3065842782503410
    One-Electron Energy =               -1065.6298877670997172
    Two-Electron Energy =                 430.2602047452149918
    DFT Exchange-Correlation Energy =       0.0000000000000000
    Empirical Dispersion Energy =           0.0000000000000000
    PCM Polarization Energy =               0.0000000000000000
    EFP Energy =                            0.0000000000000000
    Total Energy =                       -309.0630987436344412
    Molecular point group: c1
  Basis Set: 6-31G*
  Basis Set:

  -Total Gradient:
     Atom            X                  Y                   Z
    ------   -----------------  -----------------  -----------------
       1        0.000069914687    -0.000322941779    -0.000211951686
       2       -0.000122240910     0.000408109872     0.000395886758
       3       -0.000031111955     0.000123938034    -0.000369553175
       4       -0.000020398710    -0.000060094558    -0.000063043877
       5        0.000055092049    -0.000198706277     0.000208066227
       6        0.000009821015     0.000008510889     0.000009243796
       7        0.000007634227     0.000009995341    -0.000003944976
       8        0.000004958880     0.000005286483    -0.000000306657
       9       -0.000000874858    -0.000002728148    -0.000001127332
      10       -0.000002940812    -0.000001416687    -0.000001851693
      11       -0.000001195940     0.000000008606    -0.000003083317
      12        0.000007669434    -0.000001631774     0.000002201396
      13        0.000000497065     0.000002266533     0.000001700710
      14        0.000002184037    -0.000002608275    -0.000003380926
      15        0.000005951391    -0.000007700457     0.000004992716
      16        0.000001237897     0.000001001169    -0.000000541984
      17       -0.000002113059     0.000007599170     0.000028217097
      18        0.000002091034     0.000010604462     0.000008032760
      19        0.000013824530     0.000020507398     0.000000444160

  **** Optimization is complete! (in 8 steps) ****
    Final optimized geometry and variables:
    Molecular point group: c1

    Geometry (in Angstrom), charge = 0, multiplicity = 1:

    O            1.631699071416    -0.222046327417     0.855191380488
    C            0.882176373057     0.194475189260     0.024610624377
    C           -0.612455257149    -0.158045351920     0.054541572054
    C            1.411088431163     1.068844640239    -1.098013157529
    C           -0.842945491923    -1.291523916517    -0.965398623736
    C           -1.478907092089     1.057527190505    -0.314718666416
    C           -0.989010185845    -0.652103251782     1.456182278148
    H           -0.605513866163    -0.985006346674    -1.979202636825
    H           -1.885235881345    -1.593993595066    -0.950676623164
    H           -0.238459209478    -2.159512863484    -0.723924709118
    H           -1.293839442004     1.405344745391    -1.325065353698
    H           -2.529040276293     0.792491274539    -0.249095974090
    H           -1.307636507367     1.887836948270     0.364472646580
    H           -2.039060892532    -0.927573781063     1.482133696245
    H           -0.399737688157    -1.513595945301     1.740032122679
    H           -0.823477196596     0.118991789490     2.200827061636
    H            1.145759571801     2.105054233832    -0.910375036537
    H            2.488729602175     0.986535824639    -1.123276876843
    H            1.000027896751     0.797790845817    -2.063328855278

  Mulliken Charges: (a.u.)
   Center  Symbol    Alpha    Beta     Spin     Total
       1     O     4.26447  4.26447  0.00000 -0.52893
       2     C     2.72506  2.72506  0.00000  0.54989
       3     C     3.06879  3.06879  0.00000 -0.13757
       4     C     3.28950  3.28950  0.00000 -0.57900
       5     C     3.24108  3.24108  0.00000 -0.48217
       6     C     3.24150  3.24150  0.00000 -0.48299
       7     C     3.22732  3.22732  0.00000 -0.45464
       8     H     0.41870  0.41870  0.00000  0.16260
       9     H     0.41307  0.41307  0.00000  0.17387
      10     H     0.40888  0.40888  0.00000  0.18224
      11     H     0.41723  0.41723  0.00000  0.16555
      12     H     0.41355  0.41355  0.00000  0.17290
      13     H     0.41561  0.41561  0.00000  0.16878
      14     H     0.42340  0.42340  0.00000  0.15320
      15     H     0.40550  0.40550  0.00000  0.18900
      16     H     0.41608  0.41608  0.00000  0.16783
      17     H     0.40424  0.40424  0.00000  0.19151
      18     H     0.39589  0.39589  0.00000  0.20823
      19     H     0.41014  0.41014  0.00000  0.17971

   Total alpha = 28.00000, Total beta = 28.00000, Total charge = -0.00000
