  ==> Input File <==

--------------------------------------------------------------------------
set {
	reference rhf
	basis 6-31G*
}

set_num_threads( 4 )
memory 2 gb

molecule MOL {
0 1

O	 -2.324811	 1.361668	 -0.277141
C	 -2.105949	 0.203097	 -0.092081
C	 -0.889235	 -0.467034	 -0.705952
C	 -3.002726	 -0.644460	 0.782455
C	 -1.145444	 -0.825066	 -2.178810
H	 -0.693150	 -1.372637	 -0.142269
H	 -0.017618	 0.176382	 -0.626415
C	 0.050832	 -1.532721	 -2.819717
H	 -2.029388	 -1.451023	 -2.225781
H	 -1.370397	 0.079376	 -2.741952
C	 -0.124667	 -1.850408	 -4.309122
H	 0.254130	 -2.454324	 -2.277458
H	 0.933327	 -0.907587	 -2.700309
C	 -1.217788	 -2.875990	 -4.614515
H	 0.821597	 -2.223411	 -4.692718
H	 -0.329362	 -0.929498	 -4.851443
H	 -1.043546	 -3.803861	 -4.076537
H	 -1.240616	 -3.108916	 -5.674527
H	 -2.203234	 -2.514821	 -4.340210
H	 -3.496582	 -1.399307	 0.176174
H	 -3.747939	 -0.023774	 1.260148
H	 -2.421318	 -1.168775	 1.535358

	symmetry c1
}
set optking {
	frozen_dihedral = ("
		6 3 2 1
	")
}

ee = optimize('scf')
oeprop('DIPOLE', 'QUADRUPOLE', 'MULLIKEN_CHARGES')
f=open( 'psi4out.xyz', 'w' )
f.write( "22  " )
f.write( str(ee) + "\n" )
f.write( MOL.save_string_xyz() )
f.close()
--------------------------------------------------------------------------

    Molecular point group: c1
  Charge       = 0
  Multiplicity = 1
  Basis Set: 6-31G*
  Basis Set:
  @DF-RHF Final Energy:  -348.09708432227467
    Total Energy =                       -348.0970843222747817
    Molecular point group: c1
  Basis Set: 6-31G*
  Basis Set:
  Basis Set: 6-31G*
  Basis Set:
  @DF-RHF Final Energy:  -348.09652411870564
    Total Energy =                       -348.0965241187059860
  Basis Set: 6-31G*
  Basis Set:
  Basis Set: 6-31G*
  Basis Set:
  @DF-RHF Final Energy:  -348.09774863783628
    Total Energy =                       -348.0977486378361050
  Basis Set: 6-31G*
  Basis Set:
  Basis Set: 6-31G*
  Basis Set:
  @DF-RHF Final Energy:  -348.09820349560073
    Total Energy =                       -348.0982034956005009
  Basis Set: 6-31G*
  Basis Set:
  @DF-RHF Final Energy:  -348.09792791125204
    Total Energy =                       -348.0979279112520999
  @DF-RHF Final Energy:  -348.09822102168181
    Total Energy =                       -348.0982210216815815
  Basis Set: 6-31G*
  Basis Set:
  @DF-RHF Final Energy:  -348.09826755077290
    Total Energy =                       -348.0982675507735280
  Basis Set: 6-31G*
  Basis Set:
  Basis Set: 6-31G*
  Basis Set:
  @DF-RHF Final Energy:  -348.09818934612673
    Total Energy =                       -348.0981893461267873
  Basis Set: 6-31G*
  Basis Set:
  Basis Set: 6-31G*
  Basis Set:
  @DF-RHF Final Energy:  -348.09827794705336
    Total Energy =                       -348.0982779470529636
  Basis Set: 6-31G*
  Basis Set:
  Charge       = 0
  Multiplicity = 1
  Basis Set: 6-31G*
  Basis Set:

    Orbital Energies (a.u.)
    -----------------------

    Doubly Occupied:

       1A    -20.547324     2A    -11.324500     3A    -11.229467
       4A    -11.228867     5A    -11.228267     6A    -11.222348
       7A    -11.220573     8A    -11.212917     9A     -1.393124
      10A     -1.095613    11A     -1.044459    12A     -0.999847
      13A     -0.938124    14A     -0.858069    15A     -0.786492
      16A     -0.733024    17A     -0.660553    18A     -0.647295
      19A     -0.626853    20A     -0.616991    21A     -0.598945
      22A     -0.586138    23A     -0.554895    24A     -0.548678
      25A     -0.532808    26A     -0.520639    27A     -0.500287
      28A     -0.485954    29A     -0.469182    30A     -0.465134
      31A     -0.460839    32A     -0.396175

  @DF-RHF Final Energy:  -348.09827815087550

   => Energetics <=

    Nuclear Repulsion Energy =            372.9517169248510413
    One-Electron Energy =               -1210.6312231647746103
    Two-Electron Energy =                 489.5812280890478405
    DFT Exchange-Correlation Energy =       0.0000000000000000
    Empirical Dispersion Energy =           0.0000000000000000
    PCM Polarization Energy =               0.0000000000000000
    EFP Energy =                            0.0000000000000000
    Total Energy =                       -348.0982781508756716
    Molecular point group: c1
  Basis Set: 6-31G*
  Basis Set:

  -Total Gradient:
     Atom            X                  Y                   Z
    ------   -----------------  -----------------  -----------------
       1       -0.000034866310    -0.000008627867    -0.000067727927
       2        0.000028320414     0.000006942582     0.000088640008
       3        0.000034939415     0.000033738400     0.000025749189
       4        0.000002955028     0.000014797794    -0.000004942605
       5        0.000008411013     0.000017090208     0.000003255937
       6       -0.000047964965    -0.000038640823    -0.000036990284
       7        0.000001214497    -0.000002430672    -0.000001650431
       8        0.000002853555    -0.000024999834     0.000002138268
       9        0.000009065768     0.000003699446     0.000002732193
      10       -0.000005078461     0.000002439641    -0.000001887869
      11       -0.000013323658     0.000019589644    -0.000006268395
      12        0.000009197813    -0.000000238264     0.000009644775
      13       -0.000009681216     0.000001444674    -0.000000938872
      14        0.000007882092    -0.000009446226    -0.000000492239
      15       -0.000009836941    -0.000004570422    -0.000003455388
      16        0.000004956631     0.000005804281    -0.000003511256
      17       -0.000004655149     0.000000740347     0.000003666561
      18        0.000001750747    -0.000004202222     0.000000889705
      19        0.000006348138     0.000001331428    -0.000008969668
      20        0.000003624826    -0.000003982511    -0.000000166992
      21        0.000001027129    -0.000003643561    -0.000000171395
      22        0.000002859637    -0.000006836046     0.000000456690

  **** Optimization is complete! (in 10 steps) ****
    Final optimized geometry and variables:
    Molecular point group: c1

    Geometry (in Angstrom), charge = 0, multiplicity = 1:

    O           -0.933326842712     2.195015910915     1.482976969312
    C           -0.727847286501     1.040512737601     1.704695157040
    C            0.467592365653     0.331419923196     1.092183526765
    C           -1.652449077964     0.222564967084     2.578455066384
    C            0.201701845041    -0.018801481856    -0.380621970011
    H            0.704563062504    -0.569948404920     1.650319183627
    H            1.317318226567     1.002243670264     1.158094066997
    C            1.399394358823    -0.709427311409    -1.037391743581
    H           -0.676883604044    -0.655503401330    -0.446080549539
    H           -0.034566449211     0.896452029922    -0.915111487369
    C            1.224609125187    -0.995885763678    -2.533178561662
    H            1.610858204115    -1.641407907527    -0.515472132394
    H            2.277023761526    -0.080530209440    -0.905671868386
    C            0.134013270263    -2.016969468744    -2.862221622640
    H            2.171638364867    -1.358837034627    -2.924390813546
    H            1.017980805301    -0.064150297072    -3.055135707836
    H            0.306722036100    -2.954782938081    -2.340808208474
    H            0.116083735141    -2.230552233401    -3.926324920125
    H           -0.853330736611    -1.661247110046    -2.586902224174
    H           -1.960743302146    -0.684770549137     2.066963037237
    H           -2.521776099210     0.806690912664     2.846399071856
    H           -1.128937189950    -0.081115423870     3.481175831425

  Mulliken Charges: (a.u.)
   Center  Symbol    Alpha    Beta     Spin     Total
       1     O     4.26249  4.26249  0.00000 -0.52498
       2     C     2.73702  2.73702  0.00000  0.52596
       3     C     3.19982  3.19982  0.00000 -0.39965
       4     C     3.28958  3.28958  0.00000 -0.57916
       5     C     3.16334  3.16334  0.00000 -0.32668
       6     H     0.41689  0.41689  0.00000  0.16622
       7     H     0.40137  0.40137  0.00000  0.19727
       8     C     3.15283  3.15283  0.00000 -0.30567
       9     H     0.41887  0.41887  0.00000  0.16225
      10     H     0.40612  0.40612  0.00000  0.18776
      11     C     3.15340  3.15340  0.00000 -0.30680
      12     H     0.42379  0.42379  0.00000  0.15241
      13     H     0.41898  0.41898  0.00000  0.16203
      14     C     3.24203  3.24203  0.00000 -0.48407
      15     H     0.41945  0.41945  0.00000  0.16111
      16     H     0.42045  0.42045  0.00000  0.15911
      17     H     0.42242  0.42242  0.00000  0.15515
      18     H     0.41748  0.41748  0.00000  0.16504
      19     H     0.41990  0.41990  0.00000  0.16020
      20     H     0.40974  0.40974  0.00000  0.18052
      21     H     0.39711  0.39711  0.00000  0.20578
      22     H     0.40690  0.40690  0.00000  0.18620

   Total alpha = 32.00000, Total beta = 32.00000, Total charge = -0.00000
