                              Psi4 1.0.54 Driver

  ==> Input File <==

--------------------------------------------------------------------------
set {
	reference rhf
	basis cc-pvtz
}

set_num_threads( 4 )
memory 2 gb

molecule MOL {
0 1

H	 -3.013283	 0.549212	 1.133251
O	 -2.208268	 0.056330	 1.185563
C	 -1.605397	 0.107680	 0.001145
C	 -0.310616	 -0.658853	 0.000791
O	 -2.068368	 0.693823	 -0.915405
C	 0.926581	 0.227233	 0.000178
H	 -0.327628	 -1.313681	 -0.864448
H	 -0.327041	 -1.313334	 0.866298
C	 2.220156	 -0.582071	 -0.000088
H	 0.899945	 0.878221	 -0.866390
H	 0.900542	 0.878581	 0.866486
C	 3.466689	 0.296012	 -0.000457
H	 2.239073	 -1.234095	 -0.869382
H	 2.239505	 -1.233985	 0.869270
H	 3.493549	 0.935857	 -0.875887
H	 4.368821	 -0.304526	 -0.001199
H	 3.494559	 0.935166	 0.875458

	symmetry c1
}
set optking {
	frozen_dihedral = ("
		2 3 4 7
	")
}

ee,wfn = optimize('scf', return_wfn=True)
oeprop( wfn, 'DIPOLE', 'QUADRUPOLE', 'MULLIKEN_CHARGES')
f=open( 'psi4out.xyz', 'w' )
f.write( "17  " )
f.write( str(ee) + "\n" )
f.write( MOL.save_string_xyz() )
f.close()
--------------------------------------------------------------------------

    Molecular point group: c1
  Charge       = 0
  Multiplicity = 1
  Basis Set: CC-PVTZ
  Basis Set:
  @DF-RHF Final Energy:  -345.04650854938353
    Total Energy =                       -345.0465085493837023
    Molecular point group: c1
  Basis Set: CC-PVTZ
  Basis Set:
  Basis Set: CC-PVTZ
  Basis Set:
  @DF-RHF Final Energy:  -345.04714421911177
    Total Energy =                       -345.0471442191119422
  Basis Set: CC-PVTZ
  Basis Set:
  Basis Set: CC-PVTZ
  Basis Set:
  @DF-RHF Final Energy:  -345.04637130506171
    Total Energy =                       -345.0463713050614842
  Basis Set: CC-PVTZ
  Basis Set:
  Basis Set: CC-PVTZ
  Basis Set:
  @DF-RHF Final Energy:  -345.04729393077872
    Total Energy =                       -345.0472939307784372
  Basis Set: CC-PVTZ
  Basis Set:
  Basis Set: CC-PVTZ
  Basis Set:
  @DF-RHF Final Energy:  -345.04730676756890
    Total Energy =                       -345.0473067675686707
  Basis Set: CC-PVTZ
  Basis Set:
  Charge       = 0
  Multiplicity = 1
  Basis Set: CC-PVTZ
  Basis Set:

    Orbital Energies (a.u.)
    -----------------------

    Doubly Occupied:

       1A    -20.606120     2A    -20.537569     3A    -11.372867
       4A    -11.237553     5A    -11.229400     6A    -11.223741
       7A    -11.213260     8A     -1.477794     9A     -1.367891
      10A     -1.095303    11A     -1.020311    12A     -0.913083
      13A     -0.825950    14A     -0.802077    15A     -0.705944
      16A     -0.686515    17A     -0.656260    18A     -0.640291
      19A     -0.591937    20A     -0.585000    21A     -0.582077
      22A     -0.539141    23A     -0.516081    24A     -0.493050
      25A     -0.483932    26A     -0.479021    27A     -0.471356
      28A     -0.440717

  @DF-RHF Final Energy:  -345.04730747590349

   => Energetics <=

    Nuclear Repulsion Energy =            305.0975440044231846
    One-Electron Energy =               -1074.7012197352469229
    Two-Electron Energy =                 424.5563682549203008
    DFT Exchange-Correlation Energy =       0.0000000000000000
    Empirical Dispersion Energy =           0.0000000000000000
    PCM Polarization Energy =               0.0000000000000000
    EFP Energy =                            0.0000000000000000
    Total Energy =                       -345.0473074759034375
    Molecular point group: c1
  Basis Set: CC-PVTZ
  Basis Set:

  -Total Gradient:
     Atom            X                  Y                   Z
    ------   -----------------  -----------------  -----------------
       1       -0.000028647852    -0.000004294063    -0.000002357169
       2        0.000019699171    -0.000129577756    -0.000113929347
       3       -0.000009425825     0.000133036519     0.000220079305
       4        0.000075690146     0.000196600588    -0.000166818938
       5        0.000038435420     0.000007184188    -0.000055655533
       6       -0.000009777154    -0.000017276521     0.000039128135
       7       -0.000092566552    -0.000149069435     0.000094140640
       8        0.000011153436    -0.000038925791     0.000018158877
       9       -0.000002819350    -0.000005250092    -0.000040990943
      10        0.000001319619    -0.000005292746    -0.000007280524
      11       -0.000001339128     0.000013005494     0.000001917601
      12       -0.000005165685    -0.000000625887     0.000021867455
      13        0.000001502355    -0.000009145292    -0.000005874989
      14       -0.000003395388     0.000005949002    -0.000002670511
      15       -0.000002831818    -0.000001369096    -0.000007095284
      16        0.000004658973    -0.000002753776     0.000005873271
      17        0.000003509631     0.000007804667     0.000001507952

  **** Optimization is complete! (in 6 steps) ****
    Final optimized geometry and variables:
    Molecular point group: c1

    Geometry (in Angstrom), charge = 0, multiplicity = 1:

    H           -3.062411441125     0.663128222052     0.939158671550
    O           -2.316375199373     0.089212765727     1.032245767521
    C           -1.607309203544     0.139635403427    -0.089838575956
    C           -0.372666743484    -0.721200181113    -0.049461097068
    O           -1.928685006538     0.813522825102    -1.007947078142
    C            0.896882221334     0.134824417566    -0.002702306784
    H           -0.376343311424    -1.321821351562    -0.950658455229
    H           -0.418839322618    -1.383170482184     0.803850965634
    C            2.167350449994    -0.709434472605    -0.008774907685
    H            0.897219179180     0.807981217738    -0.852084232420
    H            0.879175841887     0.754676201571     0.889346669540
    C            3.437025016183     0.133425288563     0.040551768734
    H            2.179973256710    -1.329903249268    -0.900418453404
    H            2.152634427969    -1.390068972206     0.837819848505
    H            3.496151455753     0.801172808190    -0.812080492612
    H            4.321671662936    -0.492380714473     0.033226451517
    H            3.468827168178     0.741021003269     0.938632799052

  Mulliken Charges: (a.u.)
   Center  Symbol    Alpha    Beta     Spin     Total
       1     H     0.38038  0.38038  0.00000  0.23925
       2     O     4.16005  4.16005  0.00000 -0.32009
       3     C     2.80688  2.80688  0.00000  0.38623
       4     C     3.08819  3.08819  0.00000 -0.17637
       5     O     4.19991  4.19991  0.00000 -0.39982
       6     C     3.09689  3.09689  0.00000 -0.19378
       7     H     0.44088  0.44088  0.00000  0.11824
       8     H     0.43979  0.43979  0.00000  0.12042
       9     C     3.08742  3.08742  0.00000 -0.17484
      10     H     0.44008  0.44008  0.00000  0.11984
      11     H     0.44969  0.44969  0.00000  0.10063
      12     C     3.14926  3.14926  0.00000 -0.29853
      13     H     0.45253  0.45253  0.00000  0.09493
      14     H     0.45342  0.45342  0.00000  0.09315
      15     H     0.45297  0.45297  0.00000  0.09406
      16     H     0.44739  0.44739  0.00000  0.10522
      17     H     0.45426  0.45426  0.00000  0.09147

   Total alpha = 28.00000, Total beta = 28.00000, Total charge =  0.00000

*** Psi4 exiting successfully. Buy a developer a beer!
