  ==> Input File <==

--------------------------------------------------------------------------
set {
	reference rhf
	basis 6-31G*
}

set_num_threads( 4 )
memory 2 gb

molecule MOL {
0 1

H	 4.543497	 0.324254	 0.800495
C	 3.716858	 -0.312389	 0.501994
C	 2.406926	 0.472964	 0.454453
H	 3.958554	 -0.731811	 -0.470578
H	 3.660293	 -1.133613	 1.210964
C	 1.217350	 -0.386724	 0.039429
H	 2.492521	 1.303052	 -0.239822
H	 2.211686	 0.906854	 1.433745
N	 0.000003	 0.397874	 -0.023260
H	 1.400608	 -0.798949	 -0.949232
H	 1.128024	 -1.240971	 0.718885
C	 -1.217365	 -0.386708	 0.039277
H	 -0.000031	 1.072115	 0.718656
C	 -2.452633	 0.504241	 -0.042481
H	 -1.215291	 -1.074557	 -0.802042
H	 -1.269739	 -1.003477	 0.942735
C	 -3.758029	 -0.289423	 -0.010781
H	 -2.394220	 1.093569	 -0.952170
H	 -2.440793	 1.210787	 0.785871
H	 -3.816659	 -0.981993	 -0.845726
H	 -4.617837	 0.370165	 -0.069296
H	 -3.847478	 -0.867502	 0.904682

	symmetry c1
}
set optking {
	frozen_dihedral = ("
		10 6 9 12
	")
}

ee = optimize('scf')
oeprop('DIPOLE', 'QUADRUPOLE', 'MULLIKEN_CHARGES')
f=open( 'psi4out.xyz', 'w' )
f.write( "22  " )
f.write( str(ee) + "\n" )
f.write( MOL.save_string_xyz() )
f.close()
--------------------------------------------------------------------------

    Molecular point group: c1
  Charge       = 0
  Multiplicity = 1
  Basis Set: 6-31G*
  Basis Set:
  @DF-RHF Final Energy:  -290.38185063926346
    Total Energy =                       -290.3818506392632344
    Molecular point group: c1
  Basis Set: 6-31G*
  Basis Set:
  Basis Set: 6-31G*
  Basis Set:
  @DF-RHF Final Energy:  -290.38196008196206
    Total Energy =                       -290.3819600819619495
  Basis Set: 6-31G*
  Basis Set:
  Basis Set: 6-31G*
  Basis Set:
  @DF-RHF Final Energy:  -290.38198615418418
    Total Energy =                       -290.3819861541840623
  Basis Set: 6-31G*
  Basis Set:
  Basis Set: 6-31G*
  Basis Set:
  @DF-RHF Final Energy:  -290.38198911058271
    Total Energy =                       -290.3819891105825377
  Basis Set: 6-31G*
  Basis Set:
  Charge       = 0
  Multiplicity = 1
  Basis Set: 6-31G*
  Basis Set:

    Orbital Energies (a.u.)
    -----------------------

    Doubly Occupied:

       1A    -15.533317     2A    -11.237715     3A    -11.237626
       4A    -11.216483     5A    -11.213083     6A    -11.211276
       7A    -11.209444     8A     -1.205197     9A     -1.059991
      10A     -1.026353    11A     -0.928370    12A     -0.867988
      13A     -0.812467    14A     -0.794473    15A     -0.664992
      16A     -0.630137    17A     -0.614677    18A     -0.613498
      19A     -0.573857    20A     -0.562660    21A     -0.534805
      22A     -0.526371    23A     -0.514838    24A     -0.485583
      25A     -0.482240    26A     -0.474142    27A     -0.467463
      28A     -0.450157    29A     -0.360072

  @DF-RHF Final Energy:  -290.38198969366812

   => Energetics <=

    Nuclear Repulsion Energy =            313.3182671540143360
    One-Electron Energy =               -1012.3819623541171495
    Two-Electron Energy =                 408.6817055064345823
    DFT Exchange-Correlation Energy =       0.0000000000000000
    Empirical Dispersion Energy =           0.0000000000000000
    PCM Polarization Energy =               0.0000000000000000
    EFP Energy =                            0.0000000000000000
    Total Energy =                       -290.3819896936681744
    Molecular point group: c1
  Basis Set: 6-31G*
  Basis Set:

  -Total Gradient:
     Atom            X                  Y                   Z
    ------   -----------------  -----------------  -----------------
       1        0.000000255746     0.000000199501     0.000002347600
       2        0.000005817673    -0.000016483202     0.000015117978
       3        0.000018034201     0.000035412392    -0.000018365586
       4        0.000003029370    -0.000001239123    -0.000002079796
       5        0.000009220748    -0.000006061574    -0.000003442163
       6       -0.002328433676    -0.003349718223     0.002090234845
       7       -0.000011971873     0.000000789514     0.000009060761
       8        0.000001901984     0.000001009954    -0.000006407997
       9        0.000466618574     0.000326810492    -0.003968526051
      10        0.001841943763     0.002785627487    -0.000773261921
      11        0.000015129781    -0.000018066446    -0.000021408910
      12       -0.000000829066     0.000227841184     0.002665978299
      13       -0.000003267570     0.000020998671     0.000002972602
      14       -0.000005254012     0.000001425488     0.000001560080
      15        0.000004612664     0.000000434712     0.000000624710
      16       -0.000006379076    -0.000013873023     0.000006721411
      17       -0.000004550397     0.000001273657     0.000001224415
      18       -0.000000703027     0.000002296837     0.000001294663
      19       -0.000003860057     0.000001976177    -0.000002095978
      20        0.000000062328     0.000000348074    -0.000000411523
      21       -0.000001337433    -0.000001342491    -0.000000326674
      22       -0.000000040640     0.000000339942    -0.000000810765

  **** Optimization is complete! (in 5 steps) ****
    Final optimized geometry and variables:
    Molecular point group: c1

    Geometry (in Angstrom), charge = 0, multiplicity = 1:

    H            4.566467484558     0.336544807781     0.614680160527
    C            3.737912966316    -0.300077631099     0.321576645207
    C            2.421555763834     0.475601797984     0.323390187714
    H            3.958757299625    -0.695562610543    -0.665577358869
    H            3.703920296185    -1.137012061019     1.013324274060
    C            1.226733561953    -0.386419848538    -0.076476350440
    H            2.485875673459     1.317684874093    -0.359741017465
    H            2.249863122506     0.890814975617     1.315308124117
    N            0.011247545766     0.405700821919    -0.147818582011
    H            1.422572612444    -0.801321423911    -1.061921133697
    H            1.135506442699    -1.225019320716     0.619282434271
    C           -1.208568162137    -0.377122023114    -0.096392325103
    H            0.002643950549     1.063037380426     0.609187192541
    C           -2.441824899290     0.513399736374    -0.204738531619
    H           -1.195832497900    -1.074502354034    -0.930160706739
    H           -1.271381064171    -0.984555267100     0.812378294500
    C           -3.748392023439    -0.278429148176    -0.174923804175
    H           -2.373205840765     1.089225809806    -1.122295287596
    H           -2.437607070708     1.232439781815     0.612946176083
    H           -3.798503172993    -0.984215712856    -0.999267899123
    H           -4.606793178844     0.380944467977    -0.253515170731
    H           -3.848740239391    -0.841781136959     0.748597580908

  Mulliken Charges: (a.u.)
   Center  Symbol    Alpha    Beta     Spin     Total
       1     H     0.41754  0.41754  0.00000  0.16491
       2     C     3.24246  3.24246  0.00000 -0.48491
       3     C     3.16335  3.16335  0.00000 -0.32670
       4     H     0.41973  0.41973  0.00000  0.16054
       5     H     0.42113  0.42113  0.00000  0.15773
       6     C     3.04141  3.04141  0.00000 -0.08282
       7     H     0.41315  0.41315  0.00000  0.17370
       8     H     0.42633  0.42633  0.00000  0.14734
       9     N     3.85810  3.85810  0.00000 -0.71620
      10     H     0.42133  0.42133  0.00000  0.15734
      11     H     0.43510  0.43510  0.00000  0.12980
      12     C     3.04926  3.04926  0.00000 -0.09852
      13     H     0.33527  0.33527  0.00000  0.32945
      14     C     3.15497  3.15497  0.00000 -0.30994
      15     H     0.42170  0.42170  0.00000  0.15660
      16     H     0.43587  0.43587  0.00000  0.12826
      17     C     3.24327  3.24327  0.00000 -0.48654
      18     H     0.41290  0.41290  0.00000  0.17419
      19     H     0.42678  0.42678  0.00000  0.14643
      20     H     0.42072  0.42072  0.00000  0.15857
      21     H     0.41778  0.41778  0.00000  0.16444
      22     H     0.42184  0.42184  0.00000  0.15631

   Total alpha = 29.00000, Total beta = 29.00000, Total charge =  0.00000
