  ==> Input File <==

--------------------------------------------------------------------------
set {
	reference rhf
	basis 6-31G*
}

set_num_threads( 1 )
memory 2 gb

molecule MOL {
0 1

O	 3.225979	 0.970355	 -0.599647
C	 2.701189	 0.057885	 -0.047330
C	 1.245376	 -0.013843	 0.345420
O	 3.347903	 -1.046386	 0.304773
C	 0.455112	 1.231400	 -0.050772
H	 0.838542	 -0.913825	 -0.103701
H	 1.208210	 -0.175333	 1.419774
C	 -0.998893	 1.219485	 0.433193
H	 0.482531	 1.345121	 -1.130325
H	 0.957290	 2.103070	 0.354729
C	 -1.883438	 0.145884	 -0.207175
H	 -1.431207	 2.195402	 0.224832
H	 -1.019646	 1.105716	 1.516076
C	 -3.347647	 0.245583	 0.225435
H	 -1.822183	 0.231698	 -1.291012
H	 -1.510341	 -0.844814	 0.042401
C	 -4.122471	 -1.061420	 0.047883
H	 -3.838148	 1.033302	 -0.343901
H	 -3.394643	 0.551073	 1.269545
C	 -5.584756	 -0.952311	 0.478599
H	 -4.075682	 -1.368659	 -0.994737
H	 -3.636190	 -1.849017	 0.619725
H	 -6.107113	 -1.894014	 0.340950
H	 -6.108354	 -0.196185	 -0.099600
H	 -5.665363	 -0.679644	 1.527136
C	 4.728119	 -1.109107	 -0.004993
H	 4.882018	 -1.033965	 -1.071845
H	 5.068212	 -2.067527	 0.355250
H	 5.265056	 -0.311663	 0.488280

	symmetry c1
}
set optking {
	frozen_dihedral = ("
		21 17 14 11,
		15 11 8 5,
		6 3 5 9,
		11 8 5 9,
		2 4 26 27,
		1 2 4 26,
		6 3 2 1
	")
}

ee = energy('scf')
oeprop('DIPOLE', 'QUADRUPOLE', 'MULLIKEN_CHARGES')
f=open( 'psi4out.xyz', 'w' )
f.write( "29  " )
f.write( str(ee) + "\n" )
f.write( MOL.save_string_xyz() )
f.close()
--------------------------------------------------------------------------

    Molecular point group: c1

    Geometry (in Angstrom), charge = 0, multiplicity = 1:

       Center              X                  Y                   Z               Mass
    ------------   -----------------  -----------------  -----------------  -----------------
           O          3.204496835290     1.013638004544    -0.682329592978    15.994914619560
           C          2.679706835290     0.101168004544    -0.130012592978    12.000000000000
           C          1.223893835290     0.029440004544     0.262737407022    12.000000000000
           O          3.326420835290    -1.003102995456     0.222090407022    15.994914619560
           C          0.433629835290     1.274683004544    -0.133454592978    12.000000000000
           H          0.817059835290    -0.870541995456    -0.186383592978     1.007825032070
           H          1.186727835290    -0.132049995456     1.337091407022     1.007825032070
           C         -1.020375164710     1.262768004544     0.350510407022    12.000000000000
           H          0.461048835290     1.388404004544    -1.213007592978     1.007825032070
           H          0.935807835290     2.146353004544     0.272046407022     1.007825032070
           C         -1.904920164710     0.189167004544    -0.289857592978    12.000000000000
           H         -1.452689164710     2.238685004544     0.142149407022     1.007825032070
           H         -1.041128164710     1.148999004544     1.433393407022     1.007825032070
           C         -3.369129164710     0.288866004544     0.142752407022    12.000000000000
           H         -1.843665164710     0.274981004544    -1.373694592978     1.007825032070
           H         -1.531823164710    -0.801530995456    -0.040281592978     1.007825032070
           C         -4.143953164710    -1.018136995456    -0.034799592978    12.000000000000
           H         -3.859630164710     1.076585004544    -0.426583592978     1.007825032070
           H         -3.416125164710     0.594356004544     1.186862407022     1.007825032070
           C         -5.606238164710    -0.909027995456     0.395916407022    12.000000000000
           H         -4.097164164710    -1.325375995456    -1.077419592978     1.007825032070
           H         -3.657672164710    -1.805733995456     0.537042407022     1.007825032070
           H         -6.128595164710    -1.850730995456     0.258267407022     1.007825032070
           H         -6.129836164710    -0.152901995456    -0.182282592978     1.007825032070
           H         -5.686845164710    -0.636360995456     1.444453407022     1.007825032070
           C          4.706636835290    -1.065823995456    -0.087675592978    12.000000000000
           H          4.860535835290    -0.990681995456    -1.154527592978     1.007825032070
           H          5.046729835290    -2.024243995456     0.272567407022     1.007825032070
           H          5.243573835290    -0.268379995456     0.405597407022     1.007825032070

  Charge       = 0
  Multiplicity = 1
  Basis Set: 6-31G*
  Basis Set:

    Orbital Energies (a.u.)
    -----------------------

    Doubly Occupied:

       1A    -20.603376     2A    -20.545150     3A    -11.371978
       4A    -11.280653     5A    -11.234711     6A    -11.218959
       7A    -11.217755     8A    -11.216069     9A    -11.215497
      10A    -11.214025    11A    -11.208991    12A     -1.469046
      13A     -1.362478    14A     -1.098094    15A     -1.066788
      16A     -1.019445    17A     -0.977188    18A     -0.928527
      19A     -0.861447    20A     -0.799997    21A     -0.790411
      22A     -0.763881    23A     -0.700485    24A     -0.682272
      25A     -0.672165    26A     -0.648465    27A     -0.629602
      28A     -0.606288    29A     -0.594211    30A     -0.580961
      31A     -0.567063    32A     -0.550480    33A     -0.532617
      34A     -0.529355    35A     -0.517675    36A     -0.509443
      37A     -0.496305    38A     -0.477834    39A     -0.471643
      40A     -0.460784    41A     -0.458406    42A     -0.455763
      43A     -0.440825    44A     -0.435194

  @DF-RHF Final Energy:  -501.04252676923181

   => Energetics <=

    Nuclear Repulsion Energy =            610.8927376968212002
    One-Electron Energy =               -1892.9058323157141785
    Two-Electron Energy =                 780.9705678496609380
    DFT Exchange-Correlation Energy =       0.0000000000000000
    Empirical Dispersion Energy =           0.0000000000000000
    PCM Polarization Energy =               0.0000000000000000
    EFP Energy =                            0.0000000000000000
    Total Energy =                       -501.0425267692319267

  Mulliken Charges: (a.u.)
   Center  Symbol    Alpha    Beta     Spin     Total
       1     O     4.28597  4.28597  0.00000 -0.57193
       2     C     2.60481  2.60481  0.00000  0.79039
       3     C     3.20970  3.20970  0.00000 -0.41940
       4     O     4.30747  4.30747  0.00000 -0.61494
       5     C     3.15405  3.15405  0.00000 -0.30809
       6     H     0.39871  0.39871  0.00000  0.20257
       7     H     0.40131  0.40131  0.00000  0.19738
       8     C     3.15764  3.15764  0.00000 -0.31528
       9     H     0.41311  0.41311  0.00000  0.17378
      10     H     0.40879  0.40879  0.00000  0.18243
      11     C     3.15552  3.15552  0.00000 -0.31105
      12     H     0.41803  0.41803  0.00000  0.16394
      13     H     0.42369  0.42369  0.00000  0.15261
      14     C     3.15100  3.15100  0.00000 -0.30200
      15     H     0.42149  0.42149  0.00000  0.15702
      16     H     0.42335  0.42335  0.00000  0.15331
      17     C     3.15238  3.15238  0.00000 -0.30476
      18     H     0.42208  0.42208  0.00000  0.15585
      19     H     0.42351  0.42351  0.00000  0.15298
      20     C     3.23954  3.23954  0.00000 -0.47909
      21     H     0.42283  0.42283  0.00000  0.15433
      22     H     0.42328  0.42328  0.00000  0.15343
      23     H     0.41931  0.41931  0.00000  0.16139
      24     H     0.42156  0.42156  0.00000  0.15687
      25     H     0.42174  0.42174  0.00000  0.15651
      26     C     3.09241  3.09241  0.00000 -0.18481
      27     H     0.40908  0.40908  0.00000  0.18184
      28     H     0.40852  0.40852  0.00000  0.18296
      29     H     0.40913  0.40913  0.00000  0.18175

   Total alpha = 44.00000, Total beta = 44.00000, Total charge = -0.00000
