  ==> Input File <==

--------------------------------------------------------------------------
set {
	reference rhf
	basis 6-31G*
}

set_num_threads( 4 )
memory 2 gb

molecule MOL {
0 1

H	 -2.837480	 -0.343631	 0.052191
N	 -1.886602	 -0.194313	 0.328794
C	 -1.245137	 0.778644	 -0.537798
H	 -1.412123	 -1.073112	 0.253353
C	 0.201022	 0.962092	 -0.127792
H	 -1.271408	 0.509797	 -1.594696
H	 -1.757771	 1.729725	 -0.430868
O	 0.874168	 -0.245412	 -0.342030
H	 0.661110	 1.756474	 -0.715085
H	 0.250844	 1.240631	 0.922526
C	 2.202317	 -0.244239	 0.074611
H	 2.711377	 -1.041390	 -0.449894
H	 2.692099	 0.699270	 -0.159667
H	 2.283185	 -0.418429	 1.145558

	symmetry c1
}
set optking {
	frozen_dihedral = ("
		5 8 11 13
	")
}

ee = optimize('scf')
oeprop('DIPOLE', 'QUADRUPOLE', 'MULLIKEN_CHARGES')
f=open( 'psi4out.xyz', 'w' )
f.write( "14  " )
f.write( str(ee) + "\n" )
f.write( MOL.save_string_xyz() )
f.close()
--------------------------------------------------------------------------

    Molecular point group: c1
  Charge       = 0
  Multiplicity = 1
  Basis Set: 6-31G*
  Basis Set:
  @DF-RHF Final Energy:  -248.12420192324706
    Total Energy =                       -248.1242019232468010
    Molecular point group: c1
  Basis Set: 6-31G*
  Basis Set:
  Basis Set: 6-31G*
  Basis Set:
  @DF-RHF Final Energy:  -248.12424299108895
    Total Energy =                       -248.1242429910888632
  Basis Set: 6-31G*
  Basis Set:
  Basis Set: 6-31G*
  Basis Set:
  @DF-RHF Final Energy:  -248.12425503558188
    Total Energy =                       -248.1242550355819958
  Basis Set: 6-31G*
  Basis Set:
  Charge       = 0
  Multiplicity = 1
  Basis Set: 6-31G*
  Basis Set:

    Orbital Energies (a.u.)
    -----------------------

    Doubly Occupied:

       1A    -20.556403     2A    -15.528382     3A    -11.266141
       4A    -11.265791     5A    -11.240686     6A     -1.380120
       7A     -1.173522     8A     -0.998917     9A     -0.907274
      10A     -0.815226    11A     -0.683681    12A     -0.672987
      13A     -0.644849    14A     -0.609724    15A     -0.605068
      16A     -0.540796    17A     -0.531142    18A     -0.497015
      19A     -0.472814    20A     -0.415653    21A     -0.380041

  @DF-RHF Final Energy:  -248.12425512580958

   => Energetics <=

    Nuclear Repulsion Energy =            194.5994005611347291
    One-Electron Energy =                -723.0748477278841619
    Two-Electron Energy =                 280.3511920409398499
    DFT Exchange-Correlation Energy =       0.0000000000000000
    Empirical Dispersion Energy =           0.0000000000000000
    PCM Polarization Energy =               0.0000000000000000
    EFP Energy =                            0.0000000000000000
    Total Energy =                       -248.1242551258095546
    Molecular point group: c1
  Basis Set: 6-31G*
  Basis Set:

  -Total Gradient:
     Atom            X                  Y                   Z
    ------   -----------------  -----------------  -----------------
       1        0.000000759553     0.000010843041    -0.000004777236
       2        0.000011853373     0.000010129748    -0.000001252583
       3       -0.000022074228     0.000003980887    -0.000017223055
       4        0.000005081899     0.000007827257     0.000002029353
       5        0.000575005921     0.000667791184    -0.001887609169
       6       -0.000008015839    -0.000001414952     0.000000259542
       7       -0.000018244899     0.000000972412    -0.000002879227
       8       -0.000996333361    -0.000681143644     0.003396950494
       9       -0.000002780413    -0.000012701149     0.000003666486
      10        0.000010438638     0.000001774869     0.000001304904
      11        0.001196905967    -0.000980176029    -0.003866971169
      12       -0.000000108090     0.000000298952    -0.000001139422
      13       -0.000751178398     0.000967907462     0.002369221392
      14       -0.000001310127     0.000003909962     0.000008419691

  **** Optimization is complete! (in 4 steps) ****
    Final optimized geometry and variables:
    Molecular point group: c1

    Geometry (in Angstrom), charge = 0, multiplicity = 1:

    H           -2.874643963350    -0.538260727412     0.173067289427
    N           -1.923683957038    -0.388533529977     0.449053940205
    C           -1.283637553827     0.586424585003    -0.416394600869
    H           -1.448557148568    -1.266805827085     0.371645490412
    C            0.162048074859     0.772759438492    -0.006149117792
    H           -1.308667670220     0.318184229606    -1.473478537860
    H           -1.798287658421     1.536365183400    -0.309076589264
    O            0.837429405714    -0.432856764563    -0.225459855720
    H            0.621002439367     1.568093336470    -0.592273272929
    H            0.209585544755     1.050488375530     1.044581211444
    C            2.167887557082    -0.439867848737     0.189402176165
    H            2.675273556432    -1.245550482069    -0.323538405996
    H            2.662381218683     0.501604231765    -0.038902342052
    H            2.241548041586    -0.602086592667     1.262850350237

  Mulliken Charges: (a.u.)
   Center  Symbol    Alpha    Beta     Spin     Total
       1     H     0.33284  0.33284  0.00000  0.33431
       2     N     3.92524  3.92524  0.00000 -0.85049
       3     C     3.06892  3.06892  0.00000 -0.13784
       4     H     0.32374  0.32374  0.00000  0.35253
       5     C     2.99031  2.99031  0.00000  0.01937
       6     H     0.42662  0.42662  0.00000  0.14677
       7     H     0.42052  0.42052  0.00000  0.15896
       8     O     4.31087  4.31087  0.00000 -0.62175
       9     H     0.43048  0.43048  0.00000  0.13905
      10     H     0.42280  0.42280  0.00000  0.15440
      11     C     3.07794  3.07794  0.00000 -0.15587
      12     H     0.41350  0.41350  0.00000  0.17301
      13     H     0.43050  0.43050  0.00000  0.13901
      14     H     0.42573  0.42573  0.00000  0.14855

   Total alpha = 21.00000, Total beta = 21.00000, Total charge =  0.00000
