  ==> Input File <==

--------------------------------------------------------------------------
set {
	reference rhf
	basis cc-pvtz
}

set_num_threads( 4 )
memory 2 gb

molecule MOL {
0 1

H	 0.910276	 -0.755653	 -1.487002
O	 0.561351	 0.016868	 -1.894328
C	 0.284613	 0.977499	 -0.922613
C	 -0.793473	 0.591216	 0.050087
H	 -0.018039	 1.872413	 -1.453493
H	 1.183547	 1.236510	 -0.366257
C	 -1.534243	 -0.493009	 -0.013340
H	 -0.943425	 1.291398	 0.855387
H	 -1.101195	 -1.466332	 -0.144046
H	 -2.604242	 -0.437780	 0.050785

	symmetry c1
}
set optking {
	frozen_dihedral = ("
		3 4 7 9
	")
}

ee = optimize('scf')
oeprop('DIPOLE', 'QUADRUPOLE', 'MULLIKEN_CHARGES')
f=open( 'psi4out.xyz', 'w' )
f.write( "10  " )
f.write( str(ee) + "\n" )
f.write( MOL.save_string_xyz() )
f.close()
--------------------------------------------------------------------------

    Molecular point group: c1
  Charge       = 0
  Multiplicity = 1
  Basis Set: CC-PVTZ
  Basis Set:
  @DF-RHF Final Energy:  -191.94041596481270
    Total Energy =                       -191.9404159648127006
    Molecular point group: c1
  Basis Set: CC-PVTZ
  Basis Set:
  Basis Set: CC-PVTZ
  Basis Set:
  @DF-RHF Final Energy:  -191.96169599982642
    Total Energy =                       -191.9616959998264178
  Basis Set: CC-PVTZ
  Basis Set:
  Basis Set: CC-PVTZ
  Basis Set:
  @DF-RHF Final Energy:  -191.97401773704030
    Total Energy =                       -191.9740177370403558
  Basis Set: CC-PVTZ
  Basis Set:
  Basis Set: CC-PVTZ
  Basis Set:
  @DF-RHF Final Energy:  -191.97752701875760
    Total Energy =                       -191.9775270187575416
  Basis Set: CC-PVTZ
  Basis Set:
  Basis Set: CC-PVTZ
  Basis Set:
  @DF-RHF Final Energy:  -191.97764790754633
    Total Energy =                       -191.9776479075462987
  Basis Set: CC-PVTZ
  Basis Set:
  Basis Set: CC-PVTZ
  Basis Set:
  @DF-RHF Final Energy:  -191.97765477160544
    Total Energy =                       -191.9776547716054438
  Basis Set: CC-PVTZ
  Basis Set:
  Charge       = 0
  Multiplicity = 1
  Basis Set: CC-PVTZ
  Basis Set:

    Orbital Energies (a.u.)
    -----------------------

    Doubly Occupied:

       1A    -20.553519     2A    -11.280537     3A    -11.234123
       4A    -11.219852     5A     -1.373395     6A     -1.062473
       7A     -0.933606     8A     -0.772123     9A     -0.692790
      10A     -0.657662    11A     -0.617315    12A     -0.573932
      13A     -0.545629    14A     -0.491079    15A     -0.450599
      16A     -0.362288

  @DF-RHF Final Energy:  -191.97765531091761

   => Energetics <=

    Nuclear Repulsion Energy =            118.6711305246227539
    One-Electron Energy =                -495.6557339119946164
    Two-Electron Energy =                 185.0069480764543073
    DFT Exchange-Correlation Energy =       0.0000000000000000
    Empirical Dispersion Energy =           0.0000000000000000
    PCM Polarization Energy =               0.0000000000000000
    EFP Energy =                            0.0000000000000000
    Total Energy =                       -191.9776553109175552
    Molecular point group: c1
  Basis Set: CC-PVTZ
  Basis Set:

  -Total Gradient:
     Atom            X                  Y                   Z
    ------   -----------------  -----------------  -----------------
       1        0.000001719898     0.000020260919     0.000007613979
       2       -0.000030702620    -0.000029651330    -0.000079791126
       3       -0.012865451394     0.013727113696    -0.007637186592
       4        0.023377298069    -0.026733406926     0.024587900272
       5        0.000003789413    -0.000038330656    -0.000021539933
       6       -0.000018567067     0.000029768842     0.000019891813
       7       -0.014165128637     0.021704879427    -0.043571779812
       8        0.000100717220    -0.000206210472     0.000335399821
       9        0.003579469331    -0.008408964787     0.026309109694
      10        0.000016855789    -0.000065458713     0.000050381882

  **** Optimization is complete! (in 7 steps) ****
    Final optimized geometry and variables:
    Molecular point group: c1

    Geometry (in Angstrom), charge = 0, multiplicity = 1:

    H            1.429954848719    -0.951685760309    -0.665722872416
    O            0.985725631713    -0.243619689263    -1.095731344975
    C            0.597250693299     0.713645025622    -0.157747297275
    C           -0.460869148768     0.264015007665     0.812750115490
    H            0.167152956232     1.535804641173    -0.714600779370
    H            1.461389825973     1.109862020773     0.372334253409
    C           -1.363503890992    -0.686832859861     0.633594388353
    H           -0.730069569342     1.062143533248     1.490244582611
    H           -1.134290506993    -1.679170800573     0.286793607478
    H           -2.227183100103    -0.673361705802     1.277896624791

  Mulliken Charges: (a.u.)
   Center  Symbol    Alpha    Beta     Spin     Total
       1     H     0.39303  0.39303  0.00000  0.21394
       2     O     4.19692  4.19692  0.00000 -0.39385
       3     C     2.95744  2.95744  0.00000  0.08513
       4     C     3.08958  3.08958  0.00000 -0.17915
       5     H     0.44903  0.44903  0.00000  0.10194
       6     H     0.46466  0.46466  0.00000  0.07068
       7     C     3.15469  3.15469  0.00000 -0.30938
       8     H     0.42997  0.42997  0.00000  0.14006
       9     H     0.43097  0.43097  0.00000  0.13807
      10     H     0.43371  0.43371  0.00000  0.13258

   Total alpha = 16.00000, Total beta = 16.00000, Total charge =  0.00000
