  ==> Input File <==

--------------------------------------------------------------------------
set {
	reference rhf
	basis 6-31G*
}

set_num_threads( 4 )
memory 2 gb

molecule MOL {
0 1

H	 -3.695600	 1.150684	 0.910909
O	 -2.836625	 1.447735	 0.646904
C	 -2.026376	 0.340750	 0.341611
C	 -0.673256	 0.843270	 -0.132153
H	 -1.897056	 -0.288380	 1.220479
H	 -2.488775	 -0.269107	 -0.433577
C	 0.486613	 -0.083066	 0.235839
H	 -0.715586	 0.970948	 -1.210718
H	 -0.508072	 1.829858	 0.297090
C	 1.840406	 0.433480	 -0.254303
H	 0.300215	 -1.068318	 -0.178947
H	 0.519509	 -0.203625	 1.318070
C	 3.000220	 -0.489290	 0.118523
H	 1.809207	 0.553576	 -1.335192
H	 2.021860	 1.424500	 0.157276
H	 2.864959	 -1.479103	 -0.307933
H	 3.946603	 -0.099227	 -0.243630
H	 3.080049	 -0.602997	 1.196117

	symmetry c1
}
set optking {
	frozen_dihedral = ("
		2 3 4 8
	")
}

ee = optimize('scf')
oeprop('DIPOLE', 'QUADRUPOLE', 'MULLIKEN_CHARGES')
f=open( 'psi4out.xyz', 'w' )
f.write( "18  " )
f.write( str(ee) + "\n" )
f.write( MOL.save_string_xyz() )
f.close()
--------------------------------------------------------------------------

    Molecular point group: c1
  Charge       = 0
  Multiplicity = 1
  Basis Set: 6-31G*
  Basis Set:
  @DF-RHF Final Energy:  -271.17629240642009
    Total Energy =                       -271.1762924064202025
    Molecular point group: c1
  Basis Set: 6-31G*
  Basis Set:
  Basis Set: 6-31G*
  Basis Set:
  @DF-RHF Final Energy:  -271.17658660744382
    Total Energy =                       -271.1765866074437099
  Basis Set: 6-31G*
  Basis Set:
  Basis Set: 6-31G*
  Basis Set:
  @DF-RHF Final Energy:  -271.17662430277073
    Total Energy =                       -271.1766243027709606
  Basis Set: 6-31G*
  Basis Set:
  Basis Set: 6-31G*
  Basis Set:
  @DF-RHF Final Energy:  -271.17662734851297
    Total Energy =                       -271.1766273485130228
  Basis Set: 6-31G*
  Basis Set:
  Basis Set: 6-31G*
  Basis Set:
  @DF-RHF Final Energy:  -271.17663314308589
    Total Energy =                       -271.1766331430858372
  Basis Set: 6-31G*
  Basis Set:
  Charge       = 0
  Multiplicity = 1
  Basis Set: 6-31G*
  Basis Set:

    Orbital Energies (a.u.)
    -----------------------

    Doubly Occupied:

       1A    -20.551665     2A    -11.267418     3A    -11.215618
       4A    -11.214951     5A    -11.210971     6A    -11.208514
       7A     -1.358055     8A     -1.079640     9A     -1.009910
      10A     -0.912475    11A     -0.820316    12A     -0.791960
      13A     -0.696947    14A     -0.654139    15A     -0.623065
      16A     -0.584939    17A     -0.570570    18A     -0.558996
      19A     -0.529023    20A     -0.496065    21A     -0.490029
      22A     -0.468291    23A     -0.464004    24A     -0.450677
      25A     -0.430897

  @DF-RHF Final Energy:  -271.17663314757806

   => Energetics <=

    Nuclear Repulsion Energy =            245.2603505985457559
    One-Electron Energy =                -853.5556965315092839
    Two-Electron Energy =                 337.1187127853855827
    DFT Exchange-Correlation Energy =       0.0000000000000000
    Empirical Dispersion Energy =           0.0000000000000000
    PCM Polarization Energy =               0.0000000000000000
    EFP Energy =                            0.0000000000000000
    Total Energy =                       -271.1766331475779452
    Molecular point group: c1
  Basis Set: 6-31G*
  Basis Set:

  -Total Gradient:
     Atom            X                  Y                   Z
    ------   -----------------  -----------------  -----------------
       1        0.000003367396    -0.000002208804     0.000000991913
       2        0.001128309959    -0.000085349759     0.003305645451
       3       -0.001078248539    -0.000956877447    -0.004401647017
       4       -0.001513056909     0.005197071903     0.001640414845
       5       -0.000043674572     0.000019672852     0.000010976133
       6       -0.000018640016     0.000005005139     0.000005324968
       7        0.000011647834    -0.000015051362    -0.000034759535
       8        0.001512111853    -0.004226529542    -0.000538757624
       9        0.000018059570     0.000024076728    -0.000012306267
      10        0.000001272068     0.000016092214     0.000021198756
      11        0.000011049828     0.000011858220     0.000006697720
      12       -0.000019652019     0.000022515962    -0.000000882074
      13       -0.000006576101    -0.000019036489    -0.000017395605
      14       -0.000003379361     0.000012595662     0.000001261319
      15       -0.000005630628    -0.000000643539     0.000013163166
      16        0.000000155338    -0.000007859623     0.000009832836
      17       -0.000002101056    -0.000003715736    -0.000008850692
      18        0.000004985351     0.000008383624    -0.000000908294

  **** Optimization is complete! (in 6 steps) ****
    Final optimized geometry and variables:
    Molecular point group: c1

    Geometry (in Angstrom), charge = 0, multiplicity = 1:

    H           -3.625556166220     0.680775679290     0.683614597333
    O           -2.762336420297     0.997958286638     0.459040949448
    C           -1.922172084774    -0.090100740993     0.165227840915
    C           -0.566893468265     0.448586459933    -0.286221493549
    H           -1.797092817145    -0.706802583868     1.054204170256
    H           -2.358148762383    -0.721145081467    -0.606517647668
    C            0.588572265549    -0.489347624192     0.074153410896
    H           -0.571543965245     0.586260331258    -1.364138585768
    H           -0.417896726831     1.419603751455     0.173232638120
    C            1.943062007847     0.002057535566    -0.438347194551
    H            0.393037837241    -1.481951026721    -0.330781288147
    H            0.634295512644    -0.605606391053     1.155481484635
    C            3.095908749297    -0.929913746306    -0.067167785426
    H            1.901031179722     0.111040637748    -1.519899873933
    H            2.138161402741     0.995127883137    -0.039491368836
    H            2.944575305502    -1.924161190276    -0.478255703355
    H            4.041824024154    -0.556031352180    -0.446638203160
    H            3.188283185268    -1.029457635323     1.010675792457

  Mulliken Charges: (a.u.)
   Center  Symbol    Alpha    Beta     Spin     Total
       1     H     0.28173  0.28173  0.00000  0.43654
       2     O     4.37160  4.37160  0.00000 -0.74319
       3     C     2.99190  2.99190  0.00000  0.01620
       4     C     3.16199  3.16199  0.00000 -0.32399
       5     H     0.43131  0.43131  0.00000  0.13739
       6     H     0.43106  0.43106  0.00000  0.13788
       7     C     3.15954  3.15954  0.00000 -0.31908
       8     H     0.41906  0.41906  0.00000  0.16188
       9     H     0.40710  0.40710  0.00000  0.18581
      10     C     3.15137  3.15137  0.00000 -0.30274
      11     H     0.42536  0.42536  0.00000  0.14928
      12     H     0.42194  0.42194  0.00000  0.15612
      13     C     3.23935  3.23935  0.00000 -0.47869
      14     H     0.42265  0.42265  0.00000  0.15471
      15     H     0.42128  0.42128  0.00000  0.15745
      16     H     0.42223  0.42223  0.00000  0.15555
      17     H     0.41898  0.41898  0.00000  0.16205
      18     H     0.42159  0.42159  0.00000  0.15683

   Total alpha = 25.00000, Total beta = 25.00000, Total charge =  0.00000
