  ==> Input File <==

--------------------------------------------------------------------------
set {
	reference rhf
	basis 6-31G*
}

set_num_threads( 4 )
memory 2 gb

molecule MOL {
0 1

H	 -3.420663	 1.227371	 -1.044276
O	 -3.452007	 0.283848	 -0.965577
C	 -3.181085	 -0.079926	 0.364119
C	 -1.765924	 0.277073	 0.805136
H	 -3.327791	 -1.152017	 0.410903
H	 -3.905698	 0.375695	 1.036898
C	 -0.685460	 -0.196910	 -0.167723
H	 -1.696381	 1.357647	 0.933534
H	 -1.594454	 -0.156373	 1.788977
C	 0.728912	 0.186058	 0.272806
H	 -0.886766	 0.214408	 -1.152102
H	 -0.750853	 -1.278875	 -0.270048
C	 1.805384	 -0.296912	 -0.702916
H	 0.784731	 1.266454	 0.382572
H	 0.926547	 -0.231634	 1.259253
C	 3.245722	 -0.014611	 -0.260324
H	 1.635200	 0.155290	 -1.678747
H	 1.691739	 -1.369897	 -0.842935
C	 3.612483	 1.469295	 -0.197763
H	 3.921921	 -0.511344	 -0.951917
H	 3.418958	 -0.470718	 0.712384
H	 3.437379	 1.954933	 -1.154128
H	 4.662053	 1.596894	 0.049134
H	 3.035712	 1.999311	 0.552958

	symmetry c1
}
set optking {
	frozen_dihedral = ("
		7 4 3 2
	")
}

ee = optimize('scf')
oeprop('DIPOLE', 'QUADRUPOLE', 'MULLIKEN_CHARGES')
f=open( 'psi4out.xyz', 'w' )
f.write( "24  " )
f.write( str(ee) + "\n" )
f.write( MOL.save_string_xyz() )
f.close()
--------------------------------------------------------------------------

    Molecular point group: c1
  Charge       = 0
  Multiplicity = 1
  Basis Set: 6-31G*
  Basis Set:
  @DF-RHF Final Energy:  -349.24696879974817
    Total Energy =                       -349.2469687997480605
    Molecular point group: c1
  Basis Set: 6-31G*
  Basis Set:
  Basis Set: 6-31G*
  Basis Set:
  @DF-RHF Final Energy:  -349.24701084464169
    Total Energy =                       -349.2470108446419772
  Basis Set: 6-31G*
  Basis Set:
  Basis Set: 6-31G*
  Basis Set:
  @DF-RHF Final Energy:  -349.24704959012553
    Total Energy =                       -349.2470495901256982
  Basis Set: 6-31G*
  Basis Set:
  Basis Set: 6-31G*
  Basis Set:
  @DF-RHF Final Energy:  -349.24704835990337
    Total Energy =                       -349.2470483599035447
  Basis Set: 6-31G*
  Basis Set:
  Basis Set: 6-31G*
  Basis Set:
  @DF-RHF Final Energy:  -349.24704968541732
    Total Energy =                       -349.2470496854174371
  Basis Set: 6-31G*
  Basis Set:
  Basis Set: 6-31G*
  Basis Set:
  @DF-RHF Final Energy:  -349.24705218802552
    Total Energy =                       -349.2470521880256911
  Basis Set: 6-31G*
  Basis Set:
  Charge       = 0
  Multiplicity = 1
  Basis Set: 6-31G*
  Basis Set:

    Orbital Energies (a.u.)
    -----------------------

    Doubly Occupied:

       1A    -20.554202     2A    -11.267822     3A    -11.217209
       4A    -11.213955     5A    -11.212187     6A    -11.211393
       7A    -11.210813     8A    -11.207361     9A     -1.360571
      10A     -1.088209    11A     -1.047794    12A     -0.985514
      13A     -0.915491    14A     -0.850688    15A     -0.799214
      16A     -0.776152    17A     -0.679617    18A     -0.653753
      19A     -0.625958    20A     -0.618540    21A     -0.597313
      22A     -0.585317    23A     -0.555700    24A     -0.542921
      25A     -0.513824    26A     -0.506328    27A     -0.501587
      28A     -0.471553    29A     -0.466819    30A     -0.459815
      31A     -0.454608    32A     -0.450287    33A     -0.420025

  @DF-RHF Final Energy:  -349.24705200930913

   => Energetics <=

    Nuclear Repulsion Energy =            384.8899013284513444
    One-Electron Energy =               -1236.2288334193899573
    Two-Electron Energy =                 502.0918800816294834
    DFT Exchange-Correlation Energy =       0.0000000000000000
    Empirical Dispersion Energy =           0.0000000000000000
    PCM Polarization Energy =               0.0000000000000000
    EFP Energy =                            0.0000000000000000
    Total Energy =                       -349.2470520093091864
    Molecular point group: c1
  Basis Set: 6-31G*
  Basis Set:

  -Total Gradient:
     Atom            X                  Y                   Z
    ------   -----------------  -----------------  -----------------
       1       -0.000003690565     0.000000591784     0.000000795992
       2        0.000790883783    -0.002230006403    -0.000765869440
       3       -0.001200363802     0.003859273998     0.000524499926
       4        0.000580972461    -0.003551778863     0.001428826084
       5        0.000003371465     0.000014702896    -0.000023872545
       6       -0.000009111771    -0.000025890212     0.000022971915
       7       -0.000167151843     0.001891695698    -0.001171317677
       8        0.000003047195    -0.000011520258    -0.000004852412
       9        0.000005145744     0.000015151163     0.000014941473
      10       -0.000006153940     0.000046455951    -0.000042909561
      11        0.000035757763    -0.000015401699     0.000009613459
      12       -0.000021579177    -0.000003026799    -0.000003490990
      13       -0.000016173814    -0.000001066424     0.000003920560
      14       -0.000003800709     0.000006847508     0.000004028186
      15        0.000006076404     0.000001156614    -0.000016415066
      16        0.000000250951    -0.000012197139     0.000016460543
      17        0.000006848629     0.000007903480     0.000004417154
      18       -0.000020644437     0.000001039923    -0.000004769363
      19       -0.000000446295     0.000004483723     0.000002962053
      20       -0.000004909355     0.000002625492     0.000000258375
      21        0.000012182236    -0.000003424535     0.000001378976
      22        0.000004350447    -0.000001855306     0.000000258337
      23       -0.000001740885     0.000000282394     0.000003613148
      24        0.000006879517     0.000003957016    -0.000005449128

  **** Optimization is complete! (in 7 steps) ****
    Final optimized geometry and variables:
    Molecular point group: c1

    Geometry (in Angstrom), charge = 0, multiplicity = 1:

    H           -3.464449771784     0.954400045642    -0.941657814959
    O           -3.466078984966     0.013227997611    -0.832386543663
    C           -3.160174684263    -0.303343365783     0.501370166942
    C           -1.741898529217     0.085663222537     0.910704550337
    H           -3.281341501995    -1.377270316110     0.574307327641
    H           -3.881131425400     0.149629245009     1.179362829512
    C           -0.664369256358    -0.399392425516    -0.060231538859
    H           -1.679584641838     1.170971184543     0.998656549191
    H           -1.556447166477    -0.308365403762     1.908131914419
    C            0.751083166343    -0.027815890946     0.386860332834
    H           -0.856994344085     0.013447519476    -1.044899093541
    H           -0.738078519288    -1.480396690854    -0.166638639655
    C            1.826477255538    -0.503388336191    -0.593676687044
    H            0.811940735033     1.050888651056     0.510414162360
    H            0.945914084366    -0.458715107526     1.368086625175
    C            3.267703919530    -0.238861706807    -0.143096704068
    H            1.662367199472    -0.034707689577    -1.562754896598
    H            1.705062580780    -1.573116851155    -0.750982594183
    C            3.645241391548     1.241088036702    -0.055898091769
    H            3.942001696470    -0.729509725577    -0.840800643961
    H            3.434991915203    -0.711676679355     0.822647945351
    H            3.477153570113     1.743013297846    -1.005092585344
    H            4.694875964521     1.356952884302     0.196475333061
    H            3.069759369895     1.763515592525     0.701080786367

  Mulliken Charges: (a.u.)
   Center  Symbol    Alpha    Beta     Spin     Total
       1     H     0.28347  0.28347  0.00000  0.43306
       2     O     4.36772  4.36772  0.00000 -0.73544
       3     C     2.99498  2.99498  0.00000  0.01005
       4     C     3.17312  3.17312  0.00000 -0.34624
       5     H     0.41649  0.41649  0.00000  0.16703
       6     H     0.42789  0.42789  0.00000  0.14421
       7     C     3.14850  3.14850  0.00000 -0.29700
       8     H     0.42800  0.42800  0.00000  0.14400
       9     H     0.42135  0.42135  0.00000  0.15730
      10     C     3.15383  3.15383  0.00000 -0.30766
      11     H     0.41466  0.41466  0.00000  0.17068
      12     H     0.42271  0.42271  0.00000  0.15458
      13     C     3.15216  3.15216  0.00000 -0.30432
      14     H     0.42330  0.42330  0.00000  0.15341
      15     H     0.42534  0.42534  0.00000  0.14933
      16     C     3.15229  3.15229  0.00000 -0.30457
      17     H     0.42402  0.42402  0.00000  0.15197
      18     H     0.42180  0.42180  0.00000  0.15640
      19     C     3.24103  3.24103  0.00000 -0.48205
      20     H     0.42108  0.42108  0.00000  0.15783
      21     H     0.42373  0.42373  0.00000  0.15254
      22     H     0.42247  0.42247  0.00000  0.15507
      23     H     0.41954  0.41954  0.00000  0.16092
      24     H     0.42053  0.42053  0.00000  0.15894

   Total alpha = 33.00000, Total beta = 33.00000, Total charge =  0.00000
