                              Psi4 1.0.54 Driver

  ==> Input File <==

--------------------------------------------------------------------------
set {
	reference rhf
	basis cc-pvtz
}

set_num_threads( 4 )
memory 2 gb

molecule MOL {
0 1

H	 -3.034039	 -0.667848	 0.004703
O	 -2.240597	 -1.171748	 0.000934
C	 -1.159675	 -0.364500	 0.000370
C	 0.089172	 -0.799434	 0.394866
C	 -1.345296	 0.944578	 -0.416658
H	 0.234909	 -1.813263	 0.720398
C	 1.149526	 0.090057	 0.368736
H	 -2.329132	 1.251442	 -0.714711
C	 -0.286331	 1.829568	 -0.444340
H	 2.122046	 -0.243809	 0.677782
C	 0.972037	 1.391224	 -0.043900
C	 -0.483235	 3.246680	 -0.920434
H	 1.804545	 2.068908	 -0.055616
H	 0.036656	 3.947879	 -0.279454
H	 -1.530792	 3.515236	 -0.936216
H	 -0.092711	 3.369905	 -1.924899

	symmetry c1
}
set optking {
	frozen_dihedral = ("
		5 3 2 1
	")
}

ee,wfn = optimize('scf', return_wfn=True)
oeprop( wfn, 'DIPOLE', 'QUADRUPOLE', 'MULLIKEN_CHARGES')
f=open( 'psi4out.xyz', 'w' )
f.write( "16  " )
f.write( str(ee) + "\n" )
f.write( MOL.save_string_xyz() )
f.close()
--------------------------------------------------------------------------

    Molecular point group: c1
  Charge       = 0
  Multiplicity = 1
  Basis Set: CC-PVTZ
  Basis Set:
  @DF-RHF Final Energy:  -344.71824169543237
    Total Energy =                       -344.7182416954323685
    Molecular point group: c1
  Basis Set: CC-PVTZ
  Basis Set:
  Basis Set: CC-PVTZ
  Basis Set:
  @DF-RHF Final Energy:  -344.71993293247817
    Total Energy =                       -344.7199329324778319
  Basis Set: CC-PVTZ
  Basis Set:
  Basis Set: CC-PVTZ
  Basis Set:
  @DF-RHF Final Energy:  -344.72008004277620
    Total Energy =                       -344.7200800427762601
  Basis Set: CC-PVTZ
  Basis Set:
  Basis Set: CC-PVTZ
  Basis Set:
  @DF-RHF Final Energy:  -344.72009778179813
    Total Energy =                       -344.7200977817982448
  Basis Set: CC-PVTZ
  Basis Set:
  @DF-RHF Final Energy:  -344.72010350476597
    Total Energy =                       -344.7201035047664277
  @DF-RHF Final Energy:  -344.72010591599400
    Total Energy =                       -344.7201059159938836
  @DF-RHF Final Energy:  -344.72011127423241
    Total Energy =                       -344.7201112742324653
  @DF-RHF Final Energy:  -344.72011704051033
    Total Energy =                       -344.7201170405104449
  @DF-RHF Final Energy:  -344.72012298048497
    Total Energy =                       -344.7201229804849163
  @DF-RHF Final Energy:  -344.71985080094788
    Total Energy =                       -344.7198508009477678
  @DF-RHF Final Energy:  -344.72012530989076
    Total Energy =                       -344.7201253098904772
  @DF-RHF Final Energy:  -344.72013047317841
    Total Energy =                       -344.7201304731783580
  @DF-RHF Final Energy:  -344.71992869066645
    Total Energy =                       -344.7199286906665066
  @DF-RHF Final Energy:  -344.72013466156949
    Total Energy =                       -344.7201346615699435
  @DF-RHF Final Energy:  -344.72014075142550
    Total Energy =                       -344.7201407514257312
  @DF-RHF Final Energy:  -344.72013926785343
    Total Energy =                       -344.7201392678536536
  @DF-RHF Final Energy:  -344.72014715375383
    Total Energy =                       -344.7201471537537145
  @DF-RHF Final Energy:  -344.72017260029440
    Total Energy =                       -344.7201726002945747
  @DF-RHF Final Energy:  -344.72017569610983
    Total Energy =                       -344.7201756961095498
  @DF-RHF Final Energy:  -344.72017716627005
    Total Energy =                       -344.7201771662702185
  @DF-RHF Final Energy:  -344.72017875022340
    Total Energy =                       -344.7201787502235675
  @DF-RHF Final Energy:  -344.72018018773520
    Total Energy =                       -344.7201801877353091
  @DF-RHF Final Energy:  -344.72018127162238
    Total Energy =                       -344.7201812716224367
  @DF-RHF Final Energy:  -344.72018382676373
    Total Energy =                       -344.7201838267639005
  @DF-RHF Final Energy:  -344.72018847638492
    Total Energy =                       -344.7201884763851467
  @DF-RHF Final Energy:  -344.72018683254078
    Total Energy =                       -344.7201868325407759
  @DF-RHF Final Energy:  -344.72019253802512
    Total Energy =                       -344.7201925380251168
  @DF-RHF Final Energy:  -344.72019760863867
    Total Energy =                       -344.7201976086388413
  @DF-RHF Final Energy:  -344.72017988779078
    Total Energy =                       -344.7201798877906072
  Basis Set: CC-PVTZ
  Basis Set:
  @DF-RHF Final Energy:  -344.72020443153747
    Total Energy =                       -344.7202044315374678
  Basis Set: CC-PVTZ
  Basis Set:
  Basis Set: CC-PVTZ
  Basis Set:
  @DF-RHF Final Energy:  -344.72021805999674
    Total Energy =                       -344.7202180599970234
  Basis Set: CC-PVTZ
  Basis Set:
  Basis Set: CC-PVTZ
  Basis Set:
  @DF-RHF Final Energy:  -344.72021997567373
    Total Energy =                       -344.7202199756737855
  Basis Set: CC-PVTZ
  Basis Set:
  Charge       = 0
  Multiplicity = 1
  Basis Set: CC-PVTZ
  Basis Set:

    Orbital Energies (a.u.)
    -----------------------

    Doubly Occupied:

       1A    -20.581762     2A    -11.294684     3A    -11.242107
       4A    -11.230947     5A    -11.221612     6A    -11.219050
       7A    -11.215281     8A    -11.213678     9A     -1.412064
      10A     -1.154538    11A     -1.047680    12A     -1.006809
      13A     -0.940873    14A     -0.844550    15A     -0.802863
      16A     -0.732325    17A     -0.683627    18A     -0.651892
      19A     -0.605740    20A     -0.597054    21A     -0.580397
      22A     -0.570135    23A     -0.569758    24A     -0.535943
      25A     -0.506807    26A     -0.484777    27A     -0.472410
      28A     -0.333639    29A     -0.311757

  @DF-RHF Final Energy:  -344.72022045025324

   => Energetics <=

    Nuclear Repulsion Energy =            346.3853718522635745
    One-Electron Energy =               -1154.0816594704697309
    Two-Electron Energy =                 462.9760671679529764
    DFT Exchange-Correlation Energy =       0.0000000000000000
    Empirical Dispersion Energy =           0.0000000000000000
    PCM Polarization Energy =               0.0000000000000000
    EFP Energy =                            0.0000000000000000
    Total Energy =                       -344.7202204502531799
    Molecular point group: c1
  Basis Set: CC-PVTZ
  Basis Set:

  -Total Gradient:
     Atom            X                  Y                   Z
    ------   -----------------  -----------------  -----------------
       1       -0.000106552780     0.000037434614     0.001809054872
       2        0.000374345887    -0.000302791110    -0.003079279816
       3       -0.000701166083     0.000742228864     0.002865638977
       4       -0.000055628257    -0.000067330911    -0.000151342020
       5        0.000430123949    -0.000425487999    -0.001388687102
       6        0.000015471729    -0.000004360026    -0.000025269310
       7        0.000038367113     0.000025790912    -0.000005977620
       8        0.000005917453    -0.000007295097    -0.000028637351
       9        0.000002735328     0.000000971478     0.000024867651
      10        0.000000159378     0.000002233042     0.000003262329
      11       -0.000001900638     0.000001183986    -0.000014732650
      12       -0.000009466003    -0.000002647682    -0.000002794937
      13        0.000005065180    -0.000006576869    -0.000000981868
      14        0.000004445382     0.000009290613     0.000010901082
      15       -0.000010699342    -0.000002087095    -0.000001272846
      16        0.000008781701    -0.000000556721    -0.000014749389

  **** Optimization is complete! (in 33 steps) ****
    Final optimized geometry and variables:
    Molecular point group: c1

    Geometry (in Angstrom), charge = 0, multiplicity = 1:

    H           -2.533469789988    -1.462719173505     0.002947098685
    O           -1.698969920190    -1.891416666581     0.061865513035
    C           -0.695412264128    -0.987726935501     0.104364997158
    C            0.537231016298    -1.418729161325     0.568473351332
    C           -0.859776446796     0.310676540435    -0.332141837012
    H            0.649798645537    -2.432628307897     0.897535723809
    C            1.586106783117    -0.529224140695     0.595544959807
    H           -1.818185796312     0.626307893269    -0.706190388944
    C            0.198326369827     1.210841470902    -0.297004016911
    H            2.543519289341    -0.855380844755     0.955765272100
    C            1.425074130813     0.780409086998     0.170577194887
    C           -0.004083487808     2.625543530260    -0.778178826356
    H            2.255696971445     1.458921276785     0.203791314188
    H            0.890616580491     3.217057490586    -0.640922912780
    H           -0.811539384585     3.107844987082    -0.239355095967
    H           -0.258335090259     2.642844783972    -1.832103921257

  Mulliken Charges: (a.u.)
   Center  Symbol    Alpha    Beta     Spin     Total
       1     H     0.38651  0.38651  0.00000  0.22698
       2     O     4.17706  4.17706  0.00000 -0.35412
       3     C     2.84203  2.84203  0.00000  0.31594
       4     C     3.12378  3.12378  0.00000 -0.24756
       5     C     3.15160  3.15160  0.00000 -0.30321
       6     H     0.41927  0.41927  0.00000  0.16146
       7     C     3.04769  3.04769  0.00000 -0.09537
       8     H     0.43569  0.43569  0.00000  0.12862
       9     C     2.94661  2.94661  0.00000  0.10679
      10     H     0.42322  0.42322  0.00000  0.15355
      11     C     3.12535  3.12535  0.00000 -0.25070
      12     C     3.14958  3.14958  0.00000 -0.29915
      13     H     0.42661  0.42661  0.00000  0.14678
      14     H     0.44969  0.44969  0.00000  0.10062
      15     H     0.44806  0.44806  0.00000  0.10389
      16     H     0.44726  0.44726  0.00000  0.10548

   Total alpha = 29.00000, Total beta = 29.00000, Total charge =  0.00000

*** Psi4 exiting successfully. Buy a developer a beer!
