                              Psi4 1.0.54 Driver

  ==> Input File <==

--------------------------------------------------------------------------
set {
	reference rhf
	basis cc-pvtz
}

set_num_threads( 4 )
memory 2 gb

molecule MOL {
0 1

H	 -2.613419	 -1.573634	 -0.696314
N	 -1.696331	 -1.486277	 -0.313705
C	 -1.437386	 -0.123526	 0.112907
H	 -1.046677	 -1.751342	 -1.023414
C	 -0.041985	 -0.002107	 0.681027
H	 -1.548099	 0.608984	 -0.685664
H	 -2.144572	 0.136370	 0.892903
O	 0.881195	 -0.248324	 -0.336237
H	 0.106190	 0.997743	 1.086634
H	 0.087915	 -0.719957	 1.487715
C	 2.208068	 -0.234417	 0.074171
H	 2.725499	 -1.027054	 -0.446768
H	 2.688377	 0.712084	 -0.164856
H	 2.295137	 -0.403407	 1.144883

	symmetry c1
}
set optking {
	frozen_dihedral = ("
		5 8 11 13
	")
}

ee,wfn = optimize('scf', return_wfn=True)
oeprop( wfn, 'DIPOLE', 'QUADRUPOLE', 'MULLIKEN_CHARGES')
f=open( 'psi4out.xyz', 'w' )
f.write( "14  " )
f.write( str(ee) + "\n" )
f.write( MOL.save_string_xyz() )
f.close()
--------------------------------------------------------------------------

    Molecular point group: c1
  Charge       = 0
  Multiplicity = 1
  Basis Set: CC-PVTZ
  Basis Set:
  @DF-RHF Final Energy:  -248.22335235893468
    Total Energy =                       -248.2233523589345623
    Molecular point group: c1
  Basis Set: CC-PVTZ
  Basis Set:
  Basis Set: CC-PVTZ
  Basis Set:
  @DF-RHF Final Energy:  -248.22351639537777
    Total Energy =                       -248.2235163953777146
  Basis Set: CC-PVTZ
  Basis Set:
  Basis Set: CC-PVTZ
  Basis Set:
  @DF-RHF Final Energy:  -248.22355755268634
    Total Energy =                       -248.2235575526862590
  Basis Set: CC-PVTZ
  Basis Set:
  Charge       = 0
  Multiplicity = 1
  Basis Set: CC-PVTZ
  Basis Set:

    Orbital Energies (a.u.)
    -----------------------

    Doubly Occupied:

       1A    -20.548292     2A    -15.523164     3A    -11.264353
       4A    -11.263270     5A    -11.239499     6A     -1.381041
       7A     -1.175623     8A     -1.000573     9A     -0.907836
      10A     -0.815399    11A     -0.683912    12A     -0.674305
      13A     -0.646100    14A     -0.611061    15A     -0.608134
      16A     -0.540850    17A     -0.534257    18A     -0.497703
      19A     -0.473743    20A     -0.416073    21A     -0.383547

  @DF-RHF Final Energy:  -248.22355797373348

   => Energetics <=

    Nuclear Repulsion Energy =            194.4856767145957974
    One-Electron Energy =                -723.0410052500311622
    Two-Electron Energy =                 280.3317705617018305
    DFT Exchange-Correlation Energy =       0.0000000000000000
    Empirical Dispersion Energy =           0.0000000000000000
    PCM Polarization Energy =               0.0000000000000000
    EFP Energy =                            0.0000000000000000
    Total Energy =                       -248.2235579737335343
    Molecular point group: c1
  Basis Set: CC-PVTZ
  Basis Set:

  -Total Gradient:
     Atom            X                  Y                   Z
    ------   -----------------  -----------------  -----------------
       1        0.000006606530     0.000003769124    -0.000000704343
       2        0.000006215866     0.000010763121    -0.000014917340
       3       -0.000041881904    -0.000015864130     0.000078727568
       4       -0.000000774308    -0.000000708246    -0.000007359706
       5       -0.000148099458    -0.001933844545     0.000365377862
       6        0.000031006249    -0.000024513988     0.000019363597
       7       -0.000048714889     0.000002906353     0.000002812732
       8        0.000431452442     0.002593926752    -0.001200736812
       9        0.000004418933    -0.000012478537     0.000003522397
      10       -0.000000012584     0.000003166751    -0.000030427885
      11       -0.000908077312     0.000320646814     0.003048698411
      12        0.000007138209    -0.000004562613     0.000004605281
      13        0.000664878554    -0.000938333271    -0.002263242301
      14       -0.000004156329    -0.000004873585    -0.000005719461

  **** Optimization is complete! (in 4 steps) ****
    Final optimized geometry and variables:
    Molecular point group: c1

    Geometry (in Angstrom), charge = 0, multiplicity = 1:

    H           -2.592727435786    -1.162746635280    -0.744496208474
    N           -1.680332028819    -1.067553584160    -0.352703651477
    C           -1.438476446061     0.296635143380     0.079118405660
    H           -1.021317200381    -1.324496579889    -1.056683301679
    C           -0.049066727417     0.430407354899     0.659224259703
    H           -1.549602559085     1.029724921086    -0.718793241692
    H           -2.154592323595     0.548236909767     0.853830881349
    O            0.882785811151     0.185820782926    -0.351873857709
    H            0.083836456923     1.432375762526     1.064804176772
    H            0.078901557624    -0.285405270027     1.466900155457
    C            2.220478420106     0.201384287551     0.037116071038
    H            2.743895661418    -0.580209940519    -0.498743958660
    H            2.685345925582     1.149792184191    -0.215860116871
    H            2.335995830128     0.021962720600     1.100868833156

  Mulliken Charges: (a.u.)
   Center  Symbol    Alpha    Beta     Spin     Total
       1     H     0.43032  0.43032  0.00000  0.13935
       2     N     3.69425  3.69425  0.00000 -0.38850
       3     C     3.02352  3.02352  0.00000 -0.04703
       4     H     0.42224  0.42224  0.00000  0.15553
       5     C     2.96852  2.96852  0.00000  0.06297
       6     H     0.46471  0.46471  0.00000  0.07058
       7     H     0.45870  0.45870  0.00000  0.08260
       8     O     4.18347  4.18347  0.00000 -0.36694
       9     H     0.47059  0.47059  0.00000  0.05882
      10     H     0.46769  0.46769  0.00000  0.06462
      11     C     3.02851  3.02851  0.00000 -0.05702
      12     H     0.45288  0.45288  0.00000  0.09423
      13     H     0.46273  0.46273  0.00000  0.07454
      14     H     0.47187  0.47187  0.00000  0.05626

   Total alpha = 21.00000, Total beta = 21.00000, Total charge =  0.00000

*** Psi4 exiting successfully. Buy a developer a beer!
