                              Psi4 1.0.54 Driver

  ==> Input File <==

--------------------------------------------------------------------------
set {
	reference rhf
	basis cc-pvtz
}

set_num_threads( 4 )
memory 2 gb

molecule MOL {
0 1

H	 -3.034039	 -0.667848	 0.004703
O	 -2.240597	 -1.171748	 0.000934
C	 -1.159675	 -0.364500	 0.000370
C	 -0.031049	 -0.638210	 0.745823
C	 -1.218271	 0.774230	 -0.788245
H	 0.015745	 -1.519352	 1.359385
C	 1.037347	 0.240494	 0.694488
H	 -2.111033	 0.958956	 -1.353744
C	 -0.151045	 1.648141	 -0.840090
H	 1.916009	 0.032495	 1.275401
C	 0.985581	 1.373060	 -0.086168
C	 -0.205485	 2.874210	 -1.716124
H	 1.822007	 2.045486	 -0.112538
H	 0.192163	 3.739009	 -1.199576
H	 -1.219465	 3.097606	 -2.018916
H	 0.385739	 2.728769	 -2.613867

	symmetry c1
}
set optking {
	frozen_dihedral = ("
		5 3 2 1
	")
}

ee,wfn = optimize('scf', return_wfn=True)
oeprop( wfn, 'DIPOLE', 'QUADRUPOLE', 'MULLIKEN_CHARGES')
f=open( 'psi4out.xyz', 'w' )
f.write( "16  " )
f.write( str(ee) + "\n" )
f.write( MOL.save_string_xyz() )
f.close()
--------------------------------------------------------------------------

    Molecular point group: c1
  Charge       = 0
  Multiplicity = 1
  Basis Set: CC-PVTZ
  Basis Set:
  @DF-RHF Final Energy:  -344.71710690733602
    Total Energy =                       -344.7171069073362446
    Molecular point group: c1
  Basis Set: CC-PVTZ
  Basis Set:
  Basis Set: CC-PVTZ
  Basis Set:
  @DF-RHF Final Energy:  -344.71863525333544
    Total Energy =                       -344.7186352533351510
  Basis Set: CC-PVTZ
  Basis Set:
  Basis Set: CC-PVTZ
  Basis Set:
  @DF-RHF Final Energy:  -344.71874890016164
    Total Energy =                       -344.7187489001614153
  Basis Set: CC-PVTZ
  Basis Set:
  Basis Set: CC-PVTZ
  Basis Set:
  @DF-RHF Final Energy:  -344.71876074275048
    Total Energy =                       -344.7187607427505327
  Basis Set: CC-PVTZ
  Basis Set:
  Basis Set: CC-PVTZ
  Basis Set:
  @DF-RHF Final Energy:  -344.71876433972619
    Total Energy =                       -344.7187643397259080
  Basis Set: CC-PVTZ
  Basis Set:
  Charge       = 0
  Multiplicity = 1
  Basis Set: CC-PVTZ
  Basis Set:

    Orbital Energies (a.u.)
    -----------------------

    Doubly Occupied:

       1A    -20.577398     2A    -11.291690     3A    -11.241938
       4A    -11.230888     5A    -11.221758     6A    -11.219896
       7A    -11.215544     8A    -11.215144     9A     -1.406455
      10A     -1.154730    11A     -1.047479    12A     -1.006885
      13A     -0.940594    14A     -0.840871    15A     -0.803742
      16A     -0.730131    17A     -0.682138    18A     -0.653647
      19A     -0.613618    20A     -0.596199    21A     -0.579564
      22A     -0.570026    23A     -0.559995    24A     -0.531376
      25A     -0.505584    26A     -0.485106    27A     -0.471084
      28A     -0.334363    29A     -0.314256

  @DF-RHF Final Energy:  -344.71876514055253

   => Energetics <=

    Nuclear Repulsion Energy =            346.1871814011684023
    One-Electron Energy =               -1153.7276960712065375
    Two-Electron Energy =                 462.8217495294852597
    DFT Exchange-Correlation Energy =       0.0000000000000000
    Empirical Dispersion Energy =           0.0000000000000000
    PCM Polarization Energy =               0.0000000000000000
    EFP Energy =                            0.0000000000000000
    Total Energy =                       -344.7187651405529323
    Molecular point group: c1
  Basis Set: CC-PVTZ
  Basis Set:

  -Total Gradient:
     Atom            X                  Y                   Z
    ------   -----------------  -----------------  -----------------
       1        0.000012307224     0.000087382230     0.002641426049
       2        0.000422178203    -0.000630806702    -0.004077308671
       3       -0.001276434064     0.001523457956     0.002923589468
       4        0.000098367246     0.000036837814     0.000007373355
       5        0.000757747622    -0.000984102586    -0.001470625179
       6       -0.000025569428    -0.000012484306    -0.000006102887
       7       -0.000029396646    -0.000016930511     0.000020821177
       8        0.000016716887     0.000002331699     0.000003394328
       9        0.000026583988    -0.000008135410    -0.000039659652
      10       -0.000001645492     0.000001871237    -0.000000979647
      11       -0.000000054469    -0.000013264491    -0.000012941304
      12        0.000005674107    -0.000010124848     0.000009491796
      13       -0.000003838697     0.000008484029    -0.000011456863
      14       -0.000009737276     0.000013733869     0.000018347606
      15       -0.000010547069     0.000000144050    -0.000016958063
      16        0.000017647859     0.000001605966     0.000011588484

  **** Optimization is complete! (in 6 steps) ****
    Final optimized geometry and variables:
    Molecular point group: c1

    Geometry (in Angstrom), charge = 0, multiplicity = 1:

    H           -2.600967616004    -1.351630157587     0.290459400301
    O           -1.775745525601    -1.802136472796     0.301031169567
    C           -0.744962533666    -0.920501646524     0.267631608045
    C            0.383922847511    -1.208591225047     1.006409720726
    C           -0.790247888735     0.211108020824    -0.529176489159
    H            0.405421827727    -2.092434171250     1.612510309047
    C            1.460140837344    -0.344495718350     0.947280071489
    H           -1.670456781115     0.404929249329    -1.115082797019
    C            0.283558234563     1.083009604092    -0.580820716395
    H            2.340602675860    -0.560285343611     1.522550626973
    C            1.414759411603     0.794288169975     0.168752940872
    C            0.239423992564     2.306708751995    -1.461288168848
    H            2.258320650389     1.458029747639     0.141182118178
    H            0.651057902784     3.168211589748    -0.950326934345
    H           -0.773561021478     2.543532955507    -1.758345777259
    H            0.822131869841     2.151579350863    -2.362881331076

  Mulliken Charges: (a.u.)
   Center  Symbol    Alpha    Beta     Spin     Total
       1     H     0.38598  0.38598  0.00000  0.22804
       2     O     4.18260  4.18260  0.00000 -0.36520
       3     C     2.84940  2.84940  0.00000  0.30121
       4     C     3.12397  3.12397  0.00000 -0.24793
       5     C     3.15419  3.15419  0.00000 -0.30838
       6     H     0.41803  0.41803  0.00000  0.16394
       7     C     3.05215  3.05215  0.00000 -0.10430
       8     H     0.43003  0.43003  0.00000  0.13994
       9     C     2.94509  2.94509  0.00000  0.10982
      10     H     0.42282  0.42282  0.00000  0.15435
      11     C     3.11538  3.11538  0.00000 -0.23077
      12     C     3.14687  3.14687  0.00000 -0.29375
      13     H     0.42755  0.42755  0.00000  0.14490
      14     H     0.44761  0.44761  0.00000  0.10478
      15     H     0.45214  0.45214  0.00000  0.09572
      16     H     0.44619  0.44619  0.00000  0.10763

   Total alpha = 29.00000, Total beta = 29.00000, Total charge = -0.00000

*** Psi4 exiting successfully. Buy a developer a beer!
