  ==> Input File <==

--------------------------------------------------------------------------
set {
	reference rhf
	basis cc-pvtz
}

set_num_threads( 4 )
memory 2 gb

molecule MOL {
0 1

H	 0.799378	 1.874089	 0.480560
C	 1.395615	 0.989303	 0.288684
N	 0.526300	 -0.128137	 0.000000
H	 1.974244	 0.783643	 1.180273
H	 2.088555	 1.226639	 -0.521302
C	 -0.247113	 0.037112	 -1.209233
H	 1.058818	 -0.969361	 -0.049253
H	 -0.996493	 -0.743733	 -1.271440
H	 0.397975	 -0.057351	 -2.073512
H	 -0.763794	 0.997171	 -1.271673

	symmetry c1
}
set optking {
	frozen_dihedral = ("
		2 3 6 8
	")
}

ee = optimize('scf')
oeprop('DIPOLE', 'QUADRUPOLE', 'MULLIKEN_CHARGES')
f=open( 'psi4out.xyz', 'w' )
f.write( "10  " )
f.write( str(ee) + "\n" )
f.write( MOL.save_string_xyz() )
f.close()
--------------------------------------------------------------------------

    Molecular point group: c1
  Charge       = 0
  Multiplicity = 1
  Basis Set: CC-PVTZ
  Basis Set:
  @DF-RHF Final Energy:  -134.29111466677014
    Total Energy =                       -134.2911146667700564
    Molecular point group: c1
  Basis Set: CC-PVTZ
  Basis Set:
  Basis Set: CC-PVTZ
  Basis Set:
  @DF-RHF Final Energy:  -134.29247239711646
    Total Energy =                       -134.2924723971164553
  Basis Set: CC-PVTZ
  Basis Set:
  Basis Set: CC-PVTZ
  Basis Set:
  @DF-RHF Final Energy:  -134.29262165185159
    Total Energy =                       -134.2926216518514480
  Basis Set: CC-PVTZ
  Basis Set:
  Basis Set: CC-PVTZ
  Basis Set:
  @DF-RHF Final Energy:  -134.29262479614491
    Total Energy =                       -134.2926247961448496
  Basis Set: CC-PVTZ
  Basis Set:
  Charge       = 0
  Multiplicity = 1
  Basis Set: CC-PVTZ
  Basis Set:

    Orbital Energies (a.u.)
    -----------------------

    Doubly Occupied:

       1A    -15.531754     2A    -11.234306     3A    -11.234056
       4A     -1.200196     5A     -0.948139     6A     -0.855119
       7A     -0.662615     8A     -0.612332     9A     -0.592035
      10A     -0.539608    11A     -0.511558    12A     -0.507620
      13A     -0.362625

  @DF-RHF Final Energy:  -134.29262516244739

   => Energetics <=

    Nuclear Repulsion Energy =             84.7268330807468288
    One-Electron Energy =                -348.4549907538105344
    Two-Electron Energy =                 129.4355325106164969
    DFT Exchange-Correlation Energy =       0.0000000000000000
    Empirical Dispersion Energy =           0.0000000000000000
    PCM Polarization Energy =               0.0000000000000000
    EFP Energy =                            0.0000000000000000
    Total Energy =                       -134.2926251624472229
    Molecular point group: c1
  Basis Set: CC-PVTZ
  Basis Set:

  -Total Gradient:
     Atom            X                  Y                   Z
    ------   -----------------  -----------------  -----------------
       1       -0.000005551763    -0.000013013398    -0.000003901511
       2       -0.001183064957     0.000779569643     0.000852837893
       3        0.001342539811    -0.000755147713    -0.000915149128
       4        0.000000036527     0.000004088295     0.000002557308
       5       -0.000011906373    -0.000012878106     0.000002484071
       6        0.001256171946    -0.001328553840    -0.000986620325
       7       -0.000006549729     0.000021487373    -0.000013920627
       8       -0.001382718400     0.001302381794     0.001030800534
       9       -0.000001860115    -0.000004191935     0.000025634031
      10       -0.000007096947     0.000006257886     0.000005277753

  **** Optimization is complete! (in 5 steps) ****
    Final optimized geometry and variables:
    Molecular point group: c1

    Geometry (in Angstrom), charge = 0, multiplicity = 1:

    H            0.231052476457     1.582133225487     0.782475996299
    C            0.822984380845     0.690481022213     0.611923010754
    N           -0.051563984768    -0.423998536928     0.329025708516
    H            1.387047122464     0.492822955372     1.514652869751
    H            1.531431383799     0.911109942142    -0.189613909220
    C           -0.807006760991    -0.280991832591    -0.894303390736
    H            0.464165587555    -1.276676400180     0.320227866644
    H           -1.562011512330    -1.054671629551    -0.956935663022
    H           -0.197315210235    -0.308707806216    -1.798985963973
    H           -1.328164564490     0.669456269634    -0.881164829807

  Mulliken Charges: (a.u.)
   Center  Symbol    Alpha    Beta     Spin     Total
       1     H     0.45677  0.45677  0.00000  0.08646
       2     C     3.08025  3.08025  0.00000 -0.16049
       3     N     3.63028  3.63028  0.00000 -0.26057
       4     H     0.45255  0.45255  0.00000  0.09490
       5     H     0.47576  0.47576  0.00000  0.04848
       6     C     3.08203  3.08203  0.00000 -0.16406
       7     H     0.44010  0.44010  0.00000  0.11980
       8     H     0.45183  0.45183  0.00000  0.09635
       9     H     0.47215  0.47215  0.00000  0.05569
      10     H     0.45828  0.45828  0.00000  0.08343

   Total alpha = 13.00000, Total beta = 13.00000, Total charge = -0.00000
