  ==> Input File <==

--------------------------------------------------------------------------
set {
	reference rhf
	basis 6-31G*
}

set_num_threads( 1 )
memory 2 gb

molecule MOL {
0 1

O	 3.225979	 0.970355	 -0.599647
C	 2.701189	 0.057885	 -0.047330
C	 1.245376	 -0.013843	 0.345420
O	 3.347903	 -1.046386	 0.304773
C	 0.455112	 1.231400	 -0.050772
H	 0.838542	 -0.913825	 -0.103701
H	 1.208210	 -0.175333	 1.419774
C	 -0.998893	 1.219485	 0.433193
H	 0.482531	 1.345121	 -1.130325
H	 0.957290	 2.103070	 0.354729
C	 -1.883438	 0.145884	 -0.207175
H	 -1.431207	 2.195402	 0.224832
H	 -1.019646	 1.105716	 1.516076
C	 -2.415243	 0.555501	 -1.582093
H	 -1.313419	 -0.777044	 -0.302579
H	 -2.726204	 -0.081266	 0.441763
C	 -3.304707	 -0.507580	 -2.229274
H	 -1.576983	 0.771872	 -2.242198
H	 -2.976316	 1.484079	 -1.489154
C	 -3.828527	 -0.092325	 -3.603638
H	 -2.745910	 -1.436447	 -2.321980
H	 -4.145519	 -0.722047	 -1.572906
H	 -4.455369	 -0.865920	 -4.036337
H	 -3.011264	 0.095725	 -4.294226
H	 -4.421117	 0.815959	 -3.539363
C	 4.728119	 -1.109107	 -0.004993
H	 4.882018	 -1.033965	 -1.071845
H	 5.068212	 -2.067527	 0.355250
H	 5.265056	 -0.311663	 0.488280

	symmetry c1
}
set optking {
	frozen_dihedral = ("
		21 17 14 11,
		17 14 11 15,
		6 3 5 9,
		11 8 5 9,
		2 4 26 27,
		1 2 4 26,
		6 3 2 1
	")
}

ee = energy('scf')
oeprop('DIPOLE', 'QUADRUPOLE', 'MULLIKEN_CHARGES')
f=open( 'psi4out.xyz', 'w' )
f.write( "29  " )
f.write( str(ee) + "\n" )
f.write( MOL.save_string_xyz() )
f.close()
--------------------------------------------------------------------------

    Molecular point group: c1

    Geometry (in Angstrom), charge = 0, multiplicity = 1:

       Center              X                  Y                   Z               Mass
    ------------   -----------------  -----------------  -----------------  -----------------
           O          2.882412404023     0.855415983175     0.067622262529    15.994914619560
           C          2.357622404023    -0.057054016825     0.619939262529    12.000000000000
           C          0.901809404023    -0.128782016825     1.012689262529    12.000000000000
           O          3.004336404023    -1.161325016825     0.972042262529    15.994914619560
           C          0.111545404023     1.116460983175     0.616497262529    12.000000000000
           H          0.494975404023    -1.028764016825     0.563568262529     1.007825032070
           H          0.864643404023    -0.290272016825     2.087043262529     1.007825032070
           C         -1.342459595977     1.104545983175     1.100462262529    12.000000000000
           H          0.138964404023     1.230181983175    -0.463055737471     1.007825032070
           H          0.613723404023     1.988130983175     1.021998262529     1.007825032070
           C         -2.227004595977     0.030944983175     0.460094262529    12.000000000000
           H         -1.774773595977     2.080462983175     0.892101262529     1.007825032070
           H         -1.363212595977     0.990776983175     2.183345262529     1.007825032070
           C         -2.758809595977     0.440561983175    -0.914823737471    12.000000000000
           H         -1.656985595977    -0.891983016825     0.364690262529     1.007825032070
           H         -3.069770595977    -0.196205016825     1.109032262529     1.007825032070
           C         -3.648273595977    -0.622519016825    -1.562004737471    12.000000000000
           H         -1.920549595977     0.656932983175    -1.574928737471     1.007825032070
           H         -3.319882595977     1.369139983175    -0.821884737471     1.007825032070
           C         -4.172093595977    -0.207264016825    -2.936368737471    12.000000000000
           H         -3.089476595977    -1.551386016825    -1.654710737471     1.007825032070
           H         -4.489085595977    -0.836986016825    -0.905636737471     1.007825032070
           H         -4.798935595977    -0.980859016825    -3.369067737471     1.007825032070
           H         -3.354830595977    -0.019214016825    -3.626956737471     1.007825032070
           H         -4.764683595977     0.701019983175    -2.872093737471     1.007825032070
           C          4.384552404023    -1.224046016825     0.662276262529    12.000000000000
           H          4.538451404023    -1.148904016825    -0.404575737471     1.007825032070
           H          4.724645404023    -2.182466016825     1.022519262529     1.007825032070
           H          4.921489404023    -0.426602016825     1.155549262529     1.007825032070

  Charge       = 0
  Multiplicity = 1
  Basis Set: 6-31G*
  Basis Set:

    Orbital Energies (a.u.)
    -----------------------

    Doubly Occupied:

       1A    -20.603637     2A    -20.545411     3A    -11.372349
       4A    -11.280859     5A    -11.234995     6A    -11.219139
       7A    -11.217040     8A    -11.215388     9A    -11.215185
      10A    -11.213591    11A    -11.208467    12A     -1.469323
      13A     -1.362757    14A     -1.099240    15A     -1.065528
      16A     -1.019299    17A     -0.976294    18A     -0.928051
      19A     -0.865208    20A     -0.804201    21A     -0.784890
      22A     -0.760648    23A     -0.701577    24A     -0.683054
      25A     -0.671596    26A     -0.649613    27A     -0.630226
      28A     -0.605680    29A     -0.594561    30A     -0.575710
      31A     -0.563489    32A     -0.561067    33A     -0.531676
      34A     -0.526888    35A     -0.524076    36A     -0.510460
      37A     -0.491869    38A     -0.480083    39A     -0.472176
      40A     -0.458690    41A     -0.456629    42A     -0.453444
      43A     -0.439938    44A     -0.436943

  @DF-RHF Final Energy:  -501.04108695413834

   => Energetics <=

    Nuclear Repulsion Energy =            619.9940597175254879
    One-Electron Energy =               -1911.1083306754403566
    Two-Electron Energy =                 790.0731840037772145
    DFT Exchange-Correlation Energy =       0.0000000000000000
    Empirical Dispersion Energy =           0.0000000000000000
    PCM Polarization Energy =               0.0000000000000000
    EFP Energy =                            0.0000000000000000
    Total Energy =                       -501.0410869541376542

  Mulliken Charges: (a.u.)
   Center  Symbol    Alpha    Beta     Spin     Total
       1     O     4.28581  4.28581  0.00000 -0.57163
       2     C     2.60496  2.60496  0.00000  0.79008
       3     C     3.20932  3.20932  0.00000 -0.41863
       4     O     4.30734  4.30734  0.00000 -0.61467
       5     C     3.15533  3.15533  0.00000 -0.31066
       6     H     0.39954  0.39954  0.00000  0.20093
       7     H     0.40088  0.40088  0.00000  0.19824
       8     C     3.15980  3.15980  0.00000 -0.31959
       9     H     0.41206  0.41206  0.00000  0.17589
      10     H     0.40826  0.40826  0.00000  0.18348
      11     C     3.15652  3.15652  0.00000 -0.31303
      12     H     0.41776  0.41776  0.00000  0.16448
      13     H     0.42172  0.42172  0.00000  0.15656
      14     C     3.15235  3.15235  0.00000 -0.30470
      15     H     0.42416  0.42416  0.00000  0.15168
      16     H     0.41989  0.41989  0.00000  0.16022
      17     C     3.15109  3.15109  0.00000 -0.30218
      18     H     0.42246  0.42246  0.00000  0.15508
      19     H     0.42307  0.42307  0.00000  0.15385
      20     C     3.23931  3.23931  0.00000 -0.47861
      21     H     0.42371  0.42371  0.00000  0.15259
      22     H     0.42316  0.42316  0.00000  0.15367
      23     H     0.41943  0.41943  0.00000  0.16113
      24     H     0.42141  0.42141  0.00000  0.15718
      25     H     0.42162  0.42162  0.00000  0.15676
      26     C     3.09242  3.09242  0.00000 -0.18485
      27     H     0.40911  0.40911  0.00000  0.18179
      28     H     0.40846  0.40846  0.00000  0.18309
      29     H     0.40907  0.40907  0.00000  0.18187

   Total alpha = 44.00000, Total beta = 44.00000, Total charge =  0.00000
