  ==> Input File <==

--------------------------------------------------------------------------
set {
	reference rhf
	basis cc-pvtz
}

set_num_threads( 4 )
memory 2 gb

molecule MOL {
0 1

H	 -3.841268	 1.311956	 -0.643478
O	 -3.133509	 0.738801	 -0.873186
C	 -2.302264	 0.528872	 0.237390
C	 -1.175688	 -0.398187	 -0.171891
H	 -1.894685	 1.473362	 0.591779
H	 -2.865902	 0.087520	 1.056750
C	 0.196029	 0.106276	 0.266738
H	 -1.201873	 -0.515469	 -1.250677
H	 -1.365975	 -1.378728	 0.252664
C	 1.330220	 -0.826136	 -0.155230
H	 0.359542	 1.097229	 -0.145561
H	 0.212134	 0.218135	 1.348778
C	 2.719700	 -0.407669	 0.328325
H	 1.339388	 -0.911200	 -1.239363
H	 1.119001	 -1.821953	 0.224128
C	 3.241564	 0.893452	 -0.276737
H	 3.418299	 -1.204729	 0.093035
H	 2.711776	 -0.323368	 1.411960
H	 3.254204	 0.841071	 -1.360784
H	 2.634460	 1.745075	 0.005842
H	 4.254264	 1.092401	 0.054971

	symmetry c1
}
set optking {
	frozen_dihedral = ("
		2 3 4 8
	")
}

ee = optimize('scf')
oeprop('DIPOLE', 'QUADRUPOLE', 'MULLIKEN_CHARGES')
f=open( 'psi4out.xyz', 'w' )
f.write( "21  " )
f.write( str(ee) + "\n" )
f.write( MOL.save_string_xyz() )
f.close()
--------------------------------------------------------------------------

    Molecular point group: c1
  Charge       = 0
  Multiplicity = 1
  Basis Set: CC-PVTZ
  Basis Set:
  @DF-RHF Final Energy:  -310.32748634403765
    Total Energy =                       -310.3274863440374247
    Molecular point group: c1
  Basis Set: CC-PVTZ
  Basis Set:
  Basis Set: CC-PVTZ
  Basis Set:
  @DF-RHF Final Energy:  -310.32782868776991
    Total Energy =                       -310.3278286877698520
  Basis Set: CC-PVTZ
  Basis Set:
  Basis Set: CC-PVTZ
  Basis Set:
  @DF-RHF Final Energy:  -310.32792248680397
    Total Energy =                       -310.3279224868040274
  Basis Set: CC-PVTZ
  Basis Set:
  Basis Set: CC-PVTZ
  Basis Set:
  @DF-RHF Final Energy:  -310.32792412545234
    Total Energy =                       -310.3279241254521139
  Basis Set: CC-PVTZ
  Basis Set:
  Charge       = 0
  Multiplicity = 1
  Basis Set: CC-PVTZ
  Basis Set:

    Orbital Energies (a.u.)
    -----------------------

    Doubly Occupied:

       1A    -20.545174     2A    -11.265250     3A    -11.212482
       4A    -11.212058     5A    -11.210265     6A    -11.208768
       7A    -11.205070     8A     -1.362290     9A     -1.085921
      10A     -1.032089    11A     -0.954088    12A     -0.876613
      13A     -0.808012    14A     -0.778560    15A     -0.702404
      16A     -0.649768    17A     -0.623118    18A     -0.607458
      19A     -0.590881    20A     -0.565588    21A     -0.541373
      22A     -0.520582    23A     -0.508002    24A     -0.493136
      25A     -0.477785    26A     -0.459417    27A     -0.456135
      28A     -0.445398    29A     -0.430296

  @DF-RHF Final Energy:  -310.32792463639896

   => Energetics <=

    Nuclear Repulsion Energy =            313.2708185956261104
    One-Electron Energy =               -1041.5415213584819867
    Two-Electron Energy =                 417.9427781264568580
    DFT Exchange-Correlation Energy =       0.0000000000000000
    Empirical Dispersion Energy =           0.0000000000000000
    PCM Polarization Energy =               0.0000000000000000
    EFP Energy =                            0.0000000000000000
    Total Energy =                       -310.3279246363990183
    Molecular point group: c1
  Basis Set: CC-PVTZ
  Basis Set:

  -Total Gradient:
     Atom            X                  Y                   Z
    ------   -----------------  -----------------  -----------------
       1       -0.000060294063     0.000026409370    -0.000027991510
       2        0.001195034264     0.001718518773    -0.000447408103
       3       -0.001762678388    -0.002796491616     0.000780064038
       4        0.002418480336     0.003250718828    -0.000467292944
       5       -0.000004238872     0.000009256796    -0.000017286168
       6       -0.000042561822     0.000000348802    -0.000060217181
       7       -0.000038585567     0.000016967300    -0.000037701789
       8       -0.001663026225    -0.002223270424     0.000226543385
       9       -0.000048839858     0.000008563498     0.000037845746
      10       -0.000033987672    -0.000005181790     0.000033677017
      11        0.000027543451     0.000030741592     0.000009460510
      12       -0.000015496318    -0.000018102256    -0.000025473503
      13        0.000044472388    -0.000037346212    -0.000036792832
      14        0.000006465452    -0.000008467729     0.000017274528
      15       -0.000014904567     0.000008694247     0.000004162267
      16       -0.000012657867     0.000005570848     0.000011295792
      17        0.000023665245     0.000010344428    -0.000002920840
      18        0.000005098395    -0.000011356445    -0.000005962567
      19        0.000005574810    -0.000007210951     0.000008711931
      20       -0.000024132840     0.000013018271    -0.000006776136
      21       -0.000004930288     0.000008274668     0.000006788362

  **** Optimization is complete! (in 5 steps) ****
    Final optimized geometry and variables:
    Molecular point group: c1

    Geometry (in Angstrom), charge = 0, multiplicity = 1:

    H           -3.961258908178     1.145338660846    -0.499103837524
    O           -3.223156213839     0.624507738722    -0.757305212043
    C           -2.378777119195     0.407753224353     0.345135708064
    C           -1.225935490258    -0.502988872185    -0.082572638303
    H           -1.987495078217     1.358759032876     0.698097946753
    H           -2.934293139880    -0.037932054130     1.165270801278
    C            0.146461903700    -0.008340620768     0.364037258109
    H           -1.265722923065    -0.595848530258    -1.161281865463
    H           -1.390725533674    -1.503320995350     0.305882506425
    C            1.277020918457    -0.950457827846    -0.042939425326
    H            0.314279362962     0.979450034477    -0.052923744371
    H            0.154234802678     0.110337845618     1.445947752898
    C            2.666920320095    -0.534262982177     0.441837109204
    H            1.289570959886    -1.046372754400    -1.126168846351
    H            1.059623473432    -1.941679546689     0.345398851725
    C            3.196535896287     0.759128949431    -0.172814748868
    H            3.362999191476    -1.336285247965     0.216091992661
    H            2.655535645961    -0.440329886139     1.524679929431
    H            3.214274836043     0.696261215672    -1.256147381067
    H            2.590896689012     1.615417767553     0.098304774347
    H            4.208269456320     0.957576314539     0.162180864670

  Mulliken Charges: (a.u.)
   Center  Symbol    Alpha    Beta     Spin     Total
       1     H     0.39577  0.39577  0.00000  0.20846
       2     O     4.19662  4.19662  0.00000 -0.39324
       3     C     2.96496  2.96496  0.00000  0.07008
       4     C     3.08986  3.08986  0.00000 -0.17972
       5     H     0.47600  0.47600  0.00000  0.04800
       6     H     0.47225  0.47225  0.00000  0.05551
       7     C     3.10116  3.10116  0.00000 -0.20231
       8     H     0.44415  0.44415  0.00000  0.11169
       9     H     0.45431  0.45431  0.00000  0.09138
      10     C     3.09590  3.09590  0.00000 -0.19181
      11     H     0.44986  0.44986  0.00000  0.10028
      12     H     0.45553  0.45553  0.00000  0.08894
      13     C     3.08995  3.08995  0.00000 -0.17991
      14     H     0.45255  0.45255  0.00000  0.09489
      15     H     0.44970  0.44970  0.00000  0.10060
      16     C     3.15200  3.15200  0.00000 -0.30400
      17     H     0.44865  0.44865  0.00000  0.10269
      18     H     0.45543  0.45543  0.00000  0.08915
      19     H     0.45439  0.45439  0.00000  0.09122
      20     H     0.45410  0.45410  0.00000  0.09180
      21     H     0.44686  0.44686  0.00000  0.10628

   Total alpha = 29.00000, Total beta = 29.00000, Total charge = -0.00000
