                              Psi4 1.0.54 Driver

  ==> Input File <==

--------------------------------------------------------------------------
set {
	reference rhf
	basis cc-pvtz
}

set_num_threads( 4 )
memory 2 gb

molecule MOL {
0 1

O	 -2.217394	 -0.704189	 -1.037169
C	 -1.804789	 0.185296	 -0.374088
C	 -2.531473	 1.476952	 -0.125073
O	 -0.637375	 0.157174	 0.243149
H	 -1.930661	 2.305695	 -0.477108
H	 -3.479750	 1.462460	 -0.637126
H	 -2.683465	 1.609681	 0.938342
C	 0.162530	 -1.009518	 0.097799
C	 1.587210	 -0.664190	 0.477086
H	 0.096803	 -1.356267	 -0.924704
H	 -0.233803	 -1.785900	 0.736810
C	 2.256770	 0.342732	 -0.454344
H	 2.154716	 -1.590834	 0.479041
H	 1.598751	 -0.289614	 1.496104
C	 3.698146	 0.643205	 -0.057145
H	 2.235038	 -0.042575	 -1.470299
H	 1.683491	 1.262594	 -0.461300
H	 4.150202	 1.356548	 -0.736242
H	 4.305463	 -0.255904	 -0.069842
H	 3.749130	 1.061068	 0.942759

	symmetry c1
}
set optking {
	frozen_dihedral = ("
		2 4 8 10
	")
}

ee,wfn = optimize('scf', return_wfn=True)
oeprop( wfn, 'DIPOLE', 'QUADRUPOLE', 'MULLIKEN_CHARGES')
f=open( 'psi4out.xyz', 'w' )
f.write( "20  " )
f.write( str(ee) + "\n" )
f.write( MOL.save_string_xyz() )
f.close()
--------------------------------------------------------------------------

    Molecular point group: c1
  Charge       = 0
  Multiplicity = 1
  Basis Set: CC-PVTZ
  Basis Set:
  @DF-RHF Final Energy:  -384.08701907202618
    Total Energy =                       -384.0870190720263508
    Molecular point group: c1
  Basis Set: CC-PVTZ
  Basis Set:
  Basis Set: CC-PVTZ
  Basis Set:
  @DF-RHF Final Energy:  -384.08706223582402
    Total Energy =                       -384.0870622358240780
  Basis Set: CC-PVTZ
  Basis Set:
  Basis Set: CC-PVTZ
  Basis Set:
  @DF-RHF Final Energy:  -384.08708167043017
    Total Energy =                       -384.0870816704301660
  Basis Set: CC-PVTZ
  Basis Set:
  Basis Set: CC-PVTZ
  Basis Set:
  @DF-RHF Final Energy:  -384.08709327349271
    Total Energy =                       -384.0870932734928829
  Basis Set: CC-PVTZ
  Basis Set:
  Basis Set: CC-PVTZ
  Basis Set:
  @DF-RHF Final Energy:  -384.08710342341686
    Total Energy =                       -384.0871034234168064
  Basis Set: CC-PVTZ
  Basis Set:
  Charge       = 0
  Multiplicity = 1
  Basis Set: CC-PVTZ
  Basis Set:

    Orbital Energies (a.u.)
    -----------------------

    Doubly Occupied:

       1A    -20.594123     2A    -20.532477     3A    -11.366939
       4A    -11.279869     5A    -11.231525     6A    -11.223676
       7A    -11.219151     8A    -11.211784     9A     -1.470375
      10A     -1.365286    11A     -1.087237    12A     -1.029422
      13A     -0.982338    14A     -0.882220    15A     -0.811207
      16A     -0.777744    17A     -0.693298    18A     -0.684290
      19A     -0.670526    20A     -0.633156    21A     -0.602560
      22A     -0.594710    23A     -0.573553    24A     -0.550676
      25A     -0.543977    26A     -0.534934    27A     -0.511301
      28A     -0.482407    29A     -0.480403    30A     -0.475363
      31A     -0.449659    32A     -0.441350

  @DF-RHF Final Energy:  -384.08710401784788

   => Energetics <=

    Nuclear Repulsion Energy =            386.4854618569396507
    One-Electron Energy =               -1289.1700602812477428
    Two-Electron Energy =                 518.5974944064603278
    DFT Exchange-Correlation Energy =       0.0000000000000000
    Empirical Dispersion Energy =           0.0000000000000000
    PCM Polarization Energy =               0.0000000000000000
    EFP Energy =                            0.0000000000000000
    Total Energy =                       -384.0871040178477642
    Molecular point group: c1
  Basis Set: CC-PVTZ
  Basis Set:

  -Total Gradient:
     Atom            X                  Y                   Z
    ------   -----------------  -----------------  -----------------
       1       -0.000047554481    -0.000034506942    -0.000016819863
       2        0.000568314941     0.000530616146    -0.001004252147
       3        0.000003569896    -0.000001424804    -0.000020314054
       4       -0.001033232457    -0.000887973784     0.001559952568
       5        0.000001961439    -0.000004776195     0.000010713240
       6       -0.000000130138    -0.000001621608     0.000003650317
       7       -0.000008515644    -0.000006149843     0.000005882277
       8        0.001578999880     0.001217728233    -0.000844427591
       9        0.000008518960    -0.000005941621    -0.000017298261
      10       -0.001090119511    -0.000819246866     0.000332889880
      11        0.000005147783     0.000021053148    -0.000012062802
      12        0.000004888022    -0.000021830701    -0.000002197517
      13        0.000011130767     0.000001877979    -0.000003232981
      14        0.000002727342    -0.000003120970     0.000005348239
      15       -0.000003473571     0.000014853317     0.000009061338
      16        0.000000688479    -0.000004840347    -0.000008042974
      17       -0.000002360246     0.000004845374    -0.000004917495
      18       -0.000003263327     0.000005168781     0.000001802543
      19       -0.000002170773    -0.000005271157    -0.000005831823
      20        0.000004872637     0.000000561862     0.000010097104

  **** Optimization is complete! (in 6 steps) ****
    Final optimized geometry and variables:
    Molecular point group: c1

    Geometry (in Angstrom), charge = 0, multiplicity = 1:

    O           -2.315870235913    -0.747547099865    -0.843463885348
    C           -1.869404347124     0.142270827134    -0.203263042661
    C           -2.562812950746     1.453300720038     0.038518477848
    O           -0.691443335799     0.100308444824     0.393181680777
    H           -1.953468333239     2.262555908638    -0.342835442646
    H           -3.523268521168     1.449691794187    -0.450517049321
    H           -2.686200473471     1.607995053065     1.102601749938
    C            0.105834416542    -1.067356508390     0.236897503249
    C            1.532693979374    -0.734929056688     0.619376514040
    H            0.029192719186    -1.416883252892    -0.781936524779
    H           -0.294924439109    -1.841006074514     0.878904974579
    C            2.214454059405     0.259951865305    -0.315840319243
    H            2.090740678208    -1.667227667765     0.627889059527
    H            1.545557088931    -0.354951417319     1.636308402102
    C            3.653627903534     0.558107366463     0.090641860190
    H            2.199194782190    -0.134205062276    -1.328397156549
    H            1.645916727885     1.182682294477    -0.335159603954
    H            4.113684057120     1.264670255024    -0.590138011557
    H            4.257366918787    -0.343422206185     0.089217974887
    H            3.698186047950     0.983064792509     1.087843727485

  Mulliken Charges: (a.u.)
   Center  Symbol    Alpha    Beta     Spin     Total
       1     O     4.19753  4.19753  0.00000 -0.39506
       2     C     2.80669  2.80669  0.00000  0.38661
       3     C     3.13896  3.13896  0.00000 -0.27792
       4     O     4.15558  4.15558  0.00000 -0.31116
       5     H     0.44649  0.44649  0.00000  0.10701
       6     H     0.43782  0.43782  0.00000  0.12436
       7     H     0.44551  0.44551  0.00000  0.10898
       8     C     2.99606  2.99606  0.00000  0.00788
       9     C     3.08320  3.08320  0.00000 -0.16640
      10     H     0.44577  0.44577  0.00000  0.10846
      11     H     0.44676  0.44676  0.00000  0.10647
      12     C     3.08678  3.08678  0.00000 -0.17357
      13     H     0.45153  0.45153  0.00000  0.09694
      14     H     0.45199  0.45199  0.00000  0.09603
      15     C     3.15016  3.15016  0.00000 -0.30031
      16     H     0.45405  0.45405  0.00000  0.09190
      17     H     0.44824  0.44824  0.00000  0.10351
      18     H     0.44725  0.44725  0.00000  0.10550
      19     H     0.45531  0.45531  0.00000  0.08937
      20     H     0.45430  0.45430  0.00000  0.09139

   Total alpha = 32.00000, Total beta = 32.00000, Total charge =  0.00000

*** Psi4 exiting successfully. Buy a developer a beer!
