  ==> Input File <==

--------------------------------------------------------------------------
set {
	reference rhf
	basis cc-pvtz
}

set_num_threads( 4 )
memory 2 gb

molecule MOL {
0 1

H	 -2.327273	 -0.331461	 -0.361935
O	 -1.432053	 -0.565244	 -0.200812
C	 -0.727158	 0.534527	 0.310686
C	 0.680222	 0.664433	 -0.252229
H	 -1.306802	 1.408001	 0.044211
H	 -0.690821	 0.490158	 1.397609
C	 1.605391	 -0.489360	 0.123098
H	 0.615089	 0.745647	 -1.332226
H	 1.101414	 1.597893	 0.110950
H	 1.247627	 -1.432485	 -0.275204
H	 2.601435	 -0.332816	 -0.273062
H	 1.691776	 -0.589902	 1.200774

	symmetry c1
}
set optking {
	frozen_dihedral = ("
		1 2 3 4
	")
}

ee = optimize('scf')
oeprop('DIPOLE', 'QUADRUPOLE', 'MULLIKEN_CHARGES')
f=open( 'psi4out.xyz', 'w' )
f.write( "12  " )
f.write( str(ee) + "\n" )
f.write( MOL.save_string_xyz() )
f.close()
--------------------------------------------------------------------------

    Molecular point group: c1
  Charge       = 0
  Multiplicity = 1
  Basis Set: CC-PVTZ
  Basis Set:
  @DF-RHF Final Energy:  -193.18846080354672
    Total Energy =                       -193.1884608035468602
    Molecular point group: c1
  Basis Set: CC-PVTZ
  Basis Set:
  Basis Set: CC-PVTZ
  Basis Set:
  @DF-RHF Final Energy:  -193.18962732967810
    Total Energy =                       -193.1896273296780180
  Basis Set: CC-PVTZ
  Basis Set:
  Basis Set: CC-PVTZ
  Basis Set:
  @DF-RHF Final Energy:  -193.18995550847683
    Total Energy =                       -193.1899555084769702
  Basis Set: CC-PVTZ
  Basis Set:
  Basis Set: CC-PVTZ
  Basis Set:
  @DF-RHF Final Energy:  -193.18995974614469
    Total Energy =                       -193.1899597461447513
  Basis Set: CC-PVTZ
  Basis Set:
  Charge       = 0
  Multiplicity = 1
  Basis Set: CC-PVTZ
  Basis Set:

    Orbital Energies (a.u.)
    -----------------------

    Doubly Occupied:

       1A    -20.545451     2A    -11.266422     3A    -11.212716
       4A    -11.201106     5A     -1.363301     6A     -1.047757
       7A     -0.919149     8A     -0.801064     9A     -0.705915
      10A     -0.643233    11A     -0.592145    12A     -0.572468
      13A     -0.541775    14A     -0.503357    15A     -0.480597
      16A     -0.465728    17A     -0.433729

  @DF-RHF Final Energy:  -193.18996032136087

   => Energetics <=

    Nuclear Repulsion Energy =            133.3040012637608527
    One-Electron Energy =                -526.3960952096794017
    Two-Electron Energy =                 199.9021336245576492
    DFT Exchange-Correlation Energy =       0.0000000000000000
    Empirical Dispersion Energy =           0.0000000000000000
    PCM Polarization Energy =               0.0000000000000000
    EFP Energy =                            0.0000000000000000
    Total Energy =                       -193.1899603213609282
    Molecular point group: c1
  Basis Set: CC-PVTZ
  Basis Set:

  -Total Gradient:
     Atom            X                  Y                   Z
    ------   -----------------  -----------------  -----------------
       1        0.000356561756     0.000371266734    -0.001279803115
       2       -0.000548032509    -0.000264189424     0.001341453351
       3        0.000485218009    -0.000587300031     0.000568039587
       4       -0.000290708824     0.000442674809    -0.000631265976
       5        0.000009686651     0.000008601438    -0.000002137428
       6        0.000019178179     0.000004196646    -0.000005203927
       7       -0.000013109605     0.000010981930     0.000001849250
       8       -0.000014539842    -0.000001382485     0.000003311973
       9        0.000002842303     0.000017005130    -0.000003595815
      10       -0.000001222270    -0.000003041520    -0.000000993378
      11       -0.000011560983     0.000010243488     0.000002900845
      12        0.000005687136    -0.000009056716     0.000005444633

  **** Optimization is complete! (in 5 steps) ****
    Final optimized geometry and variables:
    Molecular point group: c1

    Geometry (in Angstrom), charge = 0, multiplicity = 1:

    H           -2.248451272909    -0.426923348688    -0.388482808748
    O           -1.349437551465    -0.606613937933    -0.191970098900
    C           -0.719902355049     0.541150513259     0.322713336522
    C            0.684307031917     0.662293845430    -0.240173811747
    H           -1.287310811259     1.431121614574     0.067461947351
    H           -0.682835061807     0.478672456641     1.407549243717
    C            1.585585452802    -0.512052346228     0.126368990798
    H            0.616650764268     0.751625526564    -1.319564333461
    H            1.117448434983     1.587958911090     0.129158829623
    H            1.173799087243    -1.443612846305    -0.238642969419
    H            2.573968432808    -0.388433973718    -0.300897126871
    H            1.697816695734    -0.595291181914     1.202684091127

  Mulliken Charges: (a.u.)
   Center  Symbol    Alpha    Beta     Spin     Total
       1     H     0.39180  0.39180  0.00000  0.21639
       2     O     4.20369  4.20369  0.00000 -0.40737
       3     C     2.96937  2.96937  0.00000  0.06125
       4     C     3.07741  3.07741  0.00000 -0.15482
       5     H     0.46760  0.46760  0.00000  0.06480
       6     H     0.47247  0.47247  0.00000  0.05506
       7     C     3.14937  3.14937  0.00000 -0.29874
       8     H     0.45646  0.45646  0.00000  0.08708
       9     H     0.45739  0.45739  0.00000  0.08522
      10     H     0.44526  0.44526  0.00000  0.10947
      11     H     0.45104  0.45104  0.00000  0.09791
      12     H     0.45813  0.45813  0.00000  0.08375

   Total alpha = 17.00000, Total beta = 17.00000, Total charge =  0.00000
