  ==> Input File <==

--------------------------------------------------------------------------
set {
	reference rhf
	basis cc-pvtz
}

set_num_threads( 4 )
memory 2 gb

molecule MOL {
0 1

H	 -3.095538	 1.904914	 -0.182623
O	 -2.649335	 2.062816	 0.630041
C	 -1.272137	 1.961485	 0.438516
C	 -0.793473	 0.591216	 0.050087
H	 -0.810214	 2.248126	 1.375941
H	 -0.930523	 2.677416	 -0.306764
C	 -1.534243	 -0.493009	 -0.013340
H	 0.255810	 0.533112	 -0.188401
H	 -1.101195	 -1.466332	 -0.144046
H	 -2.604242	 -0.437780	 0.050785

	symmetry c1
}
set optking {
	frozen_dihedral = ("
		3 4 7 9
	")
}

ee = optimize('scf')
oeprop('DIPOLE', 'QUADRUPOLE', 'MULLIKEN_CHARGES')
f=open( 'psi4out.xyz', 'w' )
f.write( "10  " )
f.write( str(ee) + "\n" )
f.write( MOL.save_string_xyz() )
f.close()
--------------------------------------------------------------------------

    Molecular point group: c1
  Charge       = 0
  Multiplicity = 1
  Basis Set: CC-PVTZ
  Basis Set:
  @DF-RHF Final Energy:  -191.99599977154719
    Total Energy =                       -191.9959997715471332
    Molecular point group: c1
  Basis Set: CC-PVTZ
  Basis Set:
  Basis Set: CC-PVTZ
  Basis Set:
  @DF-RHF Final Energy:  -191.99765909648914
    Total Energy =                       -191.9976590964891727
  Basis Set: CC-PVTZ
  Basis Set:
  Basis Set: CC-PVTZ
  Basis Set:
  @DF-RHF Final Energy:  -191.99785732447776
    Total Energy =                       -191.9978573244777067
  Basis Set: CC-PVTZ
  Basis Set:
  Basis Set: CC-PVTZ
  Basis Set:
  @DF-RHF Final Energy:  -191.99786020992116
    Total Energy =                       -191.9978602099211287
  Basis Set: CC-PVTZ
  Basis Set:
  Charge       = 0
  Multiplicity = 1
  Basis Set: CC-PVTZ
  Basis Set:

    Orbital Energies (a.u.)
    -----------------------

    Doubly Occupied:

       1A    -20.554594     2A    -11.278380     3A    -11.230106
       4A    -11.216245     5A     -1.374858     6A     -1.062150
       7A     -0.932033     8A     -0.771588     9A     -0.692115
      10A     -0.664937    11A     -0.621056    12A     -0.574210
      13A     -0.541163    14A     -0.495512    15A     -0.452924
      16A     -0.368300

  @DF-RHF Final Energy:  -191.99786038279157

   => Energetics <=

    Nuclear Repulsion Energy =            119.5012012422362488
    One-Electron Energy =                -497.3377838349258582
    Two-Electron Energy =                 185.8387222098980089
    DFT Exchange-Correlation Energy =       0.0000000000000000
    Empirical Dispersion Energy =           0.0000000000000000
    PCM Polarization Energy =               0.0000000000000000
    EFP Energy =                            0.0000000000000000
    Total Energy =                       -191.9978603827916288
    Molecular point group: c1
  Basis Set: CC-PVTZ
  Basis Set:

  -Total Gradient:
     Atom            X                  Y                   Z
    ------   -----------------  -----------------  -----------------
       1        0.000003396783     0.000006680996     0.000008262571
       2        0.000001818499    -0.000019560647     0.000006124215
       3        0.001167343975    -0.000975863674     0.004563891689
       4       -0.001671260818     0.001333163984    -0.004791527261
       5       -0.000002871741    -0.000021776527    -0.000010200524
       6        0.000023174856     0.000011542402    -0.000004553577
       7       -0.000194649223     0.000399207609    -0.006238047515
       8       -0.000008202885     0.000014956133    -0.000061601263
       9        0.000673797047    -0.000720946135     0.006473132649
      10        0.000007453507    -0.000027404140     0.000054519016

  **** Optimization is complete! (in 5 steps) ****
    Final optimized geometry and variables:
    Molecular point group: c1

    Geometry (in Angstrom), charge = 0, multiplicity = 1:

    H           -1.465272432279     0.863494189386    -0.493130996132
    O           -1.034676292598     0.976724192382     0.335176851609
    C            0.345488919356     0.868704074429     0.167587232956
    C            0.821358420991    -0.494738226696    -0.248039525338
    H            0.791437569455     1.109036244510     1.125347408008
    H            0.708767417615     1.612529902114    -0.539156564693
    C            0.087518439490    -1.584581830858    -0.293344340009
    H            1.879475673105    -0.558648138346    -0.442672650476
    H            0.533746452574    -2.548623499907    -0.447245875733
    H           -0.962609518061    -1.564513309335    -0.071908723436

  Mulliken Charges: (a.u.)
   Center  Symbol    Alpha    Beta     Spin     Total
       1     H     0.39103  0.39103  0.00000  0.21794
       2     O     4.19917  4.19917  0.00000 -0.39834
       3     C     2.95110  2.95110  0.00000  0.09781
       4     C     3.08614  3.08614  0.00000 -0.17228
       5     H     0.45313  0.45313  0.00000  0.09375
       6     H     0.46775  0.46775  0.00000  0.06450
       7     C     3.17537  3.17537  0.00000 -0.35075
       8     H     0.42370  0.42370  0.00000  0.15260
       9     H     0.42781  0.42781  0.00000  0.14439
      10     H     0.42481  0.42481  0.00000  0.15038

   Total alpha = 16.00000, Total beta = 16.00000, Total charge = -0.00000
