  ==> Input File <==

--------------------------------------------------------------------------
set {
	reference rhf
	basis cc-pvtz
}

set_num_threads( 4 )
memory 2 gb

molecule MOL {
0 1

H	 -1.088256	 -1.364742	 0.152233
O	 -1.432053	 -0.565244	 -0.200812
C	 -0.727158	 0.534527	 0.310686
C	 0.680222	 0.664433	 -0.252229
H	 -1.306802	 1.408001	 0.044211
H	 -0.690821	 0.490158	 1.397609
C	 1.342417	 -0.671405	 -0.576391
H	 0.640743	 1.280144	 -1.144738
H	 1.284004	 1.199632	 0.475547
H	 0.798899	 -1.209097	 -1.345546
H	 2.351893	 -0.525717	 -0.941475
H	 1.398675	 -1.306291	 0.302649

	symmetry c1
}
set optking {
	frozen_dihedral = ("
		8 4 3 2
	")
}

ee = optimize('scf')
oeprop('DIPOLE', 'QUADRUPOLE', 'MULLIKEN_CHARGES')
f=open( 'psi4out.xyz', 'w' )
f.write( "12  " )
f.write( str(ee) + "\n" )
f.write( MOL.save_string_xyz() )
f.close()
--------------------------------------------------------------------------

    Molecular point group: c1
  Charge       = 0
  Multiplicity = 1
  Basis Set: CC-PVTZ
  Basis Set:
  @DF-RHF Final Energy:  -193.18606308344658
    Total Energy =                       -193.1860630834466122
    Molecular point group: c1
  Basis Set: CC-PVTZ
  Basis Set:
  Basis Set: CC-PVTZ
  Basis Set:
  @DF-RHF Final Energy:  -193.18658111855274
    Total Energy =                       -193.1865811185526240
  Basis Set: CC-PVTZ
  Basis Set:
  Basis Set: CC-PVTZ
  Basis Set:
  @DF-RHF Final Energy:  -193.18675152134901
    Total Energy =                       -193.1867515213490094
  Basis Set: CC-PVTZ
  Basis Set:
  Basis Set: CC-PVTZ
  Basis Set:
  @DF-RHF Final Energy:  -193.18675553429895
    Total Energy =                       -193.1867555342990386
  Basis Set: CC-PVTZ
  Basis Set:
  Basis Set: CC-PVTZ
  Basis Set:
  @DF-RHF Final Energy:  -193.18675681102184
    Total Energy =                       -193.1867568110218372
  Basis Set: CC-PVTZ
  Basis Set:
  Charge       = 0
  Multiplicity = 1
  Basis Set: CC-PVTZ
  Basis Set:

    Orbital Energies (a.u.)
    -----------------------

    Doubly Occupied:

       1A    -20.545514     2A    -11.266505     3A    -11.217514
       4A    -11.214150     5A     -1.364120     6A     -1.049109
       7A     -0.929912     8A     -0.808541     9A     -0.696423
      10A     -0.633871    11A     -0.614461    12A     -0.585768
      13A     -0.532679    14A     -0.513115    15A     -0.499673
      16A     -0.462263    17A     -0.431440

  @DF-RHF Final Energy:  -193.18675690063156

   => Energetics <=

    Nuclear Repulsion Energy =            133.5392955512195954
    One-Electron Energy =                -526.7219898810795939
    Two-Electron Energy =                 199.9959374292284622
    DFT Exchange-Correlation Energy =       0.0000000000000000
    Empirical Dispersion Energy =           0.0000000000000000
    PCM Polarization Energy =               0.0000000000000000
    EFP Energy =                            0.0000000000000000
    Total Energy =                       -193.1867569006315364
    Molecular point group: c1
  Basis Set: CC-PVTZ
  Basis Set:

  -Total Gradient:
     Atom            X                  Y                   Z
    ------   -----------------  -----------------  -----------------
       1       -0.000008740698    -0.000013208596    -0.000003415267
       2        0.001738481084    -0.002871118297     0.003537279299
       3       -0.002121668031     0.005122390337    -0.004047053711
       4       -0.000640545347    -0.007171053978    -0.002919273976
       5        0.000001049454     0.000003101344    -0.000007079608
       6       -0.000000290621     0.000018471348     0.000002309107
       7       -0.000000595081     0.000005797802    -0.000012055237
       8        0.001028557896     0.004910757768     0.003444467958
       9        0.000009266843    -0.000001579869     0.000008372186
      10        0.000001799308     0.000001917987    -0.000003541187
      11       -0.000003863030    -0.000005975126    -0.000001643378
      12       -0.000003451782     0.000000499280     0.000001633812

  **** Optimization is complete! (in 6 steps) ****
    Final optimized geometry and variables:
    Molecular point group: c1

    Geometry (in Angstrom), charge = 0, multiplicity = 1:

    H           -1.052000762110    -1.311219649077     0.297654138549
    O           -1.407920797710    -0.499351773626    -0.011397870300
    C           -0.657690710927     0.575484298202     0.487562853297
    C            0.751580543911     0.695462150873    -0.104895860874
    H           -1.226367395857     1.469472839131     0.275088823242
    H           -0.585257988049     0.491721330297     1.569767540333
    C            1.439820958408    -0.631889530634    -0.397113463747
    H            0.728475901537     1.322366191189    -0.990115867391
    H            1.350217280773     1.252640389187     0.611566245633
    H            0.915568527954    -1.190170035181    -1.161874348856
    H            2.452981449104    -0.467226489977    -0.742834702017
    H            1.499476105820    -1.251650804483     0.493652302527

  Mulliken Charges: (a.u.)
   Center  Symbol    Alpha    Beta     Spin     Total
       1     H     0.39034  0.39034  0.00000  0.21933
       2     O     4.20508  4.20508  0.00000 -0.41016
       3     C     2.97699  2.97699  0.00000  0.04602
       4     C     3.08327  3.08327  0.00000 -0.16653
       5     H     0.45166  0.45166  0.00000  0.09668
       6     H     0.47029  0.47029  0.00000  0.05941
       7     C     3.16205  3.16205  0.00000 -0.32411
       8     H     0.45286  0.45286  0.00000  0.09427
       9     H     0.45777  0.45777  0.00000  0.08446
      10     H     0.44605  0.44605  0.00000  0.10790
      11     H     0.44577  0.44577  0.00000  0.10846
      12     H     0.45787  0.45787  0.00000  0.08427

   Total alpha = 17.00000, Total beta = 17.00000, Total charge = -0.00000
