  ==> Input File <==

--------------------------------------------------------------------------
set {
	reference rhf
	basis 6-31G*
}

set_num_threads( 4 )
memory 2 gb

molecule MOL {
0 1

O	 -2.042549	 -1.228399	 -0.269030
C	 -1.653912	 -0.146171	 0.050137
C	 -0.332303	 0.024011	 0.778412
C	 -2.438579	 1.106236	 -0.272369
C	 0.845713	 -0.001731	 -0.208243
H	 -0.323783	 0.953829	 1.340327
H	 -0.235459	 -0.796807	 1.480410
C	 1.074923	 1.349453	 -0.887063
H	 0.671679	 -0.760280	 -0.969425
H	 1.740910	 -0.299918	 0.329203
C	 2.251409	 1.329153	 -1.862088
H	 0.171702	 1.646422	 -1.415670
H	 1.248227	 2.107059	 -0.126426
H	 2.091937	 0.603979	 -2.655023
H	 3.175448	 1.066882	 -1.355324
H	 2.392149	 2.300340	 -2.325785
H	 -3.277823	 0.863061	 -0.908988
H	 -1.806773	 1.843019	 -0.759671
H	 -2.802853	 1.554979	 0.648059

	symmetry c1
}
set optking {
	frozen_dihedral = ("
		9 5 3 2
	")
}

ee = optimize('scf')
oeprop('DIPOLE', 'QUADRUPOLE', 'MULLIKEN_CHARGES')
f=open( 'psi4out.xyz', 'w' )
f.write( "19  " )
f.write( str(ee) + "\n" )
f.write( MOL.save_string_xyz() )
f.close()
--------------------------------------------------------------------------

    Molecular point group: c1
  Charge       = 0
  Multiplicity = 1
  Basis Set: 6-31G*
  Basis Set:
  @DF-RHF Final Energy:  -309.06102832898699
    Total Energy =                       -309.0610283289869926
    Molecular point group: c1
  Basis Set: 6-31G*
  Basis Set:
  Basis Set: 6-31G*
  Basis Set:
  @DF-RHF Final Energy:  -309.06236496609154
    Total Energy =                       -309.0623649660916499
  Basis Set: 6-31G*
  Basis Set:
  Basis Set: 6-31G*
  Basis Set:
  @DF-RHF Final Energy:  -309.06141848977433
    Total Energy =                       -309.0614184897740415
  Basis Set: 6-31G*
  Basis Set:
  Basis Set: 6-31G*
  Basis Set:
  @DF-RHF Final Energy:  -309.06314537657204
    Total Energy =                       -309.0631453765719243
  Basis Set: 6-31G*
  Basis Set:
  @DF-RHF Final Energy:  -309.06367831696656
    Total Energy =                       -309.0636783169666728
  @DF-RHF Final Energy:  -309.06428159064615
    Total Energy =                       -309.0642815906464875
  @DF-RHF Final Energy:  -309.06491432240034
    Total Energy =                       -309.0649143224005115
  @DF-RHF Final Energy:  -309.06582599239181
    Total Energy =                       -309.0658259923916376
  @DF-RHF Final Energy:  -309.06609186120426
    Total Energy =                       -309.0660918612044270
  @DF-RHF Final Energy:  -309.06622424512841
    Total Energy =                       -309.0662242451282964
  @DF-RHF Final Energy:  -309.06621729428747
    Total Energy =                       -309.0662172942874122
  Basis Set: 6-31G*
  Basis Set:
  @DF-RHF Final Energy:  -309.06625013336469
    Total Energy =                       -309.0662501333649175
  Basis Set: 6-31G*
  Basis Set:
  Basis Set: 6-31G*
  Basis Set:
  @DF-RHF Final Energy:  -309.06625171838380
    Total Energy =                       -309.0662517183835689
  Basis Set: 6-31G*
  Basis Set:
  Basis Set: 6-31G*
  Basis Set:
  @DF-RHF Final Energy:  -309.06625364061404
    Total Energy =                       -309.0662536406142635
  Basis Set: 6-31G*
  Basis Set:
  Charge       = 0
  Multiplicity = 1
  Basis Set: 6-31G*
  Basis Set:

    Orbital Energies (a.u.)
    -----------------------

    Doubly Occupied:

       1A    -20.551514     2A    -11.327720     3A    -11.232407
       4A    -11.229153     5A    -11.216763     6A    -11.213923
       7A    -11.206434     8A     -1.397013     9A     -1.083499
      10A     -1.028726    11A     -0.982276    12A     -0.884476
      13A     -0.801471    14A     -0.728940    15A     -0.667326
      16A     -0.630504    17A     -0.625224    18A     -0.613387
      19A     -0.579077    20A     -0.570964    21A     -0.559821
      22A     -0.522727    23A     -0.515889    24A     -0.494331
      25A     -0.474473    26A     -0.467172    27A     -0.457740
      28A     -0.401946

  @DF-RHF Final Energy:  -309.06625443061841

   => Energetics <=

    Nuclear Repulsion Energy =            306.2907486337518321
    One-Electron Energy =               -1025.7842085674551527
    Two-Electron Energy =                 410.4272055030845650
    DFT Exchange-Correlation Energy =       0.0000000000000000
    Empirical Dispersion Energy =           0.0000000000000000
    PCM Polarization Energy =               0.0000000000000000
    EFP Energy =                            0.0000000000000000
    Total Energy =                       -309.0662544306187556
    Molecular point group: c1
  Basis Set: 6-31G*
  Basis Set:

  -Total Gradient:
     Atom            X                  Y                   Z
    ------   -----------------  -----------------  -----------------
       1        0.000000046414     0.000022199342     0.000035295402
       2       -0.000127454561    -0.001693403573     0.000491798325
       3        0.000043802464     0.002698281084    -0.001160959888
       4        0.000024507366    -0.000088467214     0.000003961164
       5        0.000762463797    -0.002443766590     0.002460266643
       6       -0.000013637959     0.000026420488     0.000007067125
       7       -0.000010824490     0.000017565443     0.000000352071
       8       -0.000013144164    -0.000002667724    -0.000010445001
       9       -0.000674016876     0.001406328342    -0.001816296138
      10       -0.000002928007    -0.000001565565    -0.000015059417
      11        0.000001319296     0.000009570142    -0.000001595941
      12        0.000004471893    -0.000003760645     0.000008219197
      13        0.000004065849    -0.000017460867     0.000009156300
      14       -0.000003621260     0.000001249297     0.000011403368
      15        0.000007247340     0.000001454017    -0.000003717812
      16       -0.000001383786     0.000005025327    -0.000002163948
      17       -0.000009547922     0.000017022779     0.000001429768
      18        0.000002706841     0.000024777422    -0.000006402014
      19        0.000005927767     0.000021198495    -0.000012309201

  **** Optimization is complete! (in 15 steps) ****
    Final optimized geometry and variables:
    Molecular point group: c1

    Geometry (in Angstrom), charge = 0, multiplicity = 1:

    O           -1.393544885553    -0.741537992991    -0.817996791319
    C           -1.416967618824    -0.257811497665     0.272181461325
    C           -0.163609416712    -0.080717453009     1.113631918581
    C           -2.714547200479     0.208000295195     0.899123659103
    C            1.141810282819    -0.382238382599     0.376918865677
    H           -0.159907927092     0.924743998801     1.529765569619
    H           -0.278576054643    -0.745986642730     1.968933122812
    C            1.620374114223     0.780055406949    -0.497275505452
    H            0.995084105086    -1.252693949114    -0.251971609585
    H            1.912086447222    -0.626906658757     1.103437952273
    C            2.910129468365     0.458751523582    -1.250585244430
    H            0.841776007165     1.035180605102    -1.210401076342
    H            1.776068711969     1.659843070433     0.124798610977
    H            2.774267993760    -0.393435069072    -1.909791097578
    H            3.717968144376     0.220949137091    -0.563758297461
    H            3.229837564023     1.299601086216    -1.858248057285
    H           -3.550233752576    -0.112909638922     0.292898577306
    H           -2.718094885436     1.292683104258     0.965433778501
    H           -2.821668731673    -0.177155590630     1.908321484660

  Mulliken Charges: (a.u.)
   Center  Symbol    Alpha    Beta     Spin     Total
       1     O     4.26249  4.26249  0.00000 -0.52498
       2     C     2.73574  2.73574  0.00000  0.52853
       3     C     3.21244  3.21244  0.00000 -0.42488
       4     C     3.28700  3.28700  0.00000 -0.57400
       5     C     3.15170  3.15170  0.00000 -0.30339
       6     H     0.41060  0.41060  0.00000  0.17881
       7     H     0.40578  0.40578  0.00000  0.18845
       8     C     3.15513  3.15513  0.00000 -0.31026
       9     H     0.40394  0.40394  0.00000  0.19211
      10     H     0.42108  0.42108  0.00000  0.15783
      11     C     3.24020  3.24020  0.00000 -0.48040
      12     H     0.41318  0.41318  0.00000  0.17363
      13     H     0.42704  0.42704  0.00000  0.14593
      14     H     0.41794  0.41794  0.00000  0.16412
      15     H     0.42336  0.42336  0.00000  0.15329
      16     H     0.41930  0.41930  0.00000  0.16140
      17     H     0.39650  0.39650  0.00000  0.20700
      18     H     0.40642  0.40642  0.00000  0.18717
      19     H     0.41017  0.41017  0.00000  0.17965

   Total alpha = 28.00000, Total beta = 28.00000, Total charge = -0.00000
