  ==> Input File <==

--------------------------------------------------------------------------
set {
	reference rhf
	basis cc-pvtz
}

set_num_threads( 4 )
memory 2 gb

molecule MOL {
0 1

H	 2.379142	 0.528684	 -2.040993
O	 1.531182	 0.800783	 -1.742698
C	 1.408604	 0.573696	 -0.362327
C	 0.027642	 1.012027	 0.090274
H	 2.157653	 1.142734	 0.182548
H	 1.570253	 -0.476373	 -0.134981
C	 -1.138737	 0.285728	 -0.581921
H	 -0.064334	 2.076636	 -0.098553
H	 -0.028872	 0.877782	 1.167770
C	 -1.933983	 -0.631436	 0.343653
H	 -0.763151	 -0.285569	 -1.422081
H	 -1.808359	 1.035291	 -0.992333
H	 -2.789188	 -1.049673	 -0.174718
H	 -1.335629	 -1.461368	 0.700418
H	 -2.305435	 -0.092167	 1.209725

	symmetry c1
}
set optking {
	frozen_dihedral = ("
		8 4 7 11
	")
}

ee = optimize('scf')
oeprop('DIPOLE', 'QUADRUPOLE', 'MULLIKEN_CHARGES')
f=open( 'psi4out.xyz', 'w' )
f.write( "15  " )
f.write( str(ee) + "\n" )
f.write( MOL.save_string_xyz() )
f.close()
--------------------------------------------------------------------------

    Molecular point group: c1
  Charge       = 0
  Multiplicity = 1
  Basis Set: CC-PVTZ
  Basis Set:
  @DF-RHF Final Energy:  -232.23344676116054
    Total Energy =                       -232.2334467611604509
    Molecular point group: c1
  Basis Set: CC-PVTZ
  Basis Set:
  Basis Set: CC-PVTZ
  Basis Set:
  @DF-RHF Final Energy:  -232.23410878025166
    Total Energy =                       -232.2341087802515176
  Basis Set: CC-PVTZ
  Basis Set:
  Basis Set: CC-PVTZ
  Basis Set:
  @DF-RHF Final Energy:  -232.23415631621990
    Total Energy =                       -232.2341563162198668
  Basis Set: CC-PVTZ
  Basis Set:
  Basis Set: CC-PVTZ
  Basis Set:
  @DF-RHF Final Energy:  -232.23415890084718
    Total Energy =                       -232.2341589008470919
  Basis Set: CC-PVTZ
  Basis Set:
  Charge       = 0
  Multiplicity = 1
  Basis Set: CC-PVTZ
  Basis Set:

    Orbital Energies (a.u.)
    -----------------------

    Doubly Occupied:

       1A    -20.546481     2A    -11.266526     3A    -11.210370
       4A    -11.207828     5A    -11.204603     6A     -1.364560
       7A     -1.064443     8A     -0.974423     9A     -0.860712
      10A     -0.785588    11A     -0.706285    12A     -0.650288
      13A     -0.603825    14A     -0.583606    15A     -0.560390
      16A     -0.536997    17A     -0.503782    18A     -0.476246
      19A     -0.470552    20A     -0.454338    21A     -0.432587

  @DF-RHF Final Energy:  -232.23415951866394

   => Energetics <=

    Nuclear Repulsion Energy =            189.4157388345345794
    One-Electron Energy =                -690.3709368395757338
    Two-Electron Energy =                 268.7210384863772106
    DFT Exchange-Correlation Energy =       0.0000000000000000
    Empirical Dispersion Energy =           0.0000000000000000
    PCM Polarization Energy =               0.0000000000000000
    EFP Energy =                            0.0000000000000000
    Total Energy =                       -232.2341595186639438
    Molecular point group: c1
  Basis Set: CC-PVTZ
  Basis Set:

  -Total Gradient:
     Atom            X                  Y                   Z
    ------   -----------------  -----------------  -----------------
       1        0.000003576823     0.000002893981     0.000012518410
       2       -0.000022407952     0.000022565489     0.000024652673
       3        0.000035600884    -0.000014961643    -0.000011077355
       4        0.001386158026    -0.000649180514    -0.001764508468
       5        0.000028195606    -0.000012788771    -0.000043037408
       6       -0.000002428852     0.000009757559     0.000033340258
       7       -0.000552275412     0.001955123284    -0.001027519015
       8       -0.001078038080     0.000219927760     0.001615572503
       9       -0.000012177444     0.000006085600    -0.000013048245
      10       -0.000044764988    -0.000033974308    -0.000028596376
      11        0.000262243656    -0.001519013086     0.001179375130
      12       -0.000000547024     0.000015059084     0.000016227849
      13       -0.000003396710    -0.000024690295     0.000026191762
      14        0.000001744530     0.000011315830    -0.000007385262
      15       -0.000001483059     0.000011880032    -0.000012706455

  **** Optimization is complete! (in 5 steps) ****
    Final optimized geometry and variables:
    Molecular point group: c1

    Geometry (in Angstrom), charge = 0, multiplicity = 1:

    H            2.351035017819     0.105505425857    -1.551719411040
    O            1.530435764370     0.442139167083    -1.243043126954
    C            1.359100648731     0.129816857248     0.114761642434
    C           -0.006075591655     0.613438975333     0.561911466553
    H            2.130793112239     0.608405943403     0.712383625367
    H            1.440876160462    -0.944516767408     0.270644079014
    C           -1.182217054282    -0.115050068840    -0.116530919430
    H           -0.067073469139     1.681325014027     0.386296460206
    H           -0.065763105277     0.483502563103     1.638775228117
    C           -1.935328760058    -1.048317044084     0.828740677349
    H           -0.809903680301    -0.691523241451    -0.954757428859
    H           -1.875990151006     0.607973843645    -0.528528600405
    H           -2.736648571977    -1.566422219774     0.313938073493
    H           -1.273350897735    -1.799848213494     1.247854729153
    H           -2.373254239948    -0.499278738857     1.655919365913

  Mulliken Charges: (a.u.)
   Center  Symbol    Alpha    Beta     Spin     Total
       1     H     0.39535  0.39535  0.00000  0.20930
       2     O     4.19929  4.19929  0.00000 -0.39857
       3     C     2.97330  2.97330  0.00000  0.05341
       4     C     3.09341  3.09341  0.00000 -0.18683
       5     H     0.46470  0.46470  0.00000  0.07060
       6     H     0.47342  0.47342  0.00000  0.05315
       7     C     3.08889  3.08889  0.00000 -0.17777
       8     H     0.44736  0.44736  0.00000  0.10529
       9     H     0.45588  0.45588  0.00000  0.08823
      10     C     3.14805  3.14805  0.00000 -0.29609
      11     H     0.44768  0.44768  0.00000  0.10464
      12     H     0.44956  0.44956  0.00000  0.10088
      13     H     0.44952  0.44952  0.00000  0.10096
      14     H     0.45755  0.45755  0.00000  0.08489
      15     H     0.45604  0.45604  0.00000  0.08792

   Total alpha = 21.00000, Total beta = 21.00000, Total charge = -0.00000
