  ==> Input File <==

--------------------------------------------------------------------------
set {
	reference rhf
	basis 6-31G*
}

set_num_threads( 4 )
memory 2 gb

molecule MOL {
0 1

H	 -0.777127	 1.514427	 -0.561140
O	 0.055946	 1.300438	 -0.164479
C	 0.004957	 -0.004114	 0.366649
C	 1.201664	 -0.828089	 -0.095740
C	 -1.317755	 -0.601827	 -0.081511
H	 0.013527	 0.048298	 1.454924
H	 1.216388	 -0.895289	 -1.178704
H	 2.135132	 -0.372895	 0.226467
H	 1.166770	 -1.832878	 0.313827
H	 -1.355732	 -0.658248	 -1.164429
H	 -2.141614	 0.017037	 0.254547
H	 -1.447303	 -1.600817	 0.322594

	symmetry c1
}
set optking {
	frozen_dihedral = ("
		1 2 3 4
	")
}

ee = optimize('scf')
oeprop('DIPOLE', 'QUADRUPOLE', 'MULLIKEN_CHARGES')
f=open( 'psi4out.xyz', 'w' )
f.write( "12  " )
f.write( str(ee) + "\n" )
f.write( MOL.save_string_xyz() )
f.close()
--------------------------------------------------------------------------

    Molecular point group: c1
  Charge       = 0
  Multiplicity = 1
  Basis Set: 6-31G*
  Basis Set:
  @DF-RHF Final Energy:  -193.11088706832618
    Total Energy =                       -193.1108870683263490
    Molecular point group: c1
  Basis Set: 6-31G*
  Basis Set:
  Basis Set: 6-31G*
  Basis Set:
  @DF-RHF Final Energy:  -193.11240480898852
    Total Energy =                       -193.1124048089884582
  Basis Set: 6-31G*
  Basis Set:
  Basis Set: 6-31G*
  Basis Set:
  @DF-RHF Final Energy:  -193.11285827975382
    Total Energy =                       -193.1128582797538797
  Basis Set: 6-31G*
  Basis Set:
  Basis Set: 6-31G*
  Basis Set:
  @DF-RHF Final Energy:  -193.11286372784971
    Total Energy =                       -193.1128637278498275
  Basis Set: 6-31G*
  Basis Set:
  Charge       = 0
  Multiplicity = 1
  Basis Set: 6-31G*
  Basis Set:

    Orbital Energies (a.u.)
    -----------------------

    Doubly Occupied:

       1A    -20.548563     2A    -11.275473     3A    -11.220562
       4A    -11.205952     5A     -1.358074     6A     -1.042964
       7A     -0.943182     8A     -0.810694     9A     -0.673027
      10A     -0.645934    11A     -0.607024    12A     -0.551156
      13A     -0.544675    14A     -0.519591    15A     -0.513715
      16A     -0.466968    17A     -0.427279

  @DF-RHF Final Energy:  -193.11286437809014

   => Energetics <=

    Nuclear Repulsion Energy =            135.4784795544002236
    One-Electron Energy =                -530.4730228782125323
    Two-Electron Energy =                 201.8816789457221716
    DFT Exchange-Correlation Energy =       0.0000000000000000
    Empirical Dispersion Energy =           0.0000000000000000
    PCM Polarization Energy =               0.0000000000000000
    EFP Energy =                            0.0000000000000000
    Total Energy =                       -193.1128643780901371
    Molecular point group: c1
  Basis Set: 6-31G*
  Basis Set:

  -Total Gradient:
     Atom            X                  Y                   Z
    ------   -----------------  -----------------  -----------------
       1        0.000330799636    -0.000411627976    -0.000864848718
       2       -0.000491680081     0.000395025309     0.000945328912
       3        0.000442519837     0.000180952918     0.000349828068
       4       -0.000299007537    -0.000168043221    -0.000452432965
       5       -0.000036901710     0.000042682263     0.000002813898
       6        0.000021313951    -0.000034117784    -0.000019316361
       7       -0.000045844702     0.000017708838     0.000022981000
       8        0.000039902556     0.000000240441    -0.000006638820
       9        0.000016350826     0.000008977187    -0.000000954805
      10        0.000013407612     0.000018103832     0.000034536062
      11        0.000018074599    -0.000007222536    -0.000033180672
      12       -0.000008934987    -0.000042679274     0.000021884401

  **** Optimization is complete! (in 5 steps) ****
    Final optimized geometry and variables:
    Molecular point group: c1

    Geometry (in Angstrom), charge = 0, multiplicity = 1:

    H           -0.649334102566     1.591207669458    -0.560307394259
    O            0.144765790955     1.313949165304    -0.128505899644
    C            0.004194928278    -0.001399922441     0.367186303265
    C            1.205948335562    -0.812104513085    -0.094503436567
    C           -1.314444321004    -0.624217046979    -0.075718833097
    H            0.013026856845     0.052230514631     1.452838158496
    H            1.206766719108    -0.904541312463    -1.176058145304
    H            2.124631239635    -0.318589177394     0.201739290269
    H            1.195476944662    -1.807594480703     0.339614198535
    H           -1.360290066600    -0.692561868798    -1.159639549826
    H           -2.158079456436    -0.030636277588     0.266948146288
    H           -1.427841471871    -1.624138442884     0.329130172650

  Mulliken Charges: (a.u.)
   Center  Symbol    Alpha    Beta     Spin     Total
       1     H     0.27936  0.27936  0.00000  0.44128
       2     O     4.37983  4.37983  0.00000 -0.75966
       3     C     2.90396  2.90396  0.00000  0.19208
       4     C     3.23870  3.23870  0.00000 -0.47740
       5     C     3.26715  3.26715  0.00000 -0.53429
       6     H     0.42479  0.42479  0.00000  0.15043
       7     H     0.42046  0.42046  0.00000  0.15909
       8     H     0.41079  0.41079  0.00000  0.17843
       9     H     0.42544  0.42544  0.00000  0.14913
      10     H     0.41789  0.41789  0.00000  0.16421
      11     H     0.41788  0.41788  0.00000  0.16425
      12     H     0.41378  0.41378  0.00000  0.17245

   Total alpha = 17.00000, Total beta = 17.00000, Total charge = -0.00000
