                              Psi4 1.0.54 Driver

  ==> Input File <==

--------------------------------------------------------------------------
set {
	reference rhf
	basis cc-pvtz
}

set_num_threads( 4 )
memory 2 gb

molecule MOL {
0 1

O	 2.868453	 1.353349	 -0.000734
C	 2.841259	 0.166180	 -0.000295
C	 1.542794	 -0.614730	 -0.000853
C	 4.113372	 -0.651103	 0.000743
C	 0.288398	 0.247429	 0.000314
H	 1.557171	 -1.273139	 -0.866508
H	 1.557484	 -1.274998	 0.863344
C	 -0.993089	 -0.581367	 -0.000217
H	 0.305153	 0.900562	 -0.864701
H	 0.305567	 0.898805	 0.866656
C	 -2.258482	 0.271340	 0.000669
H	 -1.002280	 -1.233920	 -0.870484
H	 -1.002061	 -1.235367	 0.868958
C	 -3.084066	 0.134238	 -1.275400
H	 -1.987351	 1.314774	 0.141545
H	 -2.872837	 0.000054	 0.855713
C	 -4.346825	 0.989317	 -1.267085
H	 -2.471128	 0.406347	 -2.130504
H	 -3.356615	 -0.908245	 -1.416346
H	 -4.105823	 2.041916	 -1.162237
H	 -4.909123	 0.869061	 -2.185987
H	 -4.997961	 0.717444	 -0.442979
H	 4.145311	 -1.294584	 -0.871587
H	 4.970080	 0.004978	 -0.000091
H	 4.145223	 -1.291980	 0.874988

	symmetry c1
}
set optking {
	frozen_dihedral = ("
		15 11 8 12
	")
}

ee,wfn = optimize('scf', return_wfn=True)
oeprop( wfn, 'DIPOLE', 'QUADRUPOLE', 'MULLIKEN_CHARGES')
f=open( 'psi4out.xyz', 'w' )
f.write( "25  " )
f.write( str(ee) + "\n" )
f.write( MOL.save_string_xyz() )
f.close()
--------------------------------------------------------------------------

    Molecular point group: c1
  Charge       = 0
  Multiplicity = 1
  Basis Set: CC-PVTZ
  Basis Set:
  @DF-RHF Final Energy:  -387.26915918889739
    Total Energy =                       -387.2691591888971061
    Molecular point group: c1
  Basis Set: CC-PVTZ
  Basis Set:
  Basis Set: CC-PVTZ
  Basis Set:
  @DF-RHF Final Energy:  -387.26939946289980
    Total Energy =                       -387.2693994628998553
  Basis Set: CC-PVTZ
  Basis Set:
  Basis Set: CC-PVTZ
  Basis Set:
  @DF-RHF Final Energy:  -387.26947119895976
    Total Energy =                       -387.2694711989601046
  Basis Set: CC-PVTZ
  Basis Set:
  Basis Set: CC-PVTZ
  Basis Set:
  @DF-RHF Final Energy:  -387.26934157672639
    Total Energy =                       -387.2693415767259921
  Basis Set: CC-PVTZ
  Basis Set:
  Basis Set: CC-PVTZ
  Basis Set:
  @DF-RHF Final Energy:  -387.26947359700938
    Total Energy =                       -387.2694735970092097
  Basis Set: CC-PVTZ
  Basis Set:
  Charge       = 0
  Multiplicity = 1
  Basis Set: CC-PVTZ
  Basis Set:

    Orbital Energies (a.u.)
    -----------------------

    Doubly Occupied:

       1A    -20.538941     2A    -11.320612     3A    -11.229977
       4A    -11.226623     5A    -11.215455     6A    -11.214598
       7A    -11.213627     8A    -11.211268     9A    -11.205890
      10A     -1.398986    11A     -1.093866    12A     -1.056882
      13A     -1.015046    14A     -0.968830    15A     -0.891397
      16A     -0.819007    17A     -0.789015    18A     -0.731575
      19A     -0.655199    20A     -0.654276    21A     -0.636807
      22A     -0.622233    23A     -0.603402    24A     -0.582102
      25A     -0.565758    26A     -0.564573    27A     -0.542401
      28A     -0.528780    29A     -0.508408    30A     -0.493419
      31A     -0.486266    32A     -0.481686    33A     -0.464517
      34A     -0.455580    35A     -0.449523    36A     -0.401532

  @DF-RHF Final Energy:  -387.26947386460489

   => Energetics <=

    Nuclear Repulsion Energy =            441.5369318440984330
    One-Electron Energy =               -1399.9366954251759125
    Two-Electron Energy =                 571.1302897164727028
    DFT Exchange-Correlation Energy =       0.0000000000000000
    Empirical Dispersion Energy =           0.0000000000000000
    PCM Polarization Energy =               0.0000000000000000
    EFP Energy =                            0.0000000000000000
    Total Energy =                       -387.2694738646047199
    Molecular point group: c1
  Basis Set: CC-PVTZ
  Basis Set:

  -Total Gradient:
     Atom            X                  Y                   Z
    ------   -----------------  -----------------  -----------------
       1       -0.000015940161     0.000013576781    -0.000019452751
       2        0.000008478902    -0.000013980708     0.000056766428
       3        0.000008899702    -0.000002367618    -0.000039273300
       4        0.000001011598    -0.000008844465    -0.000011941747
       5       -0.000025065125    -0.000002280057     0.000027659931
       6        0.000002009686    -0.000004646430     0.000006154130
       7        0.000007352096     0.000008477933     0.000000882928
       8       -0.000690339101    -0.001023310189     0.000531419171
       9       -0.000006068700     0.000004967757     0.000004657421
      10        0.000002835791     0.000002239806    -0.000002833476
      11       -0.000000493749     0.000016000555     0.001344268105
      12        0.000590702756     0.000878600571    -0.000672924824
      13       -0.000007363209     0.000005537330     0.000001582485
      14        0.000012625209    -0.000015398007     0.000029951701
      15        0.000117213622     0.000142986025    -0.001243889242
      16        0.000009856624    -0.000006009519    -0.000002631001
      17       -0.000012031845     0.000018563798    -0.000003092162
      18       -0.000002522359    -0.000009700617     0.000005358442
      19        0.000000013494    -0.000000457625    -0.000001695311
      20       -0.000005444536    -0.000003940863     0.000003661801
      21       -0.000000197351     0.000004023220     0.000000299320
      22        0.000005845919     0.000001973765    -0.000009146907
      23        0.000005415837    -0.000003117199    -0.000001749008
      24       -0.000008183662     0.000001412336    -0.000000789261
      25        0.000001388564    -0.000004306570    -0.000003242871

  **** Optimization is complete! (in 6 steps) ****
    Final optimized geometry and variables:
    Molecular point group: c1

    Geometry (in Angstrom), charge = 0, multiplicity = 1:

    O            2.757913951296     1.199042000803     0.282949125070
    C            2.734700347959     0.011829551245     0.279054977408
    C            1.438813642560    -0.773509293184     0.289757491707
    C            4.009406507484    -0.801319566974     0.262018564060
    C            0.182011147193     0.084169446999     0.312215974769
    H            1.444763878753    -1.426366048485    -0.580219937936
    H            1.466130725225    -1.439378673479     1.149424533127
    C           -1.098910219855    -0.748387761581     0.323396303730
    H            0.184218113917     0.742698425666    -0.549367569418
    H            0.207205520995     0.730790906368     1.181808740386
    C           -2.380401978853     0.108345488187     0.306200229744
    H           -1.093200988193    -1.406055207095    -0.541535814245
    H           -1.094497524663    -1.395167346999     1.195171220682
    C           -3.182933194345    -0.020662409024    -0.987346358983
    H           -2.118834419305     1.153224041912     0.444198095042
    H           -3.018571950450    -0.157552307287     1.142620978194
    C           -4.427185376877     0.859908443541    -1.011962778098
    H           -2.544929055557     0.232674599736    -1.830199751758
    H           -3.472443952278    -1.058726345511    -1.126737829167
    H           -4.166676065852     1.908278658352    -0.911725329158
    H           -4.973789654252     0.742467012599    -1.940677932192
    H           -5.099908764734     0.608989316251    -0.198421563349
    H            4.032735946013    -1.441826341360    -0.612759895334
    H            4.864043019222    -0.142553013057     0.252939265099
    H            4.053803722339    -1.444875592396     1.133743260108

  Mulliken Charges: (a.u.)
   Center  Symbol    Alpha    Beta     Spin     Total
       1     O     4.17062  4.17062  0.00000 -0.34125
       2     C     2.86212  2.86212  0.00000  0.27576
       3     C     3.11530  3.11530  0.00000 -0.23060
       4     C     3.15130  3.15130  0.00000 -0.30259
       5     C     3.08184  3.08184  0.00000 -0.16367
       6     H     0.44509  0.44509  0.00000  0.10982
       7     H     0.44561  0.44561  0.00000  0.10877
       8     C     3.10020  3.10020  0.00000 -0.20039
       9     H     0.44561  0.44561  0.00000  0.10878
      10     H     0.44525  0.44525  0.00000  0.10950
      11     C     3.09594  3.09594  0.00000 -0.19187
      12     H     0.45567  0.45567  0.00000  0.08867
      13     H     0.44872  0.44872  0.00000  0.10255
      14     C     3.08179  3.08179  0.00000 -0.16357
      15     H     0.45225  0.45225  0.00000  0.09550
      16     H     0.44850  0.44850  0.00000  0.10299
      17     C     3.15084  3.15084  0.00000 -0.30168
      18     H     0.45455  0.45455  0.00000  0.09090
      19     H     0.45461  0.45461  0.00000  0.09078
      20     H     0.45399  0.45399  0.00000  0.09202
      21     H     0.44879  0.44879  0.00000  0.10242
      22     H     0.45534  0.45534  0.00000  0.08932
      23     H     0.45041  0.45041  0.00000  0.09918
      24     H     0.43535  0.43535  0.00000  0.12930
      25     H     0.45033  0.45033  0.00000  0.09935

   Total alpha = 36.00000, Total beta = 36.00000, Total charge =  0.00000

*** Psi4 exiting successfully. Buy a developer a beer!
