  ==> Input File <==

--------------------------------------------------------------------------
set {
	reference rhf
	basis 6-31G*
}

set_num_threads( 4 )
memory 2 gb

molecule MOL {
0 1

H	 -3.161837	 0.500524	 -0.000234
C	 -2.367097	 -0.232926	 -0.000000
O	 -1.158440	 0.455814	 -0.000122
H	 -2.468853	 -0.861886	 -0.882833
H	 -2.468942	 -0.861421	 0.883154
C	 -0.029776	 -0.365156	 0.000148
C	 1.212217	 0.508981	 0.000007
H	 -0.036772	 -1.013236	 -0.877259
H	 -0.036869	 -1.012778	 0.877897
C	 1.134867	 1.634431	 1.030668
H	 2.075574	 -0.119598	 0.195364
H	 1.343365	 0.920688	 -0.995983
H	 1.027826	 1.242528	 2.038328
H	 2.033192	 2.242185	 1.008491
H	 0.289892	 2.289916	 0.838940

	symmetry c1
}
set optking {
	frozen_dihedral = ("
		11 7 6 8
	")
}

ee = optimize('scf')
oeprop('DIPOLE', 'QUADRUPOLE', 'MULLIKEN_CHARGES')
f=open( 'psi4out.xyz', 'w' )
f.write( "15  " )
f.write( str(ee) + "\n" )
f.write( MOL.save_string_xyz() )
f.close()
--------------------------------------------------------------------------

    Molecular point group: c1
  Charge       = 0
  Multiplicity = 1
  Basis Set: 6-31G*
  Basis Set:
  @DF-RHF Final Energy:  -232.13815365502393
    Total Energy =                       -232.1381536550239275
    Molecular point group: c1
  Basis Set: 6-31G*
  Basis Set:
  Basis Set: 6-31G*
  Basis Set:
  @DF-RHF Final Energy:  -232.13842902934687
    Total Energy =                       -232.1384290293468098
  Basis Set: 6-31G*
  Basis Set:
  Basis Set: 6-31G*
  Basis Set:
  @DF-RHF Final Energy:  -232.13861700777190
    Total Energy =                       -232.1386170077718702
  Basis Set: 6-31G*
  Basis Set:
  Basis Set: 6-31G*
  Basis Set:
  @DF-RHF Final Energy:  -232.13861952226873
    Total Energy =                       -232.1386195222689253
  Basis Set: 6-31G*
  Basis Set:
  Charge       = 0
  Multiplicity = 1
  Basis Set: 6-31G*
  Basis Set:

    Orbital Energies (a.u.)
    -----------------------

    Doubly Occupied:

       1A    -20.553682     2A    -11.266993     3A    -11.264532
       4A    -11.215328     5A    -11.201717     6A     -1.378498
       7A     -1.052821     8A     -0.949040     9A     -0.887492
      10A     -0.796385    11A     -0.671835    12A     -0.659384
      13A     -0.633478    14A     -0.596374    15A     -0.558998
      16A     -0.545425    17A     -0.501599    18A     -0.482981
      19A     -0.476164    20A     -0.458428    21A     -0.413477

  @DF-RHF Final Energy:  -232.13861985552091

   => Energetics <=

    Nuclear Repulsion Energy =            193.3056172216388404
    One-Electron Energy =                -697.7592101289950506
    Two-Electron Energy =                 272.3149730518352385
    DFT Exchange-Correlation Energy =       0.0000000000000000
    Empirical Dispersion Energy =           0.0000000000000000
    PCM Polarization Energy =               0.0000000000000000
    EFP Energy =                            0.0000000000000000
    Total Energy =                       -232.1386198555209717
    Molecular point group: c1
  Basis Set: 6-31G*
  Basis Set:

  -Total Gradient:
     Atom            X                  Y                   Z
    ------   -----------------  -----------------  -----------------
       1        0.000000553549    -0.000000923525     0.000000293692
       2       -0.000012587073    -0.000010343461    -0.000005951669
       3        0.000056992779    -0.000011875557     0.000003424388
       4       -0.000006449835    -0.000000643203     0.000002609844
       5       -0.000002203966    -0.000000044207     0.000000072018
       6        0.002298347771    -0.003147963972     0.003298534654
       7        0.000028531192    -0.000139420969    -0.005037573475
       8       -0.001948144599     0.002680176791    -0.001973891225
       9        0.000000454388    -0.000006117725    -0.000019822633
      10        0.000005708911    -0.000018042455     0.000005974673
      11       -0.000372406982     0.000652101376     0.003711769919
      12       -0.000011234447    -0.000020227804     0.000008655041
      13       -0.000003217800     0.000001225613     0.000021347589
      14       -0.000017894068    -0.000011998937     0.000003675774
      15       -0.000016449817     0.000034098035    -0.000019118591

  **** Optimization is complete! (in 5 steps) ****
    Final optimized geometry and variables:
    Molecular point group: c1

    Geometry (in Angstrom), charge = 0, multiplicity = 1:

    H           -2.904737832614     0.068310919384    -0.243376898666
    C           -2.097760692930    -0.651345143007    -0.219168341571
    O           -0.900629881198     0.056548360617    -0.223440701420
    H           -2.180557372412    -1.301746313831    -1.088411201010
    H           -2.197538208412    -1.261598731103     0.676930513886
    C            0.241983810987    -0.748915026484    -0.191358156844
    C            1.482392938920     0.133066088986    -0.215281565124
    H            0.234746226630    -1.404050272858    -1.062188488380
    H            0.233316196803    -1.371241550774     0.703524729046
    C            1.450426594469     1.245194953669     0.834057043480
    H            2.344114309431    -0.501280291118    -0.020396094440
    H            1.602528662480     0.561538925959    -1.205260033468
    H            1.330405054897     0.834846876467     1.833176031573
    H            2.376673005049     1.811355122671     0.817918776347
    H            0.630537407962     1.928341630518     0.654663815860

  Mulliken Charges: (a.u.)
   Center  Symbol    Alpha    Beta     Spin     Total
       1     H     0.41226  0.41226  0.00000  0.17548
       2     C     3.07881  3.07881  0.00000 -0.15762
       3     O     4.30427  4.30427  0.00000 -0.60854
       4     H     0.43059  0.43059  0.00000  0.13883
       5     H     0.43029  0.43029  0.00000  0.13942
       6     C     2.98788  2.98788  0.00000  0.02424
       7     C     3.16205  3.16205  0.00000 -0.32410
       8     H     0.42995  0.42995  0.00000  0.14010
       9     H     0.43224  0.43224  0.00000  0.13551
      10     C     3.23873  3.23873  0.00000 -0.47747
      11     H     0.42295  0.42295  0.00000  0.15411
      12     H     0.41632  0.41632  0.00000  0.16736
      13     H     0.42462  0.42462  0.00000  0.15077
      14     H     0.42251  0.42251  0.00000  0.15499
      15     H     0.40653  0.40653  0.00000  0.18693

   Total alpha = 21.00000, Total beta = 21.00000, Total charge = -0.00000
