  ==> Input File <==

--------------------------------------------------------------------------
set {
	reference rhf
	basis 6-31G*
}

set_num_threads( 4 )
memory 2 gb

molecule MOL {
0 1

H	 2.005766	 -0.591528	 -0.850745
O	 1.586534	 -0.678666	 -0.000226
C	 0.489431	 0.077273	 0.000046
C	 -0.764129	 -0.759190	 0.000191
O	 0.537743	 1.263962	 0.000257
C	 -2.038368	 0.075731	 -0.000248
H	 -0.717284	 -1.412404	 -0.866059
H	 -0.717458	 -1.411724	 0.866967
H	 -2.086483	 0.712501	 -0.875098
H	 -2.908485	 -0.571682	 -0.000042
H	 -2.086576	 0.713280	 0.874068

	symmetry c1
}
set optking {
	frozen_dihedral = ("
		1 2 3 5
	")
}

ee = optimize('scf')
oeprop('DIPOLE', 'QUADRUPOLE', 'MULLIKEN_CHARGES')
f=open( 'psi4out.xyz', 'w' )
f.write( "11  " )
f.write( str(ee) + "\n" )
f.write( MOL.save_string_xyz() )
f.close()
--------------------------------------------------------------------------

    Molecular point group: c1
  Charge       = 0
  Multiplicity = 1
  Basis Set: 6-31G*
  Basis Set:
  @DF-RHF Final Energy:  -266.82658801241769
    Total Energy =                       -266.8265880124178580
    Molecular point group: c1
  Basis Set: 6-31G*
  Basis Set:
  Basis Set: 6-31G*
  Basis Set:
  @DF-RHF Final Energy:  -266.82525939998669
    Total Energy =                       -266.8252593999864644
  Basis Set: 6-31G*
  Basis Set:
  Basis Set: 6-31G*
  Basis Set:
  @DF-RHF Final Energy:  -266.82779999734248
    Total Energy =                       -266.8277999973423675
  Basis Set: 6-31G*
  Basis Set:
  Basis Set: 6-31G*
  Basis Set:
  @DF-RHF Final Energy:  -266.82820288944276
    Total Energy =                       -266.8282028894427071
  Basis Set: 6-31G*
  Basis Set:
  Basis Set: 6-31G*
  Basis Set:
  @DF-RHF Final Energy:  -266.82820754875240
    Total Energy =                       -266.8282075487522889
  Basis Set: 6-31G*
  Basis Set:
  Charge       = 0
  Multiplicity = 1
  Basis Set: 6-31G*
  Basis Set:

    Orbital Energies (a.u.)
    -----------------------

    Doubly Occupied:

       1A    -20.597417     2A    -20.561959     3A    -11.382278
       4A    -11.244435     5A    -11.220721     6A     -1.462490
       7A     -1.367976     8A     -1.063636     9A     -0.911559
      10A     -0.803690    11A     -0.708826    12A     -0.678584
      13A     -0.657916    14A     -0.611596    15A     -0.568202
      16A     -0.527383    17A     -0.522890    18A     -0.501852
      19A     -0.487915    20A     -0.445959

  @DF-RHF Final Energy:  -266.82820801188365

   => Energetics <=

    Nuclear Repulsion Energy =            179.0645937103295182
    One-Electron Energy =                -719.1310334440289580
    Two-Electron Energy =                 273.2382317218156231
    DFT Exchange-Correlation Energy =       0.0000000000000000
    Empirical Dispersion Energy =           0.0000000000000000
    PCM Polarization Energy =               0.0000000000000000
    EFP Energy =                            0.0000000000000000
    Total Energy =                       -266.8282080118838167
    Molecular point group: c1
  Basis Set: 6-31G*
  Basis Set:

  -Total Gradient:
     Atom            X                  Y                   Z
    ------   -----------------  -----------------  -----------------
       1       -0.004440783827    -0.006877428599    -0.003413382187
       2        0.005248984056     0.008620039084     0.007880845889
       3       -0.000267233114    -0.001673020370    -0.012265081204
       4        0.000010137934     0.000021809444    -0.000063114514
       5       -0.000562305328    -0.000088966058     0.007819329360
       6       -0.000001184987    -0.000005732121     0.000018236984
       7        0.000002343581    -0.000000716521     0.000015937194
       8        0.000004159411     0.000003073890     0.000017541590
       9        0.000000681940     0.000000744496    -0.000007881261
      10        0.000001647031     0.000000730615    -0.000003089005
      11        0.000003553300    -0.000000533863     0.000000657154

  **** Optimization is complete! (in 6 steps) ****
    Final optimized geometry and variables:
    Molecular point group: c1

    Geometry (in Angstrom), charge = 0, multiplicity = 1:

    H            2.125918599928    -0.609656337842    -0.754445590457
    O            1.614171592006    -0.674672631452     0.043026135960
    C            0.490795145409     0.086389810039    -0.026657299638
    C           -0.766138342332    -0.745383680387     0.000389910814
    O            0.529261871479     1.266697571967    -0.012486480251
    C           -2.043560592555     0.083076531876     0.037480315735
    H           -0.741421676570    -1.399628118412    -0.867456085036
    H           -0.691437087335    -1.402944257227     0.861785535814
    H           -2.118292673171     0.725028552339    -0.832048973739
    H           -2.911566756933    -0.566985982678     0.057603934796
    H           -2.070254767480     0.715669801090     0.916364280651

  Mulliken Charges: (a.u.)
   Center  Symbol    Alpha    Beta     Spin     Total
       1     H     0.26556  0.26556  0.00000  0.46888
       2     O     4.36695  4.36695  0.00000 -0.73390
       3     C     2.63272  2.63272  0.00000  0.73457
       4     C     3.20676  3.20676  0.00000 -0.41351
       5     O     4.25025  4.25025  0.00000 -0.50050
       6     C     3.23985  3.23985  0.00000 -0.47969
       7     H     0.40591  0.40591  0.00000  0.18818
       8     H     0.39639  0.39639  0.00000  0.20722
       9     H     0.41065  0.41065  0.00000  0.17869
      10     H     0.41685  0.41685  0.00000  0.16630
      11     H     0.40812  0.40812  0.00000  0.18376

   Total alpha = 20.00000, Total beta = 20.00000, Total charge =  0.00000
