  ==> Input File <==

--------------------------------------------------------------------------
set {
	reference rhf
	basis cc-pvtz
}

set_num_threads( 4 )
memory 2 gb

molecule MOL {
0 1

H	 -0.694871	 1.803243	 -1.744713
C	 -1.353153	 1.205423	 -1.122684
O	 -0.775228	 0.000056	 -0.739966
H	 -2.231625	 0.959501	 -1.702304
H	 -1.665827	 1.804650	 -0.273687
C	 0.406133	 -0.000384	 0.036994
C	 1.526415	 -0.003194	 -0.997339
C	 0.498772	 1.259027	 0.900673
C	 0.495883	 -1.257378	 0.904465
H	 1.452279	 0.872071	 -1.630204
H	 1.451276	 -0.881020	 -1.626529
H	 2.497919	 -0.002741	 -0.517601
H	 0.368981	 2.144239	 0.289753
H	 1.470064	 1.313479	 1.377660
H	 -0.248448	 1.271586	 1.684297
H	 0.363971	 -2.144195	 0.296316
H	 1.467114	 -1.312636	 1.381470
H	 -0.251246	 -1.265768	 1.688235

	symmetry c1
}
set optking {
	frozen_dihedral = ("
		2 3 6 7
	")
}

ee = optimize('scf')
oeprop('DIPOLE', 'QUADRUPOLE', 'MULLIKEN_CHARGES')
f=open( 'psi4out.xyz', 'w' )
f.write( "18  " )
f.write( str(ee) + "\n" )
f.write( MOL.save_string_xyz() )
f.close()
--------------------------------------------------------------------------

    Molecular point group: c1
  Charge       = 0
  Multiplicity = 1
  Basis Set: CC-PVTZ
  Basis Set:
  @DF-RHF Final Energy:  -271.26989732734637
    Total Energy =                       -271.2698973273465981
    Molecular point group: c1
  Basis Set: CC-PVTZ
  Basis Set:
  Basis Set: CC-PVTZ
  Basis Set:
  @DF-RHF Final Energy:  -271.27326926089233
    Total Energy =                       -271.2732692608925049
  Basis Set: CC-PVTZ
  Basis Set:
  Basis Set: CC-PVTZ
  Basis Set:
  @DF-RHF Final Energy:  -271.27519676356548
    Total Energy =                       -271.2751967635653614
  Basis Set: CC-PVTZ
  Basis Set:
  Basis Set: CC-PVTZ
  Basis Set:
  @DF-RHF Final Energy:  -271.27526821164702
    Total Energy =                       -271.2752682116469032
  Basis Set: CC-PVTZ
  Basis Set:
  Basis Set: CC-PVTZ
  Basis Set:
  @DF-RHF Final Energy:  -271.27526147244873
    Total Energy =                       -271.2752614724490172
  Basis Set: CC-PVTZ
  Basis Set:
  Basis Set: CC-PVTZ
  Basis Set:
  @DF-RHF Final Energy:  -271.27528410366909
    Total Energy =                       -271.2752841036692644
  Basis Set: CC-PVTZ
  Basis Set:
  Charge       = 0
  Multiplicity = 1
  Basis Set: CC-PVTZ
  Basis Set:

    Orbital Energies (a.u.)
    -----------------------

    Doubly Occupied:

       1A    -20.539451     2A    -11.280231     3A    -11.258999
       4A    -11.210628     5A    -11.204112     6A    -11.201598
       7A     -1.372347     8A     -1.074955     9A     -0.950270
      10A     -0.937374    11A     -0.912606    12A     -0.753047
      13A     -0.657313    14A     -0.647767    15A     -0.639592
      16A     -0.588838    17A     -0.575249    18A     -0.552210
      19A     -0.537005    20A     -0.526321    21A     -0.515300
      22A     -0.491109    23A     -0.486104    24A     -0.442874
      25A     -0.403237

  @DF-RHF Final Energy:  -271.27528409537706

   => Energetics <=

    Nuclear Repulsion Energy =            272.5313432863297294
    One-Electron Energy =                -908.0961778789819618
    Two-Electron Energy =                 364.2895504972751723
    DFT Exchange-Correlation Energy =       0.0000000000000000
    Empirical Dispersion Energy =           0.0000000000000000
    PCM Polarization Energy =               0.0000000000000000
    EFP Energy =                            0.0000000000000000
    Total Energy =                       -271.2752840953770601
    Molecular point group: c1
  Basis Set: CC-PVTZ
  Basis Set:

  -Total Gradient:
     Atom            X                  Y                   Z
    ------   -----------------  -----------------  -----------------
       1        0.000007860605    -0.000002474665     0.000000597326
       2       -0.001525924368     0.000102356841     0.002728105284
       3        0.002379897126    -0.001080435368    -0.003976317122
       4       -0.000005143463    -0.000008010353    -0.000003218861
       5        0.000008170222    -0.000003868791     0.000020496342
       6       -0.000813980336     0.003560674266     0.001151249501
       7        0.000067437630    -0.002598049115     0.000148136777
       8       -0.000031779631     0.000037533415    -0.000006058465
       9       -0.000049177091    -0.000009771707    -0.000048809852
      10       -0.000000972179     0.000003750494     0.000004896354
      11       -0.000000655405     0.000004627478    -0.000007615244
      12       -0.000002064161    -0.000006309279     0.000001417020
      13        0.000000120523     0.000005545352     0.000013913810
      14       -0.000015022856    -0.000008506120    -0.000020750262
      15       -0.000015811326     0.000014474110     0.000011328779
      16       -0.000022610517    -0.000043886821     0.000020800547
      17        0.000004022541     0.000005513502    -0.000035784728
      18        0.000015632690     0.000026836759    -0.000002387206

  **** Optimization is complete! (in 7 steps) ****
    Final optimized geometry and variables:
    Molecular point group: c1

    Geometry (in Angstrom), charge = 0, multiplicity = 1:

    H           -0.908285396399     1.550829435335    -1.542909208037
    C           -1.547274825005     0.927814858657    -0.922343840698
    O           -0.914603440848    -0.237148079382    -0.504593406353
    H           -2.398140489867     0.624840570930    -1.516105729913
    H           -1.907386671647     1.523959502529    -0.090937233938
    C            0.319204281623    -0.171870575032     0.188961296709
    C            1.455137948572    -0.214807285505    -0.833861207162
    C            0.437831659971     1.057393197029     1.089112649080
    C            0.345961669439    -1.437134239956     1.041694879749
    H            1.428238493380     0.650883523946    -1.486182723637
    H            1.365045942947    -1.101729223406    -1.447709199310
    H            2.421567501879    -0.230613785834    -0.342927158979
    H            0.469684113013     1.980029727991     0.523580824885
    H            1.354124027576     0.994046549248     1.662711747229
    H           -0.389491764754     1.109895665810     1.786566053454
    H            0.198645668217    -2.308390574825     0.416449225541
    H            1.293551809781    -1.538829646141     1.557969677495
    H           -0.448278506451    -1.412923620397     1.777499905291

  Mulliken Charges: (a.u.)
   Center  Symbol    Alpha    Beta     Spin     Total
       1     H     0.47029  0.47029  0.00000  0.05942
       2     C     3.04339  3.04339  0.00000 -0.08679
       3     O     4.19425  4.19425  0.00000 -0.38850
       4     H     0.44235  0.44235  0.00000  0.11529
       5     H     0.46696  0.46696  0.00000  0.06608
       6     C     2.87371  2.87371  0.00000  0.25259
       7     C     3.14985  3.14985  0.00000 -0.29969
       8     C     3.17364  3.17364  0.00000 -0.34728
       9     C     3.14111  3.14111  0.00000 -0.28222
      10     H     0.45041  0.45041  0.00000  0.09919
      11     H     0.44794  0.44794  0.00000  0.10412
      12     H     0.45357  0.45357  0.00000  0.09286
      13     H     0.44507  0.44507  0.00000  0.10986
      14     H     0.44403  0.44403  0.00000  0.11193
      15     H     0.44499  0.44499  0.00000  0.11002
      16     H     0.44755  0.44755  0.00000  0.10490
      17     H     0.45941  0.45941  0.00000  0.08118
      18     H     0.45148  0.45148  0.00000  0.09703

   Total alpha = 25.00000, Total beta = 25.00000, Total charge = -0.00000
