                              Psi4 1.0.54 Driver

  ==> Input File <==

--------------------------------------------------------------------------
set {
	reference rhf
	basis cc-pvtz
}

set_num_threads( 4 )
memory 2 gb

molecule MOL {
0 1

H	 -2.791114	 -0.545336	 1.016705
C	 -2.709839	 -0.194967	 -0.009706
O	 -1.383562	 -0.051985	 -0.394527
H	 -3.166968	 -0.923781	 -0.662968
H	 -3.255060	 0.743119	 -0.096964
C	 -0.664299	 0.869554	 0.357180
C	 0.779974	 0.866083	 -0.076882
H	 -1.072244	 1.870634	 0.217930
H	 -0.719801	 0.629172	 1.416692
O	 1.401606	 -0.295166	 0.366636
H	 0.827584	 0.938103	 -1.161307
H	 1.275924	 1.742478	 0.340176
C	 2.714315	 -0.441627	 -0.061017
H	 2.765292	 -0.641548	 -1.128869
H	 3.305661	 0.447341	 0.150952
H	 3.143725	 -1.278506	 0.470147

	symmetry c1
}
set optking {
	frozen_dihedral = ("
		7 10 13 14
	")
}

ee,wfn = optimize('scf', return_wfn=True)
oeprop( wfn, 'DIPOLE', 'QUADRUPOLE', 'MULLIKEN_CHARGES')
f=open( 'psi4out.xyz', 'w' )
f.write( "16  " )
f.write( str(ee) + "\n" )
f.write( MOL.save_string_xyz() )
f.close()
--------------------------------------------------------------------------

    Molecular point group: c1
  Charge       = 0
  Multiplicity = 1
  Basis Set: CC-PVTZ
  Basis Set:
  @DF-RHF Final Energy:  -307.09775655064823
    Total Energy =                       -307.0977565506482279
    Molecular point group: c1
  Basis Set: CC-PVTZ
  Basis Set:
  Basis Set: CC-PVTZ
  Basis Set:
  @DF-RHF Final Energy:  -307.09776421819583
    Total Energy =                       -307.0977642181958345
  Basis Set: CC-PVTZ
  Basis Set:
  Charge       = 0
  Multiplicity = 1
  Basis Set: CC-PVTZ
  Basis Set:

    Orbital Energies (a.u.)
    -----------------------

    Doubly Occupied:

       1A    -20.547844     2A    -20.547637     3A    -11.267576
       4A    -11.266897     5A    -11.261623     6A    -11.261555
       7A     -1.391659     8A     -1.374452     9A     -1.032085
      10A     -0.937233    11A     -0.892202    12A     -0.824357
      13A     -0.686449    14A     -0.682822    15A     -0.659372
      16A     -0.637866    17A     -0.632418    18A     -0.598426
      19A     -0.550727    20A     -0.536944    21A     -0.509576
      22A     -0.479696    23A     -0.464777    24A     -0.423051
      25A     -0.413754

  @DF-RHF Final Energy:  -307.09776483118117

   => Energetics <=

    Nuclear Repulsion Energy =            258.8973282544842505
    One-Electron Energy =                -932.2281874983154921
    Two-Electron Energy =                 366.2330944126501890
    DFT Exchange-Correlation Energy =       0.0000000000000000
    Empirical Dispersion Energy =           0.0000000000000000
    PCM Polarization Energy =               0.0000000000000000
    EFP Energy =                            0.0000000000000000
    Total Energy =                       -307.0977648311810526
    Molecular point group: c1
  Basis Set: CC-PVTZ
  Basis Set:

  -Total Gradient:
     Atom            X                  Y                   Z
    ------   -----------------  -----------------  -----------------
       1       -0.000000018909     0.000000008521     0.000000415056
       2        0.000002457486     0.000000687417    -0.000000270160
       3       -0.000004818884    -0.000000958041     0.000002596723
       4        0.000000860874     0.000000275751    -0.000000031738
       5        0.000000185836     0.000000497320    -0.000000202054
       6       -0.000000292950    -0.000003588773    -0.000013630241
       7        0.000319562233     0.000503211279     0.000873506949
       8        0.000001477639     0.000000080844    -0.000004056956
       9        0.000004744401    -0.000000188190     0.000000041447
      10       -0.000448689693    -0.001022307691    -0.001130669396
      11       -0.000003885408    -0.000007546793    -0.000004454086
      12       -0.000007035815     0.000009747697    -0.000007973558
      13        0.000196973787     0.001774942543     0.000050152711
      14       -0.000062015225    -0.001264713909     0.000226793029
      15       -0.000015450502     0.000008697786     0.000024775976
      16        0.000015945127     0.000001154236    -0.000016993704

  **** Optimization is complete! (in 3 steps) ****
    Final optimized geometry and variables:
    Molecular point group: c1

    Geometry (in Angstrom), charge = 0, multiplicity = 1:

    H           -2.814137025466    -0.663676456029     0.985258229159
    C           -2.732305889676    -0.312643348360    -0.040868108252
    O           -1.405807607480    -0.169215191847    -0.424792030924
    H           -3.188942592615    -1.041067068864    -0.694898690033
    H           -3.277567209446     0.625451138905    -0.127853463856
    C           -0.687095662075     0.751796696439     0.328047756904
    C            0.757437236956     0.748811235201    -0.104932781287
    H           -1.095059958178     1.752979440908     0.189387734403
    H           -0.743086153835     0.510472100161     1.387312930759
    O            1.379145367904    -0.412094483825     0.339926524323
    H            0.804986994662     0.821352242328    -1.189449163478
    H            1.253370895236     1.624729131107     0.312607230838
    C            2.690643373618    -0.562676716021    -0.091227731905
    H            2.737138692339    -0.766087405027    -1.158566262573
    H            3.288410193570     0.320743159293     0.123374169464
    H            3.116558613903    -1.404285397274     0.435955207610

  Mulliken Charges: (a.u.)
   Center  Symbol    Alpha    Beta     Spin     Total
       1     H     0.47017  0.47017  0.00000  0.05967
       2     C     3.03198  3.03198  0.00000 -0.06396
       3     O     4.17054  4.17054  0.00000 -0.34108
       4     H     0.44635  0.44635  0.00000  0.10731
       5     H     0.47368  0.47368  0.00000  0.05265
       6     C     2.96067  2.96067  0.00000  0.07865
       7     C     2.96045  2.96045  0.00000  0.07910
       8     H     0.47606  0.47606  0.00000  0.04788
       9     H     0.47079  0.47079  0.00000  0.05843
      10     O     4.17084  4.17084  0.00000 -0.34168
      11     H     0.47130  0.47130  0.00000  0.05741
      12     H     0.47543  0.47543  0.00000  0.04915
      13     C     3.03186  3.03186  0.00000 -0.06372
      14     H     0.46800  0.46800  0.00000  0.06399
      15     H     0.47470  0.47470  0.00000  0.05059
      16     H     0.44719  0.44719  0.00000  0.10562

   Total alpha = 25.00000, Total beta = 25.00000, Total charge =  0.00000

*** Psi4 exiting successfully. Buy a developer a beer!
