  ==> Input File <==

--------------------------------------------------------------------------
set {
	reference rhf
	basis 6-31G*
}

set_num_threads( 4 )
memory 2 gb

molecule MOL {
0 1

H	 -2.800547	 0.810870	 -2.161406
C	 -2.095904	 0.140100	 -1.709514
C	 -2.076860	 -0.007332	 -0.404944
H	 -1.418447	 -0.397777	 -2.345637
O	 -1.180634	 -0.819263	 0.215062
H	 -2.751470	 0.516533	 0.249014
C	 0.051604	 -1.018856	 -0.387932
C	 1.043764	 0.054862	 -0.001873
H	 -0.017620	 -1.041351	 -1.469781
H	 0.437898	 -1.966374	 -0.042284
F	 2.212596	 -0.199467	 -0.571921
F	 0.652529	 1.252447	 -0.405055
F	 1.230877	 0.110694	 1.300533

	symmetry c1
}
set optking {
	frozen_dihedral = ("
		6 3 5 7
	")
}

ee = optimize('scf')
oeprop('DIPOLE', 'QUADRUPOLE', 'MULLIKEN_CHARGES')
f=open( 'psi4out.xyz', 'w' )
f.write( "13  " )
f.write( str(ee) + "\n" )
f.write( MOL.save_string_xyz() )
f.close()
--------------------------------------------------------------------------

    Molecular point group: c1
  Charge       = 0
  Multiplicity = 1
  Basis Set: 6-31G*
  Basis Set:
  @DF-RHF Final Energy:  -527.52751138957683
    Total Energy =                       -527.5275113895767163
    Molecular point group: c1
  Basis Set: 6-31G*
  Basis Set:
  Basis Set: 6-31G*
  Basis Set:
  @DF-RHF Final Energy:  -527.53053157952058
    Total Energy =                       -527.5305315795208116
  Basis Set: 6-31G*
  Basis Set:
  Basis Set: 6-31G*
  Basis Set:
  @DF-RHF Final Energy:  -527.53259203523294
    Total Energy =                       -527.5325920352330513
  Basis Set: 6-31G*
  Basis Set:
  Basis Set: 6-31G*
  Basis Set:
  @DF-RHF Final Energy:  -527.53298804589372
    Total Energy =                       -527.5329880458937168
  Basis Set: 6-31G*
  Basis Set:
  @DF-RHF Final Energy:  -527.53313139809063
    Total Energy =                       -527.5331313980907453
  @DF-RHF Final Energy:  -527.53320780060585
    Total Energy =                       -527.5332078006058509
  @DF-RHF Final Energy:  -527.53326880524924
    Total Energy =                       -527.5332688052493495
  @DF-RHF Final Energy:  -527.53338232806504
    Total Energy =                       -527.5333823280647039
  @DF-RHF Final Energy:  -527.53343589797964
    Total Energy =                       -527.5334358979797571
  @DF-RHF Final Energy:  -527.53346525866868
    Total Energy =                       -527.5334652586686843
  @DF-RHF Final Energy:  -527.53349643576075
    Total Energy =                       -527.5334964357607532
  @DF-RHF Final Energy:  -527.53353985555214
    Total Energy =                       -527.5335398555521351
  @DF-RHF Final Energy:  -527.53361476509190
    Total Energy =                       -527.5336147650920111
  @DF-RHF Final Energy:  -527.53390909638597
    Total Energy =                       -527.5339090963860826
  @DF-RHF Final Energy:  -527.53411819886401
    Total Energy =                       -527.5341181988643484
  @DF-RHF Final Energy:  -527.53459072034229
    Total Energy =                       -527.5345907203420666
  @DF-RHF Final Energy:  -527.53412572654702
    Total Energy =                       -527.5341257265470176
  @DF-RHF Final Energy:  -527.53502198205615
    Total Energy =                       -527.5350219820566053
  @DF-RHF Final Energy:  -527.53551915415983
    Total Energy =                       -527.5355191541598288
  @DF-RHF Final Energy:  -527.53520341559727
    Total Energy =                       -527.5352034155968113
  @DF-RHF Final Energy:  -527.53516082630858
    Total Energy =                       -527.5351608263081289
  Basis Set: 6-31G*
  Basis Set:
  @DF-RHF Final Energy:  -527.53571821318633
    Total Energy =                       -527.5357182131857599
  Basis Set: 6-31G*
  Basis Set:
  Basis Set: 6-31G*
  Basis Set:
  @DF-RHF Final Energy:  -527.53572217645774
    Total Energy =                       -527.5357221764575115
  Basis Set: 6-31G*
  Basis Set:
  Basis Set: 6-31G*
  Basis Set:
  @DF-RHF Final Energy:  -527.53572382536822
    Total Energy =                       -527.5357238253683363
  Basis Set: 6-31G*
  Basis Set:
  Charge       = 0
  Multiplicity = 1
  Basis Set: 6-31G*
  Basis Set:

    Orbital Energies (a.u.)
    -----------------------

    Doubly Occupied:

       1A    -26.341342     2A    -26.337735     3A    -26.337486
       4A    -20.609522     5A    -11.502508     6A    -11.316122
       7A    -11.306052     8A    -11.226736     9A     -1.738347
      10A     -1.636098    11A     -1.634463    12A     -1.439948
      13A     -1.083487    14A     -1.022493    15A     -0.928917
      16A     -0.838011    17A     -0.828111    18A     -0.817627
      19A     -0.777299    20A     -0.715036    21A     -0.710140
      22A     -0.698585    23A     -0.679356    24A     -0.666978
      25A     -0.653969    26A     -0.648782    27A     -0.638995
      28A     -0.579231    29A     -0.555728    30A     -0.532587
      31A     -0.503153    32A     -0.364686

  @DF-RHF Final Energy:  -527.53572431848556

   => Energetics <=

    Nuclear Repulsion Energy =            409.7764298000511189
    One-Electron Energy =               -1543.2852503120357142
    Two-Electron Energy =                 605.9730961934990319
    DFT Exchange-Correlation Energy =       0.0000000000000000
    Empirical Dispersion Energy =           0.0000000000000000
    PCM Polarization Energy =               0.0000000000000000
    EFP Energy =                            0.0000000000000000
    Total Energy =                       -527.5357243184855633
    Molecular point group: c1
  Basis Set: 6-31G*
  Basis Set:

  -Total Gradient:
     Atom            X                  Y                   Z
    ------   -----------------  -----------------  -----------------
       1       -0.000044822632     0.000014575534    -0.000000939483
       2       -0.000372628555    -0.000273307635    -0.000295122925
       3       -0.002240474820    -0.001532638157     0.003030317442
       4        0.000090577532    -0.000045354531    -0.000028520844
       5       -0.001047939629    -0.004374131281     0.000470183778
       6        0.001860415881     0.002844828128    -0.002565210737
       7        0.001211078516     0.003385945129    -0.000649756152
       8        0.000126815881    -0.000048346509    -0.000130075073
       9       -0.000058872706     0.000085240586    -0.000041148770
      10        0.000005302052    -0.000142562336    -0.000052491384
      11        0.000227246159    -0.000067531642    -0.000020352319
      12        0.000293524345     0.000263206519     0.000058756633
      13       -0.000050222020    -0.000109923803     0.000224359840

  **** Optimization is complete! (in 25 steps) ****
    Final optimized geometry and variables:
    Molecular point group: c1

    Geometry (in Angstrom), charge = 0, multiplicity = 1:

    H           -3.743271110651    -0.074537728889    -2.107955425101
    C           -2.807296382640    -0.323053971282    -1.646227289488
    C           -2.423932279747     0.337246745331    -0.572719223236
    H           -2.232426843658    -1.113809187640    -2.091423563218
    O           -1.277820636803     0.167787230851     0.126057269022
    H           -3.005062393392     1.136709155293    -0.154056998262
    C           -0.154821328062    -0.309070934927    -0.540380027792
    C            1.045873185069    -0.034137373191     0.331191842746
    H           -0.015752714997     0.194729921814    -1.488899081568
    H           -0.205179936098    -1.378473931831    -0.708844203877
    F            2.132771473200    -0.498244146564    -0.269700809538
    F            1.221821834612     1.256076879507     0.539499539484
    F            0.950739578669    -0.625743071473     1.505286427494

  Mulliken Charges: (a.u.)
   Center  Symbol    Alpha    Beta     Spin     Total
       1     H     0.40287  0.40287  0.00000  0.19426
       2     C     3.24265  3.24265  0.00000 -0.48530
       3     C     2.89648  2.89648  0.00000  0.20703
       4     H     0.40728  0.40728  0.00000  0.18545
       5     O     4.30799  4.30799  0.00000 -0.61598
       6     H     0.39642  0.39642  0.00000  0.20715
       7     C     3.05128  3.05128  0.00000 -0.10256
       8     C     2.44966  2.44966  0.00000  1.10069
       9     H     0.40160  0.40160  0.00000  0.19680
      10     H     0.40465  0.40465  0.00000  0.19070
      11     F     4.68540  4.68540  0.00000 -0.37081
      12     F     4.67718  4.67718  0.00000 -0.35437
      13     F     4.67653  4.67653  0.00000 -0.35306

   Total alpha = 32.00000, Total beta = 32.00000, Total charge =  0.00000
