  ==> Input File <==

--------------------------------------------------------------------------
set {
	reference rhf
	basis 6-31G*
}

set_num_threads( 4 )
memory 2 gb

molecule MOL {
0 1

H	 -2.596135	 -1.433884	 -2.852166
O	 -2.535961	 -1.204968	 -1.935716
C	 -1.237511	 -0.755039	 -1.645574
C	 -1.177863	 -0.397191	 -0.171080
H	 -0.504639	 -1.528427	 -1.871579
H	 -0.989620	 0.115888	 -2.250864
C	 0.198102	 0.111031	 0.262842
H	 -1.451079	 -1.276760	 0.405496
H	 -1.935847	 0.355049	 0.029099
C	 1.331804	 -0.827780	 -0.158768
H	 0.361943	 1.100838	 -0.156218
H	 0.217265	 0.229072	 1.345532
C	 2.723619	 -0.410569	 0.329459
H	 1.342964	 -0.912588	 -1.244120
H	 1.116806	 -1.824343	 0.220779
C	 3.243875	 0.895854	 -0.272975
H	 3.424222	 -1.207124	 0.091250
H	 2.714788	 -0.329854	 1.414619
H	 3.251977	 0.848779	 -1.358681
H	 2.637085	 1.747371	 0.016682
H	 4.259473	 1.094070	 0.055697

	symmetry c1
}
set optking {
	frozen_dihedral = ("
		8 4 7 10
	")
}

ee = optimize('scf')
oeprop('DIPOLE', 'QUADRUPOLE', 'MULLIKEN_CHARGES')
f=open( 'psi4out.xyz', 'w' )
f.write( "21  " )
f.write( str(ee) + "\n" )
f.write( MOL.save_string_xyz() )
f.close()
--------------------------------------------------------------------------

    Molecular point group: c1
  Charge       = 0
  Multiplicity = 1
  Basis Set: 6-31G*
  Basis Set:
  @DF-RHF Final Energy:  -310.20883471526861
    Total Energy =                       -310.2088347152684378
    Molecular point group: c1
  Basis Set: 6-31G*
  Basis Set:
  Basis Set: 6-31G*
  Basis Set:
  @DF-RHF Final Energy:  -310.20970291205725
    Total Energy =                       -310.2097029120574234
  Basis Set: 6-31G*
  Basis Set:
  Basis Set: 6-31G*
  Basis Set:
  @DF-RHF Final Energy:  -310.21051695183019
    Total Energy =                       -310.2105169518302432
  Basis Set: 6-31G*
  Basis Set:
  Basis Set: 6-31G*
  Basis Set:
  @DF-RHF Final Energy:  -310.21057208639633
    Total Energy =                       -310.2105720863962119
  Basis Set: 6-31G*
  Basis Set:
  Basis Set: 6-31G*
  Basis Set:
  @DF-RHF Final Energy:  -310.21058453098010
    Total Energy =                       -310.2105845309798724
  Basis Set: 6-31G*
  Basis Set:
  Basis Set: 6-31G*
  Basis Set:
  @DF-RHF Final Energy:  -310.21058603480310
    Total Energy =                       -310.2105860348029296
  Basis Set: 6-31G*
  Basis Set:
  Charge       = 0
  Multiplicity = 1
  Basis Set: 6-31G*
  Basis Set:

    Orbital Energies (a.u.)
    -----------------------

    Doubly Occupied:

       1A    -20.551609     2A    -11.266681     3A    -11.216506
       4A    -11.215892     5A    -11.215279     6A    -11.210712
       7A    -11.209165     8A     -1.358370     9A     -1.086822
      10A     -1.031982    11A     -0.951162    12A     -0.884475
      13A     -0.814328    14A     -0.767695    15A     -0.695197
      16A     -0.655739    17A     -0.622938    18A     -0.607604
      19A     -0.593975    20A     -0.557287    21A     -0.548014
      22A     -0.517511    23A     -0.513933    24A     -0.496464
      25A     -0.477881    26A     -0.456889    27A     -0.451200
      28A     -0.446288    29A     -0.431896

  @DF-RHF Final Energy:  -310.21058969580423

   => Energetics <=

    Nuclear Repulsion Energy =            316.8783362019366336
    One-Electron Energy =               -1048.4708640762798950
    Two-Electron Energy =                 421.3819381785390306
    DFT Exchange-Correlation Energy =       0.0000000000000000
    Empirical Dispersion Energy =           0.0000000000000000
    PCM Polarization Energy =               0.0000000000000000
    EFP Energy =                            0.0000000000000000
    Total Energy =                       -310.2105896958041740
    Molecular point group: c1
  Basis Set: 6-31G*
  Basis Set:

  -Total Gradient:
     Atom            X                  Y                   Z
    ------   -----------------  -----------------  -----------------
       1        0.000031139811     0.000009504763     0.000011577675
       2       -0.000026299368     0.000017089678     0.000057422054
       3        0.000018613425    -0.000051328976    -0.000071640474
       4        0.001408099973    -0.001773745089    -0.002969942457
       5        0.000014402728     0.000007775677     0.000007473275
       6        0.000000634544     0.000017917800     0.000021316364
       7       -0.000434067154    -0.000819709391     0.002894659977
       8       -0.001123953950     0.001685327884     0.001798262444
       9        0.000020203009     0.000014303289    -0.000000845626
      10        0.000138653604     0.000853648648    -0.001774539486
      11        0.000015386206     0.000034382765     0.000004124686
      12        0.000000359724    -0.000027311590    -0.000014485645
      13       -0.000015669895     0.000023005562     0.000000048128
      14       -0.000013056022     0.000018098314     0.000016185410
      15       -0.000003689425    -0.000010243502    -0.000000560710
      16       -0.000001075919    -0.000007448922     0.000009261933
      17       -0.000026635239    -0.000011816078     0.000000146297
      18        0.000010378171     0.000014558660     0.000007972747
      19       -0.000004294171    -0.000003475711     0.000004726751
      20       -0.000012536551     0.000012899662    -0.000000640732
      21        0.000003406511    -0.000003433441    -0.000000522610

  **** Optimization is complete! (in 7 steps) ****
    Final optimized geometry and variables:
    Molecular point group: c1

    Geometry (in Angstrom), charge = 0, multiplicity = 1:

    H           -3.123962745751    -1.025209598923    -2.203011352992
    O           -2.991119656932    -0.744647626461    -1.308850793993
    C           -1.633749307576    -0.442917179139    -1.106293028150
    C           -1.461429377872    -0.049119443731     0.350822359751
    H           -1.015644384990    -1.303091735484    -1.350883648395
    H           -1.323146739350     0.378589891418    -1.751675374542
    C           -0.068894354794     0.478131921232     0.717599728512
    H           -1.724066111440    -0.892989082089     0.983417133693
    H           -2.196138034574     0.721706753744     0.565934698209
    C            1.091137356802    -0.451480911348     0.341895308032
    H            0.075305757062     1.445944258616     0.243145288434
    H           -0.046571200586     0.660487249686     1.789447974080
    C            2.447465687669    -0.028101299427     0.917709767003
    H            1.176314318212    -0.519764543252    -0.740499188540
    H            0.865955196855    -1.456753255328     0.693960427655
    C            2.975146099459     1.304608386494     0.383182813274
    H            3.174032207935    -0.805829221067     0.695474509453
    H            2.377154358847     0.020400153384     2.002397444459
    H            3.042328002242     1.291123699906    -0.701540815617
    H            2.337732432226     2.136085539956     0.664951687049
    H            3.967926988393     1.509513665303     0.771821970930

  Mulliken Charges: (a.u.)
   Center  Symbol    Alpha    Beta     Spin     Total
       1     H     0.28131  0.28131  0.00000  0.43737
       2     O     4.37214  4.37214  0.00000 -0.74428
       3     C     2.99246  2.99246  0.00000  0.01509
       4     C     3.16007  3.16007  0.00000 -0.32013
       5     H     0.43004  0.43004  0.00000  0.13992
       6     H     0.43319  0.43319  0.00000  0.13361
       7     C     3.16168  3.16168  0.00000 -0.32336
       8     H     0.41608  0.41608  0.00000  0.16785
       9     H     0.41220  0.41220  0.00000  0.17560
      10     C     3.15671  3.15671  0.00000 -0.31342
      11     H     0.42102  0.42102  0.00000  0.15796
      12     H     0.41936  0.41936  0.00000  0.16128
      13     C     3.15196  3.15196  0.00000 -0.30392
      14     H     0.42435  0.42435  0.00000  0.15130
      15     H     0.42116  0.42116  0.00000  0.15767
      16     C     3.24149  3.24149  0.00000 -0.48299
      17     H     0.42099  0.42099  0.00000  0.15801
      18     H     0.42268  0.42268  0.00000  0.15463
      19     H     0.42291  0.42291  0.00000  0.15418
      20     H     0.41926  0.41926  0.00000  0.16147
      21     H     0.41893  0.41893  0.00000  0.16215

   Total alpha = 29.00000, Total beta = 29.00000, Total charge = -0.00000
