                              Psi4 1.0.54 Driver

  ==> Input File <==

--------------------------------------------------------------------------
set {
	reference rhf
	basis cc-pvtz
}

set_num_threads( 4 )
memory 2 gb

molecule MOL {
0 1

H	 3.568688	 -0.893124	 -0.779241
O	 2.663981	 -1.112400	 -0.614558
C	 2.076458	 -0.067370	 -0.038225
C	 0.626018	 -0.337582	 0.258241
O	 2.662048	 0.933041	 0.194381
C	 -0.267326	 0.883135	 0.076490
H	 0.325620	 -1.161483	 -0.378003
H	 0.574537	 -0.713685	 1.275261
C	 -1.726822	 0.642622	 0.463839
H	 -0.210803	 1.217591	 -0.953497
H	 0.129920	 1.693110	 0.675679
C	 -2.480891	 -0.340606	 -0.429852
H	 -2.243098	 1.597649	 0.438609
H	 -1.776542	 0.301208	 1.495542
C	 -3.955933	 -0.460128	 -0.060472
H	 -2.393755	 -0.020485	 -1.464726
H	 -2.024244	 -1.323637	 -0.374360
H	 -4.467673	 -1.160944	 -0.709827
H	 -4.458917	 0.497287	 -0.144505
H	 -4.076458	 -0.806900	 0.960497

	symmetry c1
}
set optking {
	frozen_dihedral = ("
		5 3 4 7
	")
}

ee,wfn = optimize('scf', return_wfn=True)
oeprop( wfn, 'DIPOLE', 'QUADRUPOLE', 'MULLIKEN_CHARGES')
f=open( 'psi4out.xyz', 'w' )
f.write( "20  " )
f.write( str(ee) + "\n" )
f.write( MOL.save_string_xyz() )
f.close()
--------------------------------------------------------------------------

    Molecular point group: c1
  Charge       = 0
  Multiplicity = 1
  Basis Set: CC-PVTZ
  Basis Set:
  @DF-RHF Final Energy:  -384.09372538132823
    Total Energy =                       -384.0937253813283405
    Molecular point group: c1
  Basis Set: CC-PVTZ
  Basis Set:
  Basis Set: CC-PVTZ
  Basis Set:
  @DF-RHF Final Energy:  -384.09281209314696
    Total Energy =                       -384.0928120931472449
  Basis Set: CC-PVTZ
  Basis Set:
  Basis Set: CC-PVTZ
  Basis Set:
  @DF-RHF Final Energy:  -384.09391939820506
    Total Energy =                       -384.0939193982053439
  Basis Set: CC-PVTZ
  Basis Set:
  Basis Set: CC-PVTZ
  Basis Set:
  @DF-RHF Final Energy:  -384.09411146249744
    Total Energy =                       -384.0941114624978354
  Basis Set: CC-PVTZ
  Basis Set:
  Basis Set: CC-PVTZ
  Basis Set:
  @DF-RHF Final Energy:  -384.09412146052506
    Total Energy =                       -384.0941214605250025
  Basis Set: CC-PVTZ
  Basis Set:
  Basis Set: CC-PVTZ
  Basis Set:
  @DF-RHF Final Energy:  -384.09412334392550
    Total Energy =                       -384.0941233439251619
  Basis Set: CC-PVTZ
  Basis Set:
  Basis Set: CC-PVTZ
  Basis Set:
  @DF-RHF Final Energy:  -384.09412374771466
    Total Energy =                       -384.0941237477145478
  Basis Set: CC-PVTZ
  Basis Set:
  Charge       = 0
  Multiplicity = 1
  Basis Set: CC-PVTZ
  Basis Set:

    Orbital Energies (a.u.)
    -----------------------

    Doubly Occupied:

       1A    -20.605417     2A    -20.538919     3A    -11.373576
       4A    -11.238173     5A    -11.223306     6A    -11.219358
       7A    -11.218655     8A    -11.210839     9A     -1.478011
      10A     -1.368538    11A     -1.097978    12A     -1.042173
      13A     -0.962314    14A     -0.870078    15A     -0.818822
      16A     -0.781702    17A     -0.705358    18A     -0.692449
      19A     -0.656954    20A     -0.640949    21A     -0.609079
      22A     -0.596112    23A     -0.576820    24A     -0.555740
      25A     -0.544953    26A     -0.513690    27A     -0.498262
      28A     -0.481839    29A     -0.472632    30A     -0.468528
      31A     -0.458539    32A     -0.444978

  @DF-RHF Final Energy:  -384.09412429154600

   => Energetics <=

    Nuclear Repulsion Energy =            376.4499054687050830
    One-Electron Energy =               -1269.1585734759114530
    Two-Electron Energy =                 508.6145437156608295
    DFT Exchange-Correlation Energy =       0.0000000000000000
    Empirical Dispersion Energy =           0.0000000000000000
    PCM Polarization Energy =               0.0000000000000000
    EFP Energy =                            0.0000000000000000
    Total Energy =                       -384.0941242915455405
    Molecular point group: c1
  Basis Set: CC-PVTZ
  Basis Set:

  -Total Gradient:
     Atom            X                  Y                   Z
    ------   -----------------  -----------------  -----------------
       1       -0.000009181806    -0.000002186675     0.000003126104
       2        0.000009726463     0.000014444565     0.000002592797
       3       -0.000334651297     0.000503404329    -0.001465539093
       4       -0.000247523520     0.000737745951    -0.000533302626
       5        0.000291590916    -0.000475266778     0.001135527340
       6        0.000001820125    -0.000002463791     0.000006561148
       7        0.000294466629    -0.000779210955     0.000852985598
       8        0.000000610612     0.000001718979     0.000000936067
       9       -0.000003880830     0.000005346853    -0.000004409036
      10       -0.000000883729     0.000001689549    -0.000001591190
      11        0.000000579994    -0.000002666965    -0.000000914488
      12        0.000000131724    -0.000003978182     0.000004812797
      13       -0.000003114352     0.000000131576     0.000001569181
      14       -0.000000132957    -0.000000839555    -0.000002375364
      15       -0.000000443894     0.000001037022    -0.000001547132
      16        0.000000851386     0.000000437954     0.000002256069
      17        0.000000079293     0.000000120349     0.000000029087
      18       -0.000000428411     0.000000536839    -0.000000641301
      19       -0.000000207583     0.000000333835     0.000000643815
      20        0.000000591236    -0.000000334901    -0.000000719773

  **** Optimization is complete! (in 8 steps) ****
    Final optimized geometry and variables:
    Molecular point group: c1

    Geometry (in Angstrom), charge = 0, multiplicity = 1:

    H            3.639444543385    -0.875277597554    -0.636347805353
    O            2.726547873837    -1.105528331060    -0.547407476460
    C            2.083363739963    -0.069703200496    -0.018803966776
    C            0.626075794410    -0.362562414085     0.227922342990
    O            2.635971664242     0.940765163529     0.251170594904
    C           -0.261967908470     0.869881133315     0.077011598538
    H            0.324178234845    -1.177394291937    -0.413307462619
    H            0.571950826880    -0.736238886570     1.247672212491
    C           -1.717185649450     0.637744117578     0.483743484767
    H           -0.223438172325     1.214253677165    -0.952426836164
    H            0.155510046109     1.665207975440     0.679848228651
    C           -2.491744919076    -0.336198996297    -0.402484828837
    H           -2.226596927692     1.596757840218     0.471212476537
    H           -1.751892577287     0.292015710791     1.514513883608
    C           -3.960092291169    -0.452622393744    -0.006251751842
    H           -2.422835316755    -0.009408322199    -1.436756973538
    H           -2.037438558962    -1.320961200748    -0.362463619331
    H           -4.486009250724    -1.149036129919    -0.648963314964
    H           -4.461604307459     0.506675618522    -0.076759617211
    H           -4.062814748133    -0.803445168484     1.015278164283

  Mulliken Charges: (a.u.)
   Center  Symbol    Alpha    Beta     Spin     Total
       1     H     0.38097  0.38097  0.00000  0.23806
       2     O     4.15825  4.15825  0.00000 -0.31651
       3     C     2.80762  2.80762  0.00000  0.38476
       4     C     3.10228  3.10228  0.00000 -0.20455
       5     O     4.19444  4.19444  0.00000 -0.38888
       6     C     3.10004  3.10004  0.00000 -0.20008
       7     H     0.43562  0.43562  0.00000  0.12875
       8     H     0.44222  0.44222  0.00000  0.11556
       9     C     3.09886  3.09886  0.00000 -0.19772
      10     H     0.44937  0.44937  0.00000  0.10126
      11     H     0.43290  0.43290  0.00000  0.13420
      12     C     3.08657  3.08657  0.00000 -0.17315
      13     H     0.44550  0.44550  0.00000  0.10899
      14     H     0.45304  0.45304  0.00000  0.09391
      15     C     3.14960  3.14960  0.00000 -0.29920
      16     H     0.45319  0.45319  0.00000  0.09362
      17     H     0.45348  0.45348  0.00000  0.09303
      18     H     0.44767  0.44767  0.00000  0.10466
      19     H     0.45367  0.45367  0.00000  0.09267
      20     H     0.45470  0.45470  0.00000  0.09061

   Total alpha = 32.00000, Total beta = 32.00000, Total charge =  0.00000

*** Psi4 exiting successfully. Buy a developer a beer!
