  ==> Input File <==

--------------------------------------------------------------------------
set {
	reference rhf
	basis 6-31G*
}

set_num_threads( 4 )
memory 2 gb

molecule MOL {
0 1

H	 -2.646374	 -0.642757	 1.268656
C	 -2.083525	 -0.384536	 0.393091
O	 -0.807605	 -0.127164	 0.768327
F	 -2.118945	 -1.383102	 -0.486752
F	 -2.621877	 0.670592	 -0.209486
C	 -0.372786	 1.184756	 0.718467
C	 0.989348	 1.176177	 0.036794
Cl	 -0.251343	 1.871846	 2.346463
H	 -1.033031	 1.813621	 0.147170
F	 1.463176	 2.400316	 -0.058648
F	 0.850661	 0.694832	 -1.182432
F	 1.859352	 0.435537	 0.679070

	symmetry c1
}
set optking {
	frozen_dihedral = ("
		6 3 2 4
	")
}

ee = optimize('scf')
oeprop('DIPOLE', 'QUADRUPOLE', 'MULLIKEN_CHARGES')
f=open( 'psi4out.xyz', 'w' )
f.write( "12  " )
f.write( str(ee) + "\n" )
f.write( MOL.save_string_xyz() )
f.close()
--------------------------------------------------------------------------

    Molecular point group: c1
  Charge       = 0
  Multiplicity = 1
  Basis Set: 6-31G*
  Basis Set:
  @DF-RHF Final Energy: -1146.30556230577326
    Total Energy =                      -1146.3055623057730372
    Molecular point group: c1
  Basis Set: 6-31G*
  Basis Set:
  Basis Set: 6-31G*
  Basis Set:
  @DF-RHF Final Energy: -1146.30675551240574
    Total Energy =                      -1146.3067555124064256
  Basis Set: 6-31G*
  Basis Set:
  Basis Set: 6-31G*
  Basis Set:
  @DF-RHF Final Energy: -1146.30870725201703
    Total Energy =                      -1146.3087072520170295
  Basis Set: 6-31G*
  Basis Set:
  Basis Set: 6-31G*
  Basis Set:
  @DF-RHF Final Energy: -1146.30904541370319
    Total Energy =                      -1146.3090454137034158
  Basis Set: 6-31G*
  Basis Set:
  @DF-RHF Final Energy: -1146.30923145340603
    Total Energy =                      -1146.3092314534069374
  @DF-RHF Final Energy: -1146.30938477616064
    Total Energy =                      -1146.3093847761595043
  Basis Set: 6-31G*
  Basis Set:
  @DF-RHF Final Energy: -1146.30952017658728
    Total Energy =                      -1146.3095201765881939
  Basis Set: 6-31G*
  Basis Set:
  Basis Set: 6-31G*
  Basis Set:
  @DF-RHF Final Energy: -1146.30973296261664
    Total Energy =                      -1146.3097329626170904
  Basis Set: 6-31G*
  Basis Set:
  Basis Set: 6-31G*
  Basis Set:
  @DF-RHF Final Energy: -1146.30974276989309
    Total Energy =                      -1146.3097427698919546
  Basis Set: 6-31G*
  Basis Set:
  Charge       = 0
  Multiplicity = 1
  Basis Set: 6-31G*
  Basis Set:

    Orbital Energies (a.u.)
    -----------------------

    Doubly Occupied:

       1A   -104.845345     2A    -26.360419     3A    -26.358624
       4A    -26.357964     5A    -26.355327     6A    -26.343340
       7A    -20.646729     8A    -11.528837     9A    -11.492136
      10A    -11.403424    11A    -10.580216    12A     -8.049520
      13A     -8.046108    14A     -8.045957    15A     -1.761612
      16A     -1.720998    17A     -1.658012    18A     -1.656512
      19A     -1.643378    20A     -1.483528    21A     -1.177568
      22A     -1.057289    23A     -0.985835    24A     -0.919426
      25A     -0.860400    26A     -0.848923    27A     -0.840893
      28A     -0.838425    29A     -0.814317    30A     -0.793124
      31A     -0.727935    32A     -0.725738    33A     -0.699840
      34A     -0.695992    35A     -0.683212    36A     -0.673790
      37A     -0.662871    38A     -0.659303    39A     -0.657806
      40A     -0.632659    41A     -0.603218    42A     -0.575172
      43A     -0.511737    44A     -0.480491    45A     -0.472059

  @DF-RHF Final Energy: -1146.30974332547339

   => Energetics <=

    Nuclear Repulsion Energy =            731.5454031499949679
    One-Electron Energy =               -3045.8382776191801895
    Two-Electron Energy =                1167.9831311437117165
    DFT Exchange-Correlation Energy =       0.0000000000000000
    Empirical Dispersion Energy =           0.0000000000000000
    PCM Polarization Energy =               0.0000000000000000
    EFP Energy =                            0.0000000000000000
    Total Energy =                      -1146.3097433254736188
    Molecular point group: c1
  Basis Set: 6-31G*
  Basis Set:

  -Total Gradient:
     Atom            X                  Y                   Z
    ------   -----------------  -----------------  -----------------
       1        0.000030767418     0.000000602821     0.000001981483
       2        0.000135455932    -0.000779616048     0.000109206387
       3       -0.000021137610     0.000224296821     0.001507128087
       4       -0.000157659490     0.000646269318    -0.000596702203
       5        0.000117009163    -0.000035212966     0.000074987273
       6       -0.000046443886    -0.000041195919    -0.001067924385
       7        0.000065993273    -0.000049296899    -0.000089944776
       8        0.000028835613     0.000043007386    -0.000044229374
       9       -0.000013738695     0.000023946063    -0.000002050593
      10       -0.000123209574    -0.000022965653     0.000149236758
      11       -0.000024697908     0.000009899474    -0.000092422962
      12        0.000008825761    -0.000019734357     0.000050734338

  **** Optimization is complete! (in 10 steps) ****
    Final optimized geometry and variables:
    Molecular point group: c1

    Geometry (in Angstrom), charge = 0, multiplicity = 1:

    H           -2.113541806324    -1.636742381331     0.914548383239
    C           -1.792388119785    -1.197158106182    -0.011654780608
    O           -0.460168226323    -0.891181381939     0.025899284976
    F           -1.982804485604    -2.051705531181    -0.999976006091
    F           -2.522880026698    -0.115071006590    -0.264224324707
    C           -0.029895221996     0.410193003177     0.066908412544
    C            1.418098495593     0.395079288935    -0.406957244998
    CL          -0.137156104422     1.087566125937     1.712706356003
    H           -0.594935198188     1.058213429503    -0.577522631383
    F            1.909615975684     1.615948857737    -0.398509743212
    F            1.457700708874    -0.052124179006    -1.645182794859
    F            2.177214721670    -0.370334347117     0.337914178046

  Mulliken Charges: (a.u.)
   Center  Symbol    Alpha    Beta     Spin     Total
       1     H     0.40962  0.40962  0.00000  0.18075
       2     C     2.56154  2.56154  0.00000  0.87692
       3     O     4.30896  4.30896  0.00000 -0.61791
       4     F     4.67196  4.67196  0.00000 -0.34392
       5     F     4.68329  4.68329  0.00000 -0.36657
       6     C     3.03414  3.03414  0.00000 -0.06829
       7     C     2.43197  2.43197  0.00000  1.13607
       8    CL     8.51428  8.51428  0.00000 -0.02856
       9     H     0.36651  0.36651  0.00000  0.26697
      10     F     4.67468  4.67468  0.00000 -0.34936
      11     F     4.67507  4.67507  0.00000 -0.35015
      12     F     4.66798  4.66798  0.00000 -0.33596

   Total alpha = 45.00000, Total beta = 45.00000, Total charge = -0.00000
