  ==> Input File <==

--------------------------------------------------------------------------
set {
	reference rhf
	basis cc-pvtz
}

set_num_threads( 4 )
memory 2 gb

molecule MOL {
0 1

H	 -0.000105	 1.988529	 0.748933
O	 -0.000098	 1.879786	 -0.188206
C	 -0.000014	 0.545691	 -0.532416
C	 1.395246	 -0.050048	 -0.337165
C	 -0.575059	 0.362856	 -1.938001
H	 -0.660679	 0.027560	 0.147086
F	 1.749434	 0.078609	 0.917768
F	 1.439508	 -1.323137	 -0.638825
F	 2.290207	 0.576348	 -1.070682
F	 -1.801631	 0.822765	 -1.967399
F	 -0.608201	 -0.894007	 -2.302568
F	 0.123039	 1.030519	 -2.831455

	symmetry c1
}
set optking {
	frozen_dihedral = ("
		6 3 2 1
	")
}

ee = optimize('scf')
oeprop('DIPOLE', 'QUADRUPOLE', 'MULLIKEN_CHARGES')
f=open( 'psi4out.xyz', 'w' )
f.write( "12  " )
f.write( str(ee) + "\n" )
f.write( MOL.save_string_xyz() )
f.close()
--------------------------------------------------------------------------

    Molecular point group: c1
  Charge       = 0
  Multiplicity = 1
  Basis Set: CC-PVTZ
  Basis Set:
  @DF-RHF Final Energy:  -786.58597136735875
    Total Energy =                       -786.5859713673586384
    Molecular point group: c1
  Basis Set: CC-PVTZ
  Basis Set:
  Basis Set: CC-PVTZ
  Basis Set:
  @DF-RHF Final Energy:  -786.58765983152443
    Total Energy =                       -786.5876598315240926
  Basis Set: CC-PVTZ
  Basis Set:
  Basis Set: CC-PVTZ
  Basis Set:
  @DF-RHF Final Energy:  -786.58803574991896
    Total Energy =                       -786.5880357499196407
  Basis Set: CC-PVTZ
  Basis Set:
  Basis Set: CC-PVTZ
  Basis Set:
  @DF-RHF Final Energy:  -786.58807978035350
    Total Energy =                       -786.5880797803536097
  Basis Set: CC-PVTZ
  Basis Set:
  Basis Set: CC-PVTZ
  Basis Set:
  @DF-RHF Final Energy:  -786.58808639095810
    Total Energy =                       -786.5880863909580967
  Basis Set: CC-PVTZ
  Basis Set:
  Basis Set: CC-PVTZ
  Basis Set:
  @DF-RHF Final Energy:  -786.58808785934843
    Total Energy =                       -786.5880878593482066
  Basis Set: CC-PVTZ
  Basis Set:
  Charge       = 0
  Multiplicity = 1
  Basis Set: CC-PVTZ
  Basis Set:

    Orbital Energies (a.u.)
    -----------------------

    Doubly Occupied:

       1A    -26.355807     2A    -26.354397     3A    -26.352396
       4A    -26.351751     5A    -26.348697     6A    -26.348081
       7A    -20.609626     8A    -11.516788     9A    -11.516028
      10A    -11.351665    11A     -1.768097    12A     -1.761683
      13A     -1.662659    14A     -1.661440    15A     -1.657181
      16A     -1.655986    17A     -1.439747    18A     -1.103659
      19A     -0.998521    20A     -0.939970    21A     -0.870384
      22A     -0.862388    23A     -0.858229    24A     -0.847406
      25A     -0.836765    26A     -0.787408    27A     -0.766460
      28A     -0.734031    29A     -0.727726    30A     -0.723439
      31A     -0.721030    32A     -0.687444    33A     -0.683580
      34A     -0.673962    35A     -0.673598    36A     -0.664774
      37A     -0.658501    38A     -0.633014    39A     -0.622806
      40A     -0.555623    41A     -0.509607

  @DF-RHF Final Energy:  -786.58808836105288

   => Energetics <=

    Nuclear Repulsion Energy =            670.5505870321077282
    One-Electron Energy =               -2428.5726428423949983
    Two-Electron Energy =                 971.4339674492346148
    DFT Exchange-Correlation Energy =       0.0000000000000000
    Empirical Dispersion Energy =           0.0000000000000000
    PCM Polarization Energy =               0.0000000000000000
    EFP Energy =                            0.0000000000000000
    Total Energy =                       -786.5880883610527690
    Molecular point group: c1
  Basis Set: CC-PVTZ
  Basis Set:

  -Total Gradient:
     Atom            X                  Y                   Z
    ------   -----------------  -----------------  -----------------
       1       -0.000584792958     0.000017857415     0.000008867414
       2        0.000864268649     0.000009214126     0.000134303105
       3       -0.000657820003     0.000092877673    -0.000470322816
       4       -0.000003627331     0.000047139247    -0.000048043382
       5        0.000024852414     0.000005001274    -0.000003887002
       6        0.000403675110    -0.000084422634     0.000311757154
       7       -0.000028154656    -0.000027839068     0.000028053255
       8        0.000017895545    -0.000003001408     0.000019288069
       9       -0.000014881639    -0.000021318108    -0.000013493521
      10       -0.000019461090    -0.000014216594     0.000007976779
      11       -0.000007944366    -0.000019046795     0.000002637422
      12        0.000005990333    -0.000002245115     0.000022863521

  **** Optimization is complete! (in 7 steps) ****
    Final optimized geometry and variables:
    Molecular point group: c1

    Geometry (in Angstrom), charge = 0, multiplicity = 1:

    H           -0.439522985228     1.697527186006     1.833389743386
    O           -0.424795817771     1.572388025951     0.901389591899
    C           -0.424824833245     0.230967987869     0.582030267323
    C            0.977199342928    -0.354223046977     0.760713503057
    C           -0.980454159093     0.110751605870    -0.834947105064
    H           -1.079734550888    -0.352743545723     1.218540795333
    F            1.372290341938    -0.106449197070     1.994512848107
    F            0.981954849174    -1.655201215721     0.599448180709
    F            1.856957490523     0.165016538207    -0.052941039209
    F           -2.229748650189     0.509968111484    -0.843320091960
    F           -0.956227193452    -1.136472999591    -1.244380357543
    F           -0.316605474124     0.835891787790    -1.694846065262

  Mulliken Charges: (a.u.)
   Center  Symbol    Alpha    Beta     Spin     Total
       1     H     0.38263  0.38263  0.00000  0.23473
       2     O     4.18523  4.18523  0.00000 -0.37047
       3     C     3.00040  3.00040  0.00000 -0.00080
       4     C     2.68154  2.68154  0.00000  0.63692
       5     C     2.67658  2.67658  0.00000  0.64685
       6     H     0.44449  0.44449  0.00000  0.11102
       7     F     4.61271  4.61271  0.00000 -0.22543
       8     F     4.60474  4.60474  0.00000 -0.20949
       9     F     4.60029  4.60029  0.00000 -0.20057
      10     F     4.60460  4.60460  0.00000 -0.20920
      11     F     4.60558  4.60558  0.00000 -0.21115
      12     F     4.60121  4.60121  0.00000 -0.20242

   Total alpha = 41.00000, Total beta = 41.00000, Total charge =  0.00000
