                              Psi4 1.0.54 Driver

  ==> Input File <==

--------------------------------------------------------------------------
set {
	reference rhf
	basis cc-pvtz
}

set_num_threads( 4 )
memory 2 gb

molecule MOL {
0 1

H	 0.078649	 -0.123066	 0.435311
N	 -0.625934	 -0.663929	 -0.000707
C	 -1.978635	 -0.158664	 0.001017
C	 -0.266538	 -1.836859	 -0.567852
H	 -2.519057	 -0.493535	 -0.876362
H	 -1.938890	 0.917202	 -0.004137
H	 -2.514266	 -0.485137	 0.884506
C	 1.205661	 -2.166466	 -0.454666
O	 -1.039046	 -2.561158	 -1.122556
H	 1.499547	 -2.232041	 0.586453
H	 1.391035	 -3.110422	 -0.940106
H	 1.804099	 -1.394834	 -0.924852

	symmetry c1
}
set optking {
	frozen_dihedral = ("
		4 2 3 5
	")
}

ee,wfn = optimize('scf', return_wfn=True)
oeprop( wfn, 'DIPOLE', 'QUADRUPOLE', 'MULLIKEN_CHARGES')
f=open( 'psi4out.xyz', 'w' )
f.write( "12  " )
f.write( str(ee) + "\n" )
f.write( MOL.save_string_xyz() )
f.close()
--------------------------------------------------------------------------

    Molecular point group: c1
  Charge       = 0
  Multiplicity = 1
  Basis Set: CC-PVTZ
  Basis Set:
  @DF-RHF Final Energy:  -247.10083449406579
    Total Energy =                       -247.1008344940657935
    Molecular point group: c1
  Basis Set: CC-PVTZ
  Basis Set:
  Basis Set: CC-PVTZ
  Basis Set:
  @DF-RHF Final Energy:  -247.10104217029524
    Total Energy =                       -247.1010421702953295
  Basis Set: CC-PVTZ
  Basis Set:
  Basis Set: CC-PVTZ
  Basis Set:
  @DF-RHF Final Energy:  -247.10088678704173
    Total Energy =                       -247.1008867870418726
  Basis Set: CC-PVTZ
  Basis Set:
  Basis Set: CC-PVTZ
  Basis Set:
  @DF-RHF Final Energy:  -247.10111309930053
    Total Energy =                       -247.1011130993002780
  Basis Set: CC-PVTZ
  Basis Set:
  @DF-RHF Final Energy:  -247.10112793390223
    Total Energy =                       -247.1011279339022053
  @DF-RHF Final Energy:  -247.10114973249330
    Total Energy =                       -247.1011497324933543
  @DF-RHF Final Energy:  -247.10115360424578
    Total Energy =                       -247.1011536042458943
  @DF-RHF Final Energy:  -247.10115557263370
    Total Energy =                       -247.1011555726337292
  @DF-RHF Final Energy:  -247.10115983918251
    Total Energy =                       -247.1011598391826283
  @DF-RHF Final Energy:  -247.09659100131577
    Total Energy =                       -247.0965910013156872
  @DF-RHF Final Energy:  -247.10119661199076
    Total Energy =                       -247.1011966119907584
  @DF-RHF Final Energy:  -247.10123739327057
    Total Energy =                       -247.1012373932704804
  @DF-RHF Final Energy:  -247.10127545674587
    Total Energy =                       -247.1012754567458956
  @DF-RHF Final Energy:  -247.10129831285877
    Total Energy =                       -247.1012983128587166
  @DF-RHF Final Energy:  -247.10130448624557
    Total Energy =                       -247.1013044862455672
  @DF-RHF Final Energy:  -247.10130992660163
    Total Energy =                       -247.1013099266018003
  @DF-RHF Final Energy:  -247.10131467533154
    Total Energy =                       -247.1013146753314231
  Basis Set: CC-PVTZ
  Basis Set:
  @DF-RHF Final Energy:  -247.10131584984586
    Total Energy =                       -247.1013158498458893
  Basis Set: CC-PVTZ
  Basis Set:
  Basis Set: CC-PVTZ
  Basis Set:
  @DF-RHF Final Energy:  -247.10131690023181
    Total Energy =                       -247.1013169002317227
  Basis Set: CC-PVTZ
  Basis Set:
  Basis Set: CC-PVTZ
  Basis Set:
  @DF-RHF Final Energy:  -247.10131790979628
    Total Energy =                       -247.1013179097964212
  Basis Set: CC-PVTZ
  Basis Set:
  Charge       = 0
  Multiplicity = 1
  Basis Set: CC-PVTZ
  Basis Set:

    Orbital Energies (a.u.)
    -----------------------

    Doubly Occupied:

       1A    -20.504957     2A    -15.576477     3A    -11.336236
       4A    -11.253337     5A    -11.228380     6A     -1.387815
       7A     -1.231648     8A     -1.016269     9A     -0.933861
      10A     -0.789398    11A     -0.690904    12A     -0.652077
      13A     -0.635468    14A     -0.586489    15A     -0.583102
      16A     -0.555147    17A     -0.547148    18A     -0.507760
      19A     -0.417071    20A     -0.390348

  @DF-RHF Final Energy:  -247.10131887976922

   => Energetics <=

    Nuclear Repulsion Energy =            181.7593872390200431
    One-Electron Energy =                -696.0736223421640716
    Two-Electron Energy =                 267.2129162233745774
    DFT Exchange-Correlation Energy =       0.0000000000000000
    Empirical Dispersion Energy =           0.0000000000000000
    PCM Polarization Energy =               0.0000000000000000
    EFP Energy =                            0.0000000000000000
    Total Energy =                       -247.1013188797694511
    Molecular point group: c1
  Basis Set: CC-PVTZ
  Basis Set:

  -Total Gradient:
     Atom            X                  Y                   Z
    ------   -----------------  -----------------  -----------------
       1        0.000000778634     0.000000395423     0.000002228723
       2       -0.000009259626    -0.000128194254     0.000445346527
       3        0.000052395883     0.000248713800    -0.000379050552
       4       -0.000003741752     0.000051702357    -0.000238814904
       5       -0.000042280364    -0.000180558607     0.000208005352
       6       -0.000000261263     0.000000812201    -0.000001161103
       7       -0.000000287642     0.000000463167     0.000000908464
       8       -0.000003815792     0.000001816393    -0.000004006524
       9        0.000002007966     0.000006796978    -0.000036919423
      10        0.000006150908     0.000021205727     0.000016865197
      11       -0.000003468108    -0.000023377165     0.000012478671
      12        0.000001781155     0.000000223980    -0.000025880428

  **** Optimization is complete! (in 21 steps) ****
    Final optimized geometry and variables:
    Molecular point group: c1

    Geometry (in Angstrom), charge = 0, multiplicity = 1:

    H            0.676180081777     1.525061741178     0.438906822196
    N           -0.047023572149     0.900882326676     0.183275831091
    C           -1.415491770011     1.349149729103     0.295635310467
    C            0.280138722534    -0.378760130582    -0.095707148925
    H           -2.036142653376     0.747372636633    -0.347521310645
    H           -1.482722320189     2.383687461322    -0.012897742910
    H           -1.789618244670     1.262062414369     1.309883331456
    C            1.759219509173    -0.692447154431    -0.072270474137
    O           -0.535202765622    -1.220841449185    -0.333088988798
    H            2.009388506037    -1.099658042478     0.900466577522
    H            1.964715941152    -1.446798235149    -0.816060153487
    H            2.377345868163     0.177324102405    -0.252910362156

  Mulliken Charges: (a.u.)
   Center  Symbol    Alpha    Beta     Spin     Total
       1     H     0.41064  0.41064  0.00000  0.17872
       2     N     3.61645  3.61645  0.00000 -0.23290
       3     C     3.08129  3.08129  0.00000 -0.16259
       4     C     2.84064  2.84064  0.00000  0.31872
       5     H     0.43466  0.43466  0.00000  0.13068
       6     H     0.45513  0.45513  0.00000  0.08974
       7     H     0.45735  0.45735  0.00000  0.08531
       8     C     3.14643  3.14643  0.00000 -0.29287
       9     O     4.21916  4.21916  0.00000 -0.43832
      10     H     0.44423  0.44423  0.00000  0.11155
      11     H     0.43619  0.43619  0.00000  0.12762
      12     H     0.45783  0.45783  0.00000  0.08434

   Total alpha = 20.00000, Total beta = 20.00000, Total charge =  0.00000

*** Psi4 exiting successfully. Buy a developer a beer!
