                              Psi4 1.0.54 Driver

  ==> Input File <==

--------------------------------------------------------------------------
set {
	reference rhf
	basis cc-pvtz
}

set_num_threads( 4 )
memory 2 gb

molecule MOL {
0 1

H	 -2.027550	 2.271215	 -2.211894
C	 -1.049428	 2.607514	 -1.841669
C	 -0.872352	 2.520220	 -0.350054
O	 -0.236183	 3.008871	 -2.599859
C	 -1.216901	 1.136108	 0.207794
H	 0.142223	 2.807502	 -0.106249
H	 -1.542559	 3.258000	 0.085616
C	 -0.247837	 0.040196	 -0.230469
H	 -1.227544	 1.195844	 1.290688
H	 -2.228272	 0.869844	 -0.089571
C	 1.181757	 0.280428	 0.247371
H	 -0.259600	 -0.030819	 -1.314870
H	 -0.591284	 -0.923375	 0.136958
C	 2.151032	 -0.811012	 -0.202643
H	 1.515939	 1.247397	 -0.115449
H	 1.191514	 0.341223	 1.333422
C	 3.580021	 -0.656538	 0.320835
H	 2.170545	 -0.847575	 -1.289412
H	 1.766632	 -1.772905	 0.124928
C	 4.327657	 0.562694	 -0.213579
H	 4.138806	 -1.549270	 0.057813
H	 3.561991	 -0.620783	 1.406976
H	 4.355973	 0.557257	 -1.298551
H	 3.867136	 1.491650	 0.100501
H	 5.351524	 0.571613	 0.142204

	symmetry c1
}
set optking {
	frozen_dihedral = ("
		3 5 8 12
	")
}

ee,wfn = optimize('scf', return_wfn=True)
oeprop( wfn, 'DIPOLE', 'QUADRUPOLE', 'MULLIKEN_CHARGES')
f=open( 'psi4out.xyz', 'w' )
f.write( "25  " )
f.write( str(ee) + "\n" )
f.write( MOL.save_string_xyz() )
f.close()
--------------------------------------------------------------------------

    Molecular point group: c1
  Charge       = 0
  Multiplicity = 1
  Basis Set: CC-PVTZ
  Basis Set:
  @DF-RHF Final Energy:  -387.25799521503217
    Total Energy =                       -387.2579952150329063
    Molecular point group: c1
  Basis Set: CC-PVTZ
  Basis Set:
  Basis Set: CC-PVTZ
  Basis Set:
  @DF-RHF Final Energy:  -387.25042948124104
    Total Energy =                       -387.2504294812410990
  Basis Set: CC-PVTZ
  Basis Set:
  Basis Set: CC-PVTZ
  Basis Set:
  @DF-RHF Final Energy:  -387.25867343689953
    Total Energy =                       -387.2586734368998123
  Basis Set: CC-PVTZ
  Basis Set:
  Basis Set: CC-PVTZ
  Basis Set:
  @DF-RHF Final Energy:  -387.25870492432261
    Total Energy =                       -387.2587049243221600
  Basis Set: CC-PVTZ
  Basis Set:
  @DF-RHF Final Energy:  -387.25874331521533
    Total Energy =                       -387.2587433152158383
  Basis Set: CC-PVTZ
  Basis Set:
  @DF-RHF Final Energy:  -387.25889771866525
    Total Energy =                       -387.2588977186649117
  Basis Set: CC-PVTZ
  Basis Set:
  Basis Set: CC-PVTZ
  Basis Set:
  @DF-RHF Final Energy:  -387.25891865800094
    Total Energy =                       -387.2589186580011074
  Basis Set: CC-PVTZ
  Basis Set:
  Basis Set: CC-PVTZ
  Basis Set:
  @DF-RHF Final Energy:  -387.25892025232855
    Total Energy =                       -387.2589202523290624
  Basis Set: CC-PVTZ
  Basis Set:
  Charge       = 0
  Multiplicity = 1
  Basis Set: CC-PVTZ
  Basis Set:

    Orbital Energies (a.u.)
    -----------------------

    Doubly Occupied:

       1A    -20.551976     2A    -11.321267     3A    -11.233608
       4A    -11.232929     5A    -11.221697     6A    -11.214722
       7A    -11.213583     8A    -11.212754     9A    -11.204616
      10A     -1.406741    11A     -1.104233    12A     -1.068071
      13A     -1.010633    14A     -0.943775    15A     -0.878409
      16A     -0.821328    17A     -0.786708    18A     -0.774003
      19A     -0.668985    20A     -0.657909    21A     -0.641826
      22A     -0.616833    23A     -0.610691    24A     -0.596265
      25A     -0.567960    26A     -0.549284    27A     -0.541495
      28A     -0.520334    29A     -0.517581    30A     -0.499370
      31A     -0.481358    32A     -0.477246    33A     -0.462472
      34A     -0.453952    35A     -0.443347    36A     -0.411803

  @DF-RHF Final Energy:  -387.25892115437910

   => Energetics <=

    Nuclear Repulsion Energy =            451.9706732112376812
    One-Electron Energy =               -1420.6196599452973715
    Two-Electron Energy =                 581.3900655796801402
    DFT Exchange-Correlation Energy =       0.0000000000000000
    Empirical Dispersion Energy =           0.0000000000000000
    PCM Polarization Energy =               0.0000000000000000
    EFP Energy =                            0.0000000000000000
    Total Energy =                       -387.2589211543795500
    Molecular point group: c1
  Basis Set: CC-PVTZ
  Basis Set:

  -Total Gradient:
     Atom            X                  Y                   Z
    ------   -----------------  -----------------  -----------------
       1        0.000029599435    -0.000041934529    -0.000010532349
       2        0.000035299894    -0.000008789117    -0.000017104699
       3        0.000061463993    -0.000028861196     0.000089694010
       4       -0.000054805569     0.000046530518     0.000030043948
       5       -0.000136376904    -0.000032135869    -0.000133657598
       6        0.000002387932    -0.000016874188     0.000012262390
       7        0.000012095655     0.000046970506    -0.000011457749
       8        0.000129957453     0.000152526422     0.000045468298
       9        0.000020000269    -0.000003779738    -0.000006142092
      10       -0.000011237539     0.000005581621     0.000010424682
      11        0.000000851351     0.000002003791     0.000000264200
      12       -0.000094396011    -0.000113503488    -0.000003742870
      13        0.000005259900    -0.000007021635    -0.000002437501
      14        0.000004362877    -0.000004099547    -0.000001206939
      15        0.000009153529    -0.000000322152     0.000000651284
      16       -0.000008374580     0.000001995663    -0.000004300801
      17        0.000003921797    -0.000000142766    -0.000005950389
      18       -0.000003498253    -0.000004254491    -0.000002799831
      19        0.000003811560     0.000002432742     0.000004883631
      20       -0.000004523406     0.000000486398    -0.000000707490
      21       -0.000001158408     0.000000677583     0.000006405594
      22       -0.000004918585     0.000003670978     0.000001075295
      23       -0.000004204554     0.000002923966    -0.000000702152
      24        0.000003254905    -0.000000587359     0.000003886488
      25        0.000002073257    -0.000003494113    -0.000004317363

  **** Optimization is complete! (in 9 steps) ****
    Final optimized geometry and variables:
    Molecular point group: c1

    Geometry (in Angstrom), charge = 0, multiplicity = 1:

    H           -2.986838692450     1.034187099677    -1.666819477039
    C           -2.137857427974     1.502595934110    -1.150816728413
    C           -2.062827039517     1.230903209701     0.326620902664
    O           -1.370891050874     2.167406346067    -1.757480570414
    C           -2.102273309353    -0.267254732201     0.651974861848
    H           -1.180033771538     1.713084816511     0.721327716769
    H           -2.929551991311     1.708749430808     0.777756649820
    C           -0.931212864512    -1.086017921589     0.102296218660
    H           -2.144406063104    -0.379419037650     1.730150870565
    H           -3.030230228041    -0.683319392676     0.269767856123
    C            0.437851486941    -0.706651058412     0.664386554024
    H           -0.905698257549    -1.009014025269    -0.981943169372
    H           -1.124402314214    -2.131874937683     0.321927784398
    C            1.548617974693    -1.633195046875     0.172446315845
    H            0.671468802834     0.315969115478     0.394023493151
    H            0.400029555723    -0.740156462168     1.751441237734
    C            2.932006484061    -1.342013475081     0.756799529562
    H            1.601856713858    -1.583276113407    -0.912589057554
    H            1.280672717446    -2.657686414816     0.416181955122
    C            3.536017646499    -0.005389871577     0.332907134245
    H            3.604888148622    -2.138639651129     0.454696789973
    H            2.879411799981    -1.386651605513     1.841613629958
    H            3.592769427696     0.070925868655    -0.748024645428
    H            2.955783356432     0.835734610555     0.692247984471
    H            4.541140289723     0.102402315497     0.724338188490

  Mulliken Charges: (a.u.)
   Center  Symbol    Alpha    Beta     Spin     Total
       1     H     0.46200  0.46200  0.00000  0.07600
       2     C     2.90527  2.90527  0.00000  0.18945
       3     C     3.09933  3.09933  0.00000 -0.19865
       4     O     4.16691  4.16691  0.00000 -0.33382
       5     C     3.12048  3.12048  0.00000 -0.24096
       6     H     0.43934  0.43934  0.00000  0.12133
       7     H     0.43639  0.43639  0.00000  0.12723
       8     C     3.10056  3.10056  0.00000 -0.20111
       9     H     0.44270  0.44270  0.00000  0.11460
      10     H     0.44290  0.44290  0.00000  0.11421
      11     C     3.09350  3.09350  0.00000 -0.18701
      12     H     0.45015  0.45015  0.00000  0.09971
      13     H     0.44391  0.44391  0.00000  0.11219
      14     C     3.09574  3.09574  0.00000 -0.19147
      15     H     0.44493  0.44493  0.00000  0.11013
      16     H     0.45441  0.45441  0.00000  0.09119
      17     C     3.09026  3.09026  0.00000 -0.18053
      18     H     0.45168  0.45168  0.00000  0.09664
      19     H     0.44989  0.44989  0.00000  0.10023
      20     C     3.15221  3.15221  0.00000 -0.30442
      21     H     0.44848  0.44848  0.00000  0.10304
      22     H     0.45550  0.45550  0.00000  0.08901
      23     H     0.45309  0.45309  0.00000  0.09383
      24     H     0.45367  0.45367  0.00000  0.09266
      25     H     0.44673  0.44673  0.00000  0.10653

   Total alpha = 36.00000, Total beta = 36.00000, Total charge =  0.00000

*** Psi4 exiting successfully. Buy a developer a beer!
