                              Psi4 1.0.54 Driver

  ==> Input File <==

--------------------------------------------------------------------------
set {
	reference rhf
	basis cc-pvtz
}

set_num_threads( 4 )
memory 2 gb

molecule MOL {
0 1

H	 -1.687097	 -2.493234	 -2.122858
C	 -2.367221	 -1.738413	 -1.705051
C	 -2.259783	 -1.543071	 -0.217036
O	 -3.115129	 -1.159189	 -2.413881
C	 -0.821411	 -1.292667	 0.245632
H	 -2.918615	 -0.734784	 0.072701
H	 -2.629215	 -2.456819	 0.243279
C	 -0.247837	 0.040196	 -0.230469
H	 -0.798783	 -1.328203	 1.329405
H	 -0.186622	 -2.106548	 -0.096177
C	 1.181757	 0.280428	 0.247371
H	 -0.886610	 0.846628	 0.119877
H	 -0.275210	 0.085940	 -1.316095
C	 2.151032	 -0.811012	 -0.202643
H	 1.515939	 1.247397	 -0.115449
H	 1.191514	 0.341223	 1.333422
C	 3.580021	 -0.656538	 0.320835
H	 2.170545	 -0.847575	 -1.289412
H	 1.766632	 -1.772905	 0.124928
C	 4.327657	 0.562694	 -0.213579
H	 4.138806	 -1.549270	 0.057813
H	 3.561991	 -0.620783	 1.406976
H	 4.355973	 0.557257	 -1.298551
H	 3.867136	 1.491650	 0.100501
H	 5.351524	 0.571613	 0.142204

	symmetry c1
}
set optking {
	frozen_dihedral = ("
		12 8 11 14
	")
}

ee,wfn = optimize('scf', return_wfn=True)
oeprop( wfn, 'DIPOLE', 'QUADRUPOLE', 'MULLIKEN_CHARGES')
f=open( 'psi4out.xyz', 'w' )
f.write( "25  " )
f.write( str(ee) + "\n" )
f.write( MOL.save_string_xyz() )
f.close()
--------------------------------------------------------------------------

    Molecular point group: c1
  Charge       = 0
  Multiplicity = 1
  Basis Set: CC-PVTZ
  Basis Set:
  @DF-RHF Final Energy:  -387.25682667934467
    Total Energy =                       -387.2568266793443854
    Molecular point group: c1
  Basis Set: CC-PVTZ
  Basis Set:
  Basis Set: CC-PVTZ
  Basis Set:
  @DF-RHF Final Energy:  -386.34842060968447
    Total Energy =                       -386.3484206096843536
  Basis Set: CC-PVTZ
  Basis Set:
  Basis Set: CC-PVTZ
  Basis Set:
  @DF-RHF Final Energy:  -386.58545134386196
    Total Energy =                       -386.5854513438616777
  Basis Set: CC-PVTZ
  Basis Set:
  Basis Set: CC-PVTZ
  Basis Set:
  @DF-RHF Final Energy:  -386.94534403571328
    Total Energy =                       -386.9453440357135605
  Basis Set: CC-PVTZ
  Basis Set:
  @DF-RHF Final Energy:  -387.16259898334363
    Total Energy =                       -387.1625989833435142
  @DF-RHF Final Energy:  -387.24309072123236
    Total Energy =                       -387.2430907212324200
  @DF-RHF Final Energy:  -387.25473371524481
    Total Energy =                       -387.2547337152446971
  @DF-RHF Final Energy:  -387.25770022549153
    Total Energy =                       -387.2577002254913623
  @DF-RHF Final Energy:  -387.25635716852685
    Total Energy =                       -387.2563571685266197
  @DF-RHF Final Energy:  -387.25814062386087
    Total Energy =                       -387.2581406238608679
  @DF-RHF Final Energy:  -387.25819750858534
    Total Energy =                       -387.2581975085851127
  Basis Set: CC-PVTZ
  Basis Set:
  @DF-RHF Final Energy:  -387.25821259794014
    Total Energy =                       -387.2582125979400871
  Basis Set: CC-PVTZ
  Basis Set:
  Basis Set: CC-PVTZ
  Basis Set:
  @DF-RHF Final Energy:  -387.25821192699266
    Total Energy =                       -387.2582119269923169
  Basis Set: CC-PVTZ
  Basis Set:
  Basis Set: CC-PVTZ
  Basis Set:
  @DF-RHF Final Energy:  -387.25821863125572
    Total Energy =                       -387.2582186312557724
  Basis Set: CC-PVTZ
  Basis Set:
  Charge       = 0
  Multiplicity = 1
  Basis Set: CC-PVTZ
  Basis Set:

    Orbital Energies (a.u.)
    -----------------------

    Doubly Occupied:

       1A    -20.551125     2A    -11.320815     3A    -11.233562
       4A    -11.232116     5A    -11.222383     6A    -11.218175
       7A    -11.217588     8A    -11.216584     9A    -11.209133
      10A     -1.406173    11A     -1.105632    12A     -1.070272
      13A     -1.014007    14A     -0.941681    15A     -0.883585
      16A     -0.822234    17A     -0.793196    18A     -0.773190
      19A     -0.668957    20A     -0.652734    21A     -0.637154
      22A     -0.629020    23A     -0.612976    24A     -0.591448
      25A     -0.572118    26A     -0.563779    27A     -0.534036
      28A     -0.524142    29A     -0.519675    30A     -0.498583
      31A     -0.487104    32A     -0.480100    33A     -0.464346
      34A     -0.451705    35A     -0.448073    36A     -0.411442

  @DF-RHF Final Energy:  -387.25821918185676

   => Energetics <=

    Nuclear Repulsion Energy =            444.1797979302188537
    One-Electron Energy =               -1404.9183431630399355
    Two-Electron Energy =                 573.4803260509640950
    DFT Exchange-Correlation Energy =       0.0000000000000000
    Empirical Dispersion Energy =           0.0000000000000000
    PCM Polarization Energy =               0.0000000000000000
    EFP Energy =                            0.0000000000000000
    Total Energy =                       -387.2582191818569299
    Molecular point group: c1
  Basis Set: CC-PVTZ
  Basis Set:

  -Total Gradient:
     Atom            X                  Y                   Z
    ------   -----------------  -----------------  -----------------
       1        0.000004009985    -0.000013098607    -0.000041697588
       2       -0.000049857016     0.000058628448     0.000003614416
       3        0.000112234997    -0.000051571841     0.000027005057
       4        0.000005678230    -0.000039689777     0.000006725100
       5       -0.000048164395     0.000047363795    -0.000001248571
       6       -0.000009100949     0.000018566630     0.000000573169
       7       -0.000020344656     0.000018796108     0.000007799193
       8        0.000162967780     0.000762098140    -0.001228856227
       9       -0.000002762121     0.000003356882    -0.000019717764
      10       -0.000005943551    -0.000004964131    -0.000000703628
      11        0.000187967085     0.000764668059    -0.001118425665
      12       -0.000197358688    -0.000876964960     0.001357416076
      13       -0.000008130756    -0.000001625802     0.000009033757
      14       -0.000152426804    -0.000689442331     0.001005429984
      15        0.000002410908     0.000002039755    -0.000011764327
      16       -0.000004804726    -0.000016445563     0.000003964584
      17        0.000005696484     0.000023794954    -0.000016219301
      18        0.000005857126     0.000009361186    -0.000000993170
      19        0.000022637176     0.000002444508     0.000004589683
      20       -0.000023223381    -0.000011576179     0.000013273363
      21        0.000005008744    -0.000008516596     0.000002675227
      22       -0.000005828961    -0.000000442136    -0.000013583775
      23       -0.000001632033    -0.000002675571     0.000013513966
      24        0.000001731393     0.000011849620     0.000001347648
      25        0.000013378118    -0.000005954589    -0.000003751205

  **** Optimization is complete! (in 15 steps) ****
    Final optimized geometry and variables:
    Molecular point group: c1

    Geometry (in Angstrom), charge = 0, multiplicity = 1:

    H           -3.172823581632    -0.124031557283    -0.593111100129
    C           -3.081278389079     0.704347690072     0.122741040064
    C           -2.315944570648     0.377444602422     1.376542460259
    O           -3.575817213087     1.750803908069    -0.117281979636
    C           -0.954081429737    -0.262625165912     1.090559854896
    H           -2.218745019715     1.280239022104     1.965436473285
    H           -2.929090549689    -0.323547752436     1.938813841946
    C            0.029340386626     0.694943948226     0.416184276795
    H           -0.533773146596    -0.607721463221     2.029624946772
    H           -1.102126143205    -1.147763783621     0.480755393538
    C            1.451057472451     0.151152494500     0.256488686835
    H            0.076654004504     1.599968640683     1.014626214747
    H           -0.354787644714     0.991100795092    -0.556611453272
    C            1.564795575145    -1.131881251600    -0.566983653045
    H            2.054820724435     0.930017271424    -0.194968409428
    H            1.874196336839    -0.027138668969     1.242854166361
    C            2.999887359417    -1.620411583412    -0.779179940634
    H            1.092559978666    -0.982581249724    -1.536141058203
    H            1.009680326949    -1.924000081026    -0.076603205706
    C            3.856285504653    -0.726760538378    -1.673031921355
    H            2.961536540104    -2.612635131045    -1.217983244848
    H            3.484862889789    -1.736459446912     0.186583255632
    H            3.393659688402    -0.592025813383    -2.645447062925
    H            4.010713082164     0.254670380588    -1.241646113260
    H            4.833497627062    -1.168135244991    -1.832011644444

  Mulliken Charges: (a.u.)
   Center  Symbol    Alpha    Beta     Spin     Total
       1     H     0.46418  0.46418  0.00000  0.07164
       2     C     2.90470  2.90470  0.00000  0.19059
       3     C     3.08810  3.08810  0.00000 -0.17621
       4     O     4.16645  4.16645  0.00000 -0.33290
       5     C     3.11856  3.11856  0.00000 -0.23711
       6     H     0.44292  0.44292  0.00000  0.11416
       7     H     0.44028  0.44028  0.00000  0.11944
       8     C     3.09851  3.09851  0.00000 -0.19702
       9     H     0.44273  0.44273  0.00000  0.11454
      10     H     0.44792  0.44792  0.00000  0.10416
      11     C     3.10064  3.10064  0.00000 -0.20127
      12     H     0.44381  0.44381  0.00000  0.11237
      13     H     0.44646  0.44646  0.00000  0.10708
      14     C     3.10041  3.10041  0.00000 -0.20082
      15     H     0.44333  0.44333  0.00000  0.11334
      16     H     0.45272  0.45272  0.00000  0.09456
      17     C     3.08949  3.08949  0.00000 -0.17898
      18     H     0.45329  0.45329  0.00000  0.09342
      19     H     0.44697  0.44697  0.00000  0.10606
      20     C     3.15145  3.15145  0.00000 -0.30289
      21     H     0.44799  0.44799  0.00000  0.10402
      22     H     0.45451  0.45451  0.00000  0.09097
      23     H     0.45439  0.45439  0.00000  0.09122
      24     H     0.45392  0.45392  0.00000  0.09217
      25     H     0.44626  0.44626  0.00000  0.10748

   Total alpha = 36.00000, Total beta = 36.00000, Total charge = -0.00000

*** Psi4 exiting successfully. Buy a developer a beer!
