  ==> Input File <==

--------------------------------------------------------------------------
set {
	reference rhf
	basis cc-pvtz
}

set_num_threads( 4 )
memory 2 gb

molecule MOL {
0 1

H	 3.273419	 0.176595	 -0.102789
N	 2.433987	 -0.362316	 -0.080024
C	 1.263552	 0.494993	 0.021953
H	 2.497638	 -0.973615	 0.707122
C	 -0.016533	 -0.325589	 -0.026925
H	 1.280915	 1.180773	 -0.818522
H	 1.263064	 1.106893	 0.925038
C	 -1.280353	 0.525521	 0.047747
H	 -0.016686	 -0.912532	 -0.939714
H	 -0.014099	 -1.037598	 0.796369
C	 -2.334478	 -0.052629	 0.986125
H	 -1.703806	 0.627240	 -0.947897
H	 -1.022863	 1.529993	 0.372724
H	 -2.638271	 -1.044451	 0.668748
H	 -3.220208	 0.571571	 1.014538
H	 -1.954283	 -0.133478	 1.999089

	symmetry c1
}
set optking {
	frozen_dihedral = ("
		12 8 5 9
	")
}

ee = optimize('scf')
oeprop('DIPOLE', 'QUADRUPOLE', 'MULLIKEN_CHARGES')
f=open( 'psi4out.xyz', 'w' )
f.write( "16  " )
f.write( str(ee) + "\n" )
f.write( MOL.save_string_xyz() )
f.close()
--------------------------------------------------------------------------

    Molecular point group: c1
  Charge       = 0
  Multiplicity = 1
  Basis Set: CC-PVTZ
  Basis Set:
  @DF-RHF Final Energy:  -212.39584296488601
    Total Energy =                       -212.3958429648861284
    Molecular point group: c1
  Basis Set: CC-PVTZ
  Basis Set:
  Basis Set: CC-PVTZ
  Basis Set:
  @DF-RHF Final Energy:  -212.39610861036715
    Total Energy =                       -212.3961086103674916
  Basis Set: CC-PVTZ
  Basis Set:
  Basis Set: CC-PVTZ
  Basis Set:
  @DF-RHF Final Energy:  -212.39616814981289
    Total Energy =                       -212.3961681498129224
  Basis Set: CC-PVTZ
  Basis Set:
  Charge       = 0
  Multiplicity = 1
  Basis Set: CC-PVTZ
  Basis Set:

    Orbital Energies (a.u.)
    -----------------------

    Doubly Occupied:

       1A    -15.526516     2A    -11.238394     3A    -11.212917
       4A    -11.207774     5A    -11.206401     6A     -1.178427
       7A     -1.058689     8A     -0.959712     9A     -0.844468
      10A     -0.792456    11A     -0.662860    12A     -0.640555
      13A     -0.598106    14A     -0.588930    15A     -0.564837
      16A     -0.517184    17A     -0.509534    18A     -0.469392
      19A     -0.461912    20A     -0.459890    21A     -0.384162

  @DF-RHF Final Energy:  -212.39616906335880

   => Energetics <=

    Nuclear Repulsion Energy =            186.6625911225662549
    One-Electron Energy =                -655.9512905917417811
    Two-Electron Energy =                 256.8925304058166148
    DFT Exchange-Correlation Energy =       0.0000000000000000
    Empirical Dispersion Energy =           0.0000000000000000
    PCM Polarization Energy =               0.0000000000000000
    EFP Energy =                            0.0000000000000000
    Total Energy =                       -212.3961690633589114
    Molecular point group: c1
  Basis Set: CC-PVTZ
  Basis Set:

  -Total Gradient:
     Atom            X                  Y                   Z
    ------   -----------------  -----------------  -----------------
       1        0.000037710155    -0.000017277430     0.000000210650
       2        0.000078155145    -0.000002443726     0.000000006537
       3       -0.000074441812    -0.000063429040    -0.000011698707
       4        0.000012169141     0.000002966605     0.000001007504
       5       -0.002470078972    -0.003725764456     0.002076755545
       6       -0.000000921940    -0.000001935693     0.000009543789
       7       -0.000010399829     0.000025536223     0.000000030223
       8        0.002637186056     0.003990576494    -0.000944185197
       9        0.001645393561     0.002512696780    -0.001616353361
      10        0.000002352453     0.000019068003    -0.000001224760
      11        0.000002419903     0.000044268153    -0.000029441975
      12       -0.001858483729    -0.002772225727     0.000498043488
      13        0.000010535642    -0.000007513495     0.000016280460
      14        0.000006008479    -0.000004705397     0.000006156814
      15       -0.000019815906    -0.000002753039    -0.000000450073
      16        0.000002211650     0.000002935745    -0.000004680933

  **** Optimization is complete! (in 4 steps) ****
    Final optimized geometry and variables:
    Molecular point group: c1

    Geometry (in Angstrom), charge = 0, multiplicity = 1:

    H            3.233155847744     0.130738659951    -0.357541561817
    N            2.396055170949    -0.411067918343    -0.320414512588
    C            1.225719448323     0.439084693720    -0.177389910713
    H            2.481973305508    -1.033462187506     0.455935309654
    C           -0.054736767934    -0.386104257106    -0.194573944970
    H            1.213818714061     1.132256649087    -1.012310388959
    H            1.247261959316     1.044245744811     0.730255100186
    C           -1.323896582449     0.480674282892    -0.138392189383
    H           -0.041945170729    -0.980082353322    -1.100748987091
    H           -0.036986441677    -1.078406559265     0.642812016434
    C           -2.409846919656    -0.098488440645     0.765362757150
    H           -1.735788362868     0.580444427842    -1.136890932164
    H           -1.077297326091     1.481209376557     0.202584530453
    H           -2.692954105600    -1.095551409926     0.444229235653
    H           -3.301713063548     0.517981992359     0.754964906053
    H           -2.066801102084    -0.169303030375     1.792341006594

  Mulliken Charges: (a.u.)
   Center  Symbol    Alpha    Beta     Spin     Total
       1     H     0.43009  0.43009  0.00000  0.13982
       2     N     3.69008  3.69008  0.00000 -0.38017
       3     C     3.02433  3.02433  0.00000 -0.04866
       4     H     0.43084  0.43084  0.00000  0.13833
       5     C     3.08403  3.08403  0.00000 -0.16805
       6     H     0.45644  0.45644  0.00000  0.08713
       7     H     0.46946  0.46946  0.00000  0.06108
       8     C     3.09124  3.09124  0.00000 -0.18248
       9     H     0.44761  0.44761  0.00000  0.10477
      10     H     0.46009  0.46009  0.00000  0.07981
      11     C     3.14817  3.14817  0.00000 -0.29633
      12     H     0.45116  0.45116  0.00000  0.09767
      13     H     0.45628  0.45628  0.00000  0.08745
      14     H     0.45378  0.45378  0.00000  0.09243
      15     H     0.44977  0.44977  0.00000  0.10047
      16     H     0.45664  0.45664  0.00000  0.08673

   Total alpha = 21.00000, Total beta = 21.00000, Total charge = -0.00000
