  ==> Input File <==

--------------------------------------------------------------------------
set {
	reference rhf
	basis cc-pvtz
}

set_num_threads( 4 )
memory 2 gb

molecule MOL {
0 1

H	 -0.830157	 -2.505923	 -0.210533
N	 -0.101726	 -1.832937	 -0.320311
C	 -0.561396	 -0.500007	 0.035200
H	 0.189353	 -1.866801	 -1.275016
C	 0.575129	 0.507849	 -0.048832
H	 -0.930492	 -0.536864	 1.054821
H	 -1.390495	 -0.156418	 -0.585247
C	 1.951750	 -0.141983	 0.035101
H	 0.478254	 1.061643	 -0.975981
H	 0.467676	 1.231891	 0.755499
H	 2.101550	 -0.848142	 -0.774949
H	 2.738260	 0.600794	 -0.026526
H	 2.078939	 -0.679792	 0.968824

	symmetry c1
}
set optking {
	frozen_dihedral = ("
		6 3 5 9
	")
}

ee = optimize('scf')
oeprop('DIPOLE', 'QUADRUPOLE', 'MULLIKEN_CHARGES')
f=open( 'psi4out.xyz', 'w' )
f.write( "13  " )
f.write( str(ee) + "\n" )
f.write( MOL.save_string_xyz() )
f.close()
--------------------------------------------------------------------------

    Molecular point group: c1
  Charge       = 0
  Multiplicity = 1
  Basis Set: CC-PVTZ
  Basis Set:
  @DF-RHF Final Energy:  -173.34339810315831
    Total Energy =                       -173.3433981031583357
    Molecular point group: c1
  Basis Set: CC-PVTZ
  Basis Set:
  Basis Set: CC-PVTZ
  Basis Set:
  @DF-RHF Final Energy:  -173.34470217120543
    Total Energy =                       -173.3447021712055118
  Basis Set: CC-PVTZ
  Basis Set:
  Basis Set: CC-PVTZ
  Basis Set:
  @DF-RHF Final Energy:  -173.34604282169420
    Total Energy =                       -173.3460428216942830
  Basis Set: CC-PVTZ
  Basis Set:
  Basis Set: CC-PVTZ
  Basis Set:
  @DF-RHF Final Energy:  -173.34613977089069
    Total Energy =                       -173.3461397708904883
  Basis Set: CC-PVTZ
  Basis Set:
  Basis Set: CC-PVTZ
  Basis Set:
  @DF-RHF Final Energy:  -173.34614700003775
    Total Energy =                       -173.3461470000377744
  Basis Set: CC-PVTZ
  Basis Set:
  Charge       = 0
  Multiplicity = 1
  Basis Set: CC-PVTZ
  Basis Set:

    Orbital Energies (a.u.)
    -----------------------

    Doubly Occupied:

       1A    -15.527615     2A    -11.239175     3A    -11.210750
       4A    -11.198749     5A     -1.178649     6A     -1.027820
       7A     -0.906344     8A     -0.787542     9A     -0.668283
      10A     -0.626403    11A     -0.599925    12A     -0.560724
      13A     -0.533910    14A     -0.493648    15A     -0.471479
      16A     -0.459704    17A     -0.382417

  @DF-RHF Final Energy:  -173.34614738126351

   => Energetics <=

    Nuclear Repulsion Energy =            133.8843213459524577
    One-Electron Energy =                -498.7146655669034772
    Two-Electron Energy =                 191.4841968396874563
    DFT Exchange-Correlation Energy =       0.0000000000000000
    Empirical Dispersion Energy =           0.0000000000000000
    PCM Polarization Energy =               0.0000000000000000
    EFP Energy =                            0.0000000000000000
    Total Energy =                       -173.3461473812635631
    Molecular point group: c1
  Basis Set: CC-PVTZ
  Basis Set:

  -Total Gradient:
     Atom            X                  Y                   Z
    ------   -----------------  -----------------  -----------------
       1       -0.000002931890     0.000014230137     0.000001905019
       2        0.000011686982    -0.000003113928     0.000023289141
       3        0.004426479510    -0.004720419553     0.002346377540
       4       -0.000004293252     0.000016383805     0.000004412431
       5        0.003437804999    -0.004444723844    -0.004151363922
       6       -0.004288414197     0.004676901984    -0.001303071337
       7        0.000010034426    -0.000001635615     0.000000057572
       8       -0.000008628878     0.000003174835    -0.000014515207
       9       -0.003575070687     0.004462288491     0.003071001315
      10       -0.000000943347    -0.000008398438     0.000005327203
      11       -0.000003220467     0.000006749140     0.000000633009
      12       -0.000004075561     0.000003631014     0.000009613365
      13        0.000001572363    -0.000005068028     0.000006333870

  **** Optimization is complete! (in 6 steps) ****
    Final optimized geometry and variables:
    Molecular point group: c1

    Geometry (in Angstrom), charge = 0, multiplicity = 1:

    H           -1.402856223409    -1.975239584347    -0.102323567110
    N           -0.648237704229    -1.344945464859    -0.271883993794
    C           -1.004733952560     0.001483290653     0.142629961130
    H           -0.454028534439    -1.379051465101    -1.251064812637
    C            0.146686627041     1.014540281543     0.019172864049
    H           -1.348860511474    -0.027405396127     1.170053419473
    H           -1.851771243307     0.395649308121    -0.420235597539
    C            1.553484226598     0.447063923378     0.164173906608
    H            0.045102861080     1.573034370681    -0.906836208896
    H           -0.004226216056     1.762177202208     0.793088378457
    H            1.795934248980    -0.245794680019    -0.630578890042
    H            2.282754754562     1.249398094719     0.143642067643
    H            1.664344542294    -0.086356628626     1.100557552510

  Mulliken Charges: (a.u.)
   Center  Symbol    Alpha    Beta     Spin     Total
       1     H     0.42907  0.42907  0.00000  0.14185
       2     N     3.68597  3.68597  0.00000 -0.37195
       3     C     3.03309  3.03309  0.00000 -0.06617
       4     H     0.43140  0.43140  0.00000  0.13720
       5     C     3.09487  3.09487  0.00000 -0.18974
       6     H     0.45612  0.45612  0.00000  0.08776
       7     H     0.46383  0.46383  0.00000  0.07234
       8     C     3.13682  3.13682  0.00000 -0.27364
       9     H     0.45316  0.45316  0.00000  0.09368
      10     H     0.45412  0.45412  0.00000  0.09177
      11     H     0.45648  0.45648  0.00000  0.08705
      12     H     0.45260  0.45260  0.00000  0.09481
      13     H     0.45248  0.45248  0.00000  0.09504

   Total alpha = 17.00000, Total beta = 17.00000, Total charge =  0.00000
