  ==> Input File <==

--------------------------------------------------------------------------
set {
	reference rhf
	basis 6-31G*
}

set_num_threads( 4 )
memory 2 gb

molecule MOL {
0 1

H	 -2.301730	 1.176996	 -1.136602
C	 -1.456915	 1.847292	 -1.034933
C	 -0.140930	 1.080660	 -1.091661
H	 -1.563577	 2.366525	 -0.090315
H	 -1.502144	 2.578927	 -1.834896
C	 -0.000005	 0.033229	 -0.000001
H	 0.705379	 1.760541	 -1.014734
H	 -0.026247	 0.581469	 -2.051897
C	 1.290528	 -0.768786	 0.000276
O	 -0.854949	 -0.149192	 0.811773
C	 2.545731	 0.095645	 -0.000061
H	 1.275672	 -1.427874	 -0.865626
H	 1.275566	 -1.427086	 0.866768
H	 2.577157	 0.734767	 -0.874036
H	 3.433520	 -0.528139	 0.000137
H	 2.577172	 0.735117	 0.873581

	symmetry c1
}
set optking {
	frozen_dihedral = ("
		3 6 9 12
	")
}

ee = optimize('scf')
oeprop('DIPOLE', 'QUADRUPOLE', 'MULLIKEN_CHARGES')
f=open( 'psi4out.xyz', 'w' )
f.write( "16  " )
f.write( str(ee) + "\n" )
f.write( MOL.save_string_xyz() )
f.close()
--------------------------------------------------------------------------

    Molecular point group: c1
  Charge       = 0
  Multiplicity = 1
  Basis Set: 6-31G*
  Basis Set:
  @DF-RHF Final Energy:  -270.02934583847195
    Total Energy =                       -270.0293458384721816
    Molecular point group: c1
  Basis Set: 6-31G*
  Basis Set:
  Basis Set: 6-31G*
  Basis Set:
  @DF-RHF Final Energy:  -270.02962850184991
    Total Energy =                       -270.0296285018500271
  Basis Set: 6-31G*
  Basis Set:
  Basis Set: 6-31G*
  Basis Set:
  @DF-RHF Final Energy:  -270.03033065785024
    Total Energy =                       -270.0303306578502429
  Basis Set: 6-31G*
  Basis Set:
  Basis Set: 6-31G*
  Basis Set:
  @DF-RHF Final Energy:  -270.03036995132015
    Total Energy =                       -270.0303699513203810
  Basis Set: 6-31G*
  Basis Set:
  Basis Set: 6-31G*
  Basis Set:
  @DF-RHF Final Energy:  -270.03049137678715
    Total Energy =                       -270.0304913767871540
  Basis Set: 6-31G*
  Basis Set:
  Basis Set: 6-31G*
  Basis Set:
  @DF-RHF Final Energy:  -270.03052827996294
    Total Energy =                       -270.0305282799628230
  Basis Set: 6-31G*
  Basis Set:
  Basis Set: 6-31G*
  Basis Set:
  @DF-RHF Final Energy:  -270.03052990273557
    Total Energy =                       -270.0305299027357933
  Basis Set: 6-31G*
  Basis Set:
  Charge       = 0
  Multiplicity = 1
  Basis Set: 6-31G*
  Basis Set:

    Orbital Energies (a.u.)
    -----------------------

    Doubly Occupied:

       1A    -20.549147     2A    -11.322826     3A    -11.233487
       4A    -11.232819     5A    -11.229611     6A    -11.213242
       7A     -1.394416     8A     -1.073062     9A     -1.035087
      10A     -0.908866    11A     -0.863488    12A     -0.724046
      13A     -0.660759    14A     -0.639624    15A     -0.631525
      16A     -0.607851    17A     -0.556722    18A     -0.543861
      19A     -0.533781    20A     -0.510668    21A     -0.505628
      22A     -0.495458    23A     -0.479684    24A     -0.396630

  @DF-RHF Final Energy:  -270.03053009063308

   => Energetics <=

    Nuclear Repulsion Energy =            240.4779763455150317
    One-Electron Energy =                -842.3324422410524903
    Two-Electron Energy =                 331.8239358049044085
    DFT Exchange-Correlation Energy =       0.0000000000000000
    Empirical Dispersion Energy =           0.0000000000000000
    PCM Polarization Energy =               0.0000000000000000
    EFP Energy =                            0.0000000000000000
    Total Energy =                       -270.0305300906330785
    Molecular point group: c1
  Basis Set: 6-31G*
  Basis Set:

  -Total Gradient:
     Atom            X                  Y                   Z
    ------   -----------------  -----------------  -----------------
       1       -0.000006730360     0.000002068423     0.000000560404
       2        0.000001128149    -0.000000044826    -0.000002581620
       3        0.000134725901     0.000177795143     0.000166661865
       4        0.000000448559    -0.000001753922    -0.000003111817
       5       -0.000003806619     0.000000547931    -0.000000310995
       6       -0.000237259731    -0.000328483203    -0.000187214284
       7        0.000007804164     0.000001133277     0.000002315889
       8        0.000000019371     0.000004168091     0.000002443842
       9        0.000272489488     0.000385002536    -0.000167295179
      10        0.000013408635    -0.000001627936    -0.000010950738
      11        0.000005144917     0.000008477144    -0.000002272361
      12       -0.000173537473    -0.000254296097     0.000206688002
      13       -0.000010586988     0.000000040721    -0.000000666825
      14        0.000004717343     0.000005490471    -0.000005356739
      15       -0.000010626536     0.000002151509    -0.000000436746
      16        0.000002661183    -0.000000669260     0.000001527298

  **** Optimization is complete! (in 8 steps) ****
    Final optimized geometry and variables:
    Molecular point group: c1

    Geometry (in Angstrom), charge = 0, multiplicity = 1:

    H           -2.510048873708     0.655028035477    -1.078941634660
    C           -1.754811547953     1.404351595255    -0.872320234909
    C           -0.363442021593     0.782840305550    -0.828593700347
    H           -2.002317258659     1.865325105527     0.075298769771
    H           -1.805439078770     2.162040882100    -1.647358235323
    C           -0.212629509339    -0.280502903421     0.246527583792
    H            0.385984589007     1.549559606285    -0.643501883629
    H           -0.101830745518     0.344140905395    -1.789278850307
    C            1.035304193323    -1.147850841875     0.214456306556
    O           -1.048553707155    -0.444340694943     1.082645265772
    C            2.355606170806    -0.372327060087     0.151268728545
    H            0.958106596864    -1.804013090798    -0.650780402796
    H            1.003954709015    -1.774190172101     1.097096238146
    H            2.454114251933     0.191658628178    -0.769632493338
    H            3.192299624693    -1.059883233857     0.204764532325
    H            2.444921148936     0.320221215095     0.982471724199

  Mulliken Charges: (a.u.)
   Center  Symbol    Alpha    Beta     Spin     Total
       1     H     0.41312  0.41312  0.00000  0.17377
       2     C     3.23473  3.23473  0.00000 -0.46946
       3     C     3.21019  3.21019  0.00000 -0.42039
       4     H     0.40779  0.40779  0.00000  0.18442
       5     H     0.42030  0.42030  0.00000  0.15941
       6     C     2.73184  2.73184  0.00000  0.53632
       7     H     0.40514  0.40514  0.00000  0.18972
       8     H     0.41167  0.41167  0.00000  0.17667
       9     C     3.20217  3.20217  0.00000 -0.40433
      10     O     4.26404  4.26404  0.00000 -0.52808
      11     C     3.25094  3.25094  0.00000 -0.50189
      12     H     0.40982  0.40982  0.00000  0.18037
      13     H     0.39830  0.39830  0.00000  0.20341
      14     H     0.41637  0.41637  0.00000  0.16726
      15     H     0.41059  0.41059  0.00000  0.17881
      16     H     0.41300  0.41300  0.00000  0.17400

   Total alpha = 24.00000, Total beta = 24.00000, Total charge = -0.00000
