  ==> Input File <==

--------------------------------------------------------------------------
set {
	reference rhf
	basis 6-31G*
}

set_num_threads( 4 )
memory 2 gb

molecule MOL {
0 1

O	 3.225979	 0.970355	 -0.599647
C	 2.701189	 0.057885	 -0.047330
C	 1.245376	 -0.013843	 0.345420
O	 3.347903	 -1.046386	 0.304773
C	 0.455112	 1.231400	 -0.050772
H	 0.838542	 -0.913825	 -0.103701
H	 1.208210	 -0.175333	 1.419774
C	 -0.998893	 1.219485	 0.433193
H	 0.482531	 1.345121	 -1.130325
H	 0.957290	 2.103070	 0.354729
C	 -1.883438	 0.145884	 -0.207175
H	 -1.431207	 2.195402	 0.224832
H	 -1.019646	 1.105716	 1.516076
C	 -3.347647	 0.245583	 0.225435
H	 -1.822183	 0.231698	 -1.291012
H	 -1.510341	 -0.844814	 0.042401
C	 -4.246412	 0.901976	 -0.824090
H	 -3.410653	 0.809453	 1.154582
H	 -3.725871	 -0.750852	 0.448514
C	 -5.706233	 1.001156	 -0.382745
H	 -3.869302	 1.897407	 -1.048921
H	 -4.188140	 0.337261	 -1.752250
H	 -6.317726	 1.470417	 -1.147255
H	 -5.802166	 1.590156	 0.525039
H	 -6.123174	 0.018001	 -0.183145
C	 4.728119	 -1.109107	 -0.004993
H	 4.882018	 -1.033965	 -1.071845
H	 5.068212	 -2.067527	 0.355250
H	 5.265056	 -0.311663	 0.488280

	symmetry c1
}
set optking {
	frozen_dihedral = ("
		17 14 11 15
	")
}

ee = optimize('scf')
oeprop('DIPOLE', 'QUADRUPOLE', 'MULLIKEN_CHARGES')
f=open( 'psi4out.xyz', 'w' )
f.write( "29  " )
f.write( str(ee) + "\n" )
f.write( MOL.save_string_xyz() )
f.close()
--------------------------------------------------------------------------

    Molecular point group: c1
  Charge       = 0
  Multiplicity = 1
  Basis Set: 6-31G*
  Basis Set:
  @DF-RHF Final Energy:  -501.03948818139747
    Total Energy =                       -501.0394881813979282
    Molecular point group: c1
  Basis Set: 6-31G*
  Basis Set:
  Basis Set: 6-31G*
  Basis Set:
  @DF-RHF Final Energy:  -501.03970930794651
    Total Energy =                       -501.0397093079463957
  Basis Set: 6-31G*
  Basis Set:
  Basis Set: 6-31G*
  Basis Set:
  @DF-RHF Final Energy:  -501.03980880815834
    Total Energy =                       -501.0398088081578862
  Basis Set: 6-31G*
  Basis Set:
  Basis Set: 6-31G*
  Basis Set:
  @DF-RHF Final Energy:  -501.03979338101215
    Total Energy =                       -501.0397933810118047
  Basis Set: 6-31G*
  Basis Set:
  Basis Set: 6-31G*
  Basis Set:
  @DF-RHF Final Energy:  -501.03980559121419
    Total Energy =                       -501.0398055912138489
  Basis Set: 6-31G*
  Basis Set:
  Basis Set: 6-31G*
  Basis Set:
  @DF-RHF Final Energy:  -501.03981204987338
    Total Energy =                       -501.0398120498725802
  Basis Set: 6-31G*
  Basis Set:
  Charge       = 0
  Multiplicity = 1
  Basis Set: 6-31G*
  Basis Set:

    Orbital Energies (a.u.)
    -----------------------

    Doubly Occupied:

       1A    -20.603342     2A    -20.545161     3A    -11.371969
       4A    -11.280642     5A    -11.234733     6A    -11.218808
       7A    -11.217672     8A    -11.215947     9A    -11.215783
      10A    -11.214192    11A    -11.208691    12A     -1.469032
      13A     -1.362477    14A     -1.097440    15A     -1.065829
      16A     -1.018397    17A     -0.976457    18A     -0.928014
      19A     -0.862213    20A     -0.805291    21A     -0.785967
      22A     -0.763774    23A     -0.700953    24A     -0.682214
      25A     -0.671836    26A     -0.639165    27A     -0.626900
      28A     -0.614213    29A     -0.596395    30A     -0.579590
      31A     -0.561116    32A     -0.556258    33A     -0.536184
      34A     -0.528378    35A     -0.522091    36A     -0.502469
      37A     -0.495589    38A     -0.479615    39A     -0.473036
      40A     -0.462812    41A     -0.455923    42A     -0.446589
      43A     -0.443105    44A     -0.436461

  @DF-RHF Final Energy:  -501.03981214085502

   => Energetics <=

    Nuclear Repulsion Energy =            611.6784838706591927
    One-Electron Energy =               -1894.4911509008327357
    Two-Electron Energy =                 781.7728548893180687
    DFT Exchange-Correlation Energy =       0.0000000000000000
    Empirical Dispersion Energy =           0.0000000000000000
    PCM Polarization Energy =               0.0000000000000000
    EFP Energy =                            0.0000000000000000
    Total Energy =                       -501.0398121408554744
    Molecular point group: c1
  Basis Set: 6-31G*
  Basis Set:

  -Total Gradient:
     Atom            X                  Y                   Z
    ------   -----------------  -----------------  -----------------
       1        0.000018625756     0.000050395600     0.000085101155
       2       -0.000053182094    -0.000109976732    -0.000250500004
       3       -0.000015680562     0.000011784689     0.000082718003
       4        0.000007630414     0.000030986165     0.000071437482
       5       -0.000051236291     0.000000810319     0.000036814685
       6        0.000008634400    -0.000026559077    -0.000005409019
       7       -0.000020730853    -0.000000039186     0.000002352840
       8       -0.000037899303     0.000063725251     0.000012268305
       9       -0.000021341688    -0.000010200261    -0.000001329592
      10       -0.000056501391     0.000019467874     0.000004064949
      11       -0.000509679959    -0.004583799411    -0.000676551585
      12        0.000024870616     0.000051494291     0.000036041786
      13        0.000075326056     0.000009525433     0.000004584126
      14        0.000610371987     0.003503595262     0.001357801087
      15        0.000306594118     0.002986773864     0.000186608623
      16       -0.000037519319    -0.000029754173     0.000002084515
      17       -0.000377186123    -0.001893464274    -0.000969094449
      18       -0.000006197641    -0.000014809043     0.000044421086
      19        0.000083925529    -0.000012275027     0.000003907749
      20        0.000051232545    -0.000064439685     0.000022833902
      21        0.000014926729     0.000027320355    -0.000062519487
      22       -0.000056559261     0.000007465148     0.000005619335
      23        0.000050429822    -0.000009500487    -0.000005047085
      24        0.000013530672     0.000004132384    -0.000000465538
      25       -0.000025620470    -0.000013153278     0.000008587055
      26        0.000003472955     0.000000205177     0.000001316099
      27       -0.000002743541     0.000000445408     0.000001293883
      28       -0.000000372678     0.000000856868     0.000001581742
      29        0.000002879564    -0.000001013454    -0.000000521647

  **** Optimization is complete! (in 7 steps) ****
    Final optimized geometry and variables:
    Molecular point group: c1

    Geometry (in Angstrom), charge = 0, multiplicity = 1:

    O            3.211640261220     0.671743961253    -0.529035474350
    C            2.700469074617    -0.249247363076     0.021912056577
    C            1.248858528954    -0.337554403677     0.426641139467
    O            3.361214177507    -1.348625736560     0.363115541217
    C            0.442813766703     0.901917474003     0.044107725116
    H            0.847010056107    -1.239026653863    -0.024120962967
    H            1.222397466254    -0.505418910637     1.500337322286
    C           -1.005623301582     0.871756696215     0.541520053723
    H            0.458732666137     1.020678895263    -1.035208698254
    H            0.939781210520     1.776928223170     0.448914356578
    C           -1.882112809090    -0.220261875848    -0.084850608848
    H           -1.454082858140     1.840644973837     0.332666695312
    H           -1.015164227842     0.763187330578     1.625024259579
    C           -3.366651044938    -0.092594901383     0.312707299248
    H           -1.790200632157    -0.144564707087    -1.166608035099
    H           -1.507612373581    -1.199766512831     0.195083208974
    C           -4.231554509259     0.569720125034    -0.763163030291
    H           -3.451327824375     0.465862221554     1.242494987815
    H           -3.777341241298    -1.078083072138     0.519505844279
    C           -5.687730283874     0.743759663250    -0.335021676430
    H           -3.813286042410     1.540695785086    -1.022135457306
    H           -4.190115426874    -0.030544913863    -1.669116588489
    H           -6.277436609046     1.202374454764    -1.122729138246
    H           -5.764856110722     1.374667188496     0.546023777404
    H           -6.142981912434    -0.213334553459    -0.095636244980
    C            4.739516399731    -1.395580028439     0.042237839195
    H            4.884235123604    -1.313375556092    -1.025382792927
    H            5.092194497397    -2.352298534537     0.394803220004
    H            5.272140907692    -0.595221517158     0.535466167805

  Mulliken Charges: (a.u.)
   Center  Symbol    Alpha    Beta     Spin     Total
       1     O     4.28596  4.28596  0.00000 -0.57192
       2     C     2.60480  2.60480  0.00000  0.79039
       3     C     3.20973  3.20973  0.00000 -0.41945
       4     O     4.30745  4.30745  0.00000 -0.61490
       5     C     3.15415  3.15415  0.00000 -0.30829
       6     H     0.39891  0.39891  0.00000  0.20218
       7     H     0.40120  0.40120  0.00000  0.19759
       8     C     3.15842  3.15842  0.00000 -0.31685
       9     H     0.41319  0.41319  0.00000  0.17362
      10     H     0.40883  0.40883  0.00000  0.18235
      11     C     3.15812  3.15812  0.00000 -0.31624
      12     H     0.41816  0.41816  0.00000  0.16367
      13     H     0.42349  0.42349  0.00000  0.15302
      14     C     3.15397  3.15397  0.00000 -0.30795
      15     H     0.42086  0.42086  0.00000  0.15828
      16     H     0.42034  0.42034  0.00000  0.15932
      17     C     3.15300  3.15300  0.00000 -0.30600
      18     H     0.42148  0.42148  0.00000  0.15704
      19     H     0.42146  0.42146  0.00000  0.15708
      20     C     3.23984  3.23984  0.00000 -0.47968
      21     H     0.42283  0.42283  0.00000  0.15434
      22     H     0.42214  0.42214  0.00000  0.15572
      23     H     0.41909  0.41909  0.00000  0.16181
      24     H     0.42158  0.42158  0.00000  0.15684
      25     H     0.42186  0.42186  0.00000  0.15628
      26     C     3.09240  3.09240  0.00000 -0.18480
      27     H     0.40910  0.40910  0.00000  0.18180
      28     H     0.40852  0.40852  0.00000  0.18296
      29     H     0.40912  0.40912  0.00000  0.18176

   Total alpha = 44.00000, Total beta = 44.00000, Total charge = -0.00000
