                              Psi4 1.0.54 Driver

  ==> Input File <==

--------------------------------------------------------------------------
set {
	reference rhf
	basis cc-pvtz
}

set_num_threads( 4 )
memory 2 gb

molecule MOL {
0 1

H	 -2.498963	 -0.741158	 -0.729149
O	 -2.346257	 -0.289210	 0.080372
C	 -1.183935	 0.486039	 -0.009831
C	 0.062853	 -0.375310	 0.027457
H	 -1.178881	 1.094526	 -0.908634
H	 -1.184406	 1.155156	 0.838676
O	 0.976343	 0.215592	 0.892223
H	 0.485624	 -0.461698	 -0.974890
H	 -0.197926	 -1.378104	 0.359080
C	 2.164547	 -0.487877	 1.048828
H	 2.692948	 -0.590899	 0.103602
H	 2.787630	 0.063804	 1.737379
H	 1.987615	 -1.481270	 1.454273

	symmetry c1
}
set optking {
	frozen_dihedral = ("
		8 4 3 5
	")
}

ee,wfn = optimize('scf', return_wfn=True)
oeprop( wfn, 'DIPOLE', 'QUADRUPOLE', 'MULLIKEN_CHARGES')
f=open( 'psi4out.xyz', 'w' )
f.write( "13  " )
f.write( str(ee) + "\n" )
f.write( MOL.save_string_xyz() )
f.close()
--------------------------------------------------------------------------

    Molecular point group: c1
  Charge       = 0
  Multiplicity = 1
  Basis Set: CC-PVTZ
  Basis Set:
  @DF-RHF Final Energy:  -268.05643068297996
    Total Energy =                       -268.0564306829800216
    Molecular point group: c1
  Basis Set: CC-PVTZ
  Basis Set:
  Basis Set: CC-PVTZ
  Basis Set:
  @DF-RHF Final Energy:  -268.05700406249616
    Total Energy =                       -268.0570040624960484
  Basis Set: CC-PVTZ
  Basis Set:
  Basis Set: CC-PVTZ
  Basis Set:
  @DF-RHF Final Energy:  -268.05717309497993
    Total Energy =                       -268.0571730949798734
  Basis Set: CC-PVTZ
  Basis Set:
  Basis Set: CC-PVTZ
  Basis Set:
  @DF-RHF Final Energy:  -268.05717738671251
    Total Energy =                       -268.0571773867127376
  Basis Set: CC-PVTZ
  Basis Set:
  Charge       = 0
  Multiplicity = 1
  Basis Set: CC-PVTZ
  Basis Set:

    Orbital Energies (a.u.)
    -----------------------

    Doubly Occupied:

       1A    -20.553669     2A    -20.550623     3A    -11.268782
       4A    -11.267894     5A    -11.265840     6A     -1.388927
       7A     -1.366277     8A     -1.016722     9A     -0.912531
      10A     -0.842921    11A     -0.709073    12A     -0.668909
      13A     -0.666394    14A     -0.643584    15A     -0.584971
      16A     -0.572070    17A     -0.547413    18A     -0.491227
      19A     -0.482401    20A     -0.440564    21A     -0.422147

  @DF-RHF Final Energy:  -268.05717802894696

   => Energetics <=

    Nuclear Repulsion Energy =            190.2687669868629143
    One-Electron Energy =                -743.3260111157494521
    Two-Electron Energy =                 285.0000660999394881
    DFT Exchange-Correlation Energy =       0.0000000000000000
    Empirical Dispersion Energy =           0.0000000000000000
    PCM Polarization Energy =               0.0000000000000000
    EFP Energy =                            0.0000000000000000
    Total Energy =                       -268.0571780289470212
    Molecular point group: c1
  Basis Set: CC-PVTZ
  Basis Set:

  -Total Gradient:
     Atom            X                  Y                   Z
    ------   -----------------  -----------------  -----------------
       1        0.000002339231    -0.000023048679    -0.000011102432
       2        0.000013536387     0.000042754246    -0.000000023055
       3        0.003085434090     0.004648498554     0.002835831360
       4       -0.003423096340    -0.005014057400    -0.001522054679
       5       -0.002013996917    -0.003022296021    -0.002081854372
       6       -0.000008930086    -0.000017529355    -0.000002702668
       7       -0.000001484332     0.000010458448     0.000015448511
       8        0.002334801206     0.003367241965     0.000771604891
       9        0.000010086273     0.000023971016     0.000006033200
      10        0.000015437303    -0.000029908344    -0.000022224747
      11        0.000001673212     0.000002426455     0.000004599298
      12       -0.000025431440     0.000006444479    -0.000000388269
      13        0.000009631408     0.000005044635     0.000006832962

  **** Optimization is complete! (in 5 steps) ****
    Final optimized geometry and variables:
    Molecular point group: c1

    Geometry (in Angstrom), charge = 0, multiplicity = 1:

    H           -2.448735607129    -0.558422115412    -1.192028174517
    O           -2.290270202081    -0.158782947583    -0.356806313416
    C           -1.102872834219     0.589989837685    -0.390399036065
    C            0.144404595228    -0.291660695983    -0.336129323855
    H           -1.093745412887     1.209626614286    -1.280926841140
    H           -1.108440113454     1.227268668164     0.479605731542
    O            1.070317948039     0.304848611236     0.519974890612
    H            0.596900165507    -0.390498344197    -1.322100440031
    H           -0.133453749765    -1.277558212459     0.025789172405
    C            2.278699166906    -0.372665103780     0.620235024168
    H            2.784340747414    -0.431166246083    -0.341370929072
    H            2.906690794906     0.171248265307     1.310607680334
    H            2.138207262987    -1.383561143532     0.996436610886

  Mulliken Charges: (a.u.)
   Center  Symbol    Alpha    Beta     Spin     Total
       1     H     0.39512  0.39512  0.00000  0.20976
       2     O     4.20057  4.20057  0.00000 -0.40113
       3     C     2.97339  2.97339  0.00000  0.05322
       4     C     2.97147  2.97147  0.00000  0.05706
       5     H     0.46757  0.46757  0.00000  0.06487
       6     H     0.44963  0.44963  0.00000  0.10073
       7     O     4.17370  4.17370  0.00000 -0.34741
       8     H     0.47998  0.47998  0.00000  0.04004
       9     H     0.46974  0.46974  0.00000  0.06053
      10     C     3.02979  3.02979  0.00000 -0.05958
      11     H     0.47219  0.47219  0.00000  0.05563
      12     H     0.44599  0.44599  0.00000  0.10803
      13     H     0.47087  0.47087  0.00000  0.05826

   Total alpha = 21.00000, Total beta = 21.00000, Total charge = -0.00000

*** Psi4 exiting successfully. Buy a developer a beer!
