                              Psi4 1.0.54 Driver

  ==> Input File <==

--------------------------------------------------------------------------
set {
	reference rhf
	basis cc-pvtz
}

set_num_threads( 4 )
memory 2 gb

molecule MOL {
0 1

H	 2.254577	 2.525334	 0.162148
N	 1.460542	 1.927213	 0.076254
C	 1.860978	 0.530248	 0.016256
H	 0.978269	 2.195700	 -0.756018
C	 0.644130	 -0.381765	 -0.031064
H	 2.436972	 0.312046	 0.909299
H	 2.507427	 0.310389	 -0.834462
C	 -0.678115	 0.376691	 0.025731
H	 0.693998	 -0.977147	 -0.936845
H	 0.693309	 -1.082142	 0.800523
C	 -1.900706	 -0.535531	 -0.022488
H	 -0.725296	 1.079516	 -0.802982
H	 -0.715474	 0.974884	 0.933278
C	 -3.220513	 0.226854	 0.028039
H	 -1.865036	 -1.134397	 -0.928236
H	 -1.857948	 -1.236381	 0.806820
H	 -3.309098	 0.911849	 -0.808725
H	 -4.066838	 -0.449485	 -0.008086
H	 -3.301685	 0.809374	 0.939860

	symmetry c1
}
set optking {
	frozen_dihedral = ("
		6 3 5 9
	")
}

ee,wfn = optimize('scf', return_wfn=True)
oeprop( wfn, 'DIPOLE', 'QUADRUPOLE', 'MULLIKEN_CHARGES')
f=open( 'psi4out.xyz', 'w' )
f.write( "19  " )
f.write( str(ee) + "\n" )
f.write( MOL.save_string_xyz() )
f.close()
--------------------------------------------------------------------------

    Molecular point group: c1
  Charge       = 0
  Multiplicity = 1
  Basis Set: CC-PVTZ
  Basis Set:
  @DF-RHF Final Energy:  -251.43506298045051
    Total Energy =                       -251.4350629804502546
    Molecular point group: c1
  Basis Set: CC-PVTZ
  Basis Set:
  Basis Set: CC-PVTZ
  Basis Set:
  @DF-RHF Final Energy:  -251.43519410142227
    Total Energy =                       -251.4351941014222120
  Basis Set: CC-PVTZ
  Basis Set:
  Basis Set: CC-PVTZ
  Basis Set:
  @DF-RHF Final Energy:  -251.43811490808110
    Total Energy =                       -251.4381149080812179
  Basis Set: CC-PVTZ
  Basis Set:
  Basis Set: CC-PVTZ
  Basis Set:
  @DF-RHF Final Energy:  -251.43841419681112
    Total Energy =                       -251.4384141968112090
  Basis Set: CC-PVTZ
  Basis Set:
  Basis Set: CC-PVTZ
  Basis Set:
  @DF-RHF Final Energy:  -251.43843764917139
    Total Energy =                       -251.4384376491715329
  Basis Set: CC-PVTZ
  Basis Set:
  Basis Set: CC-PVTZ
  Basis Set:
  @DF-RHF Final Energy:  -251.43844571324368
    Total Energy =                       -251.4384457132435386
  Basis Set: CC-PVTZ
  Basis Set:
  Basis Set: CC-PVTZ
  Basis Set:
  @DF-RHF Final Energy:  -251.43844819008567
    Total Energy =                       -251.4384481900855235
  Basis Set: CC-PVTZ
  Basis Set:
  Charge       = 0
  Multiplicity = 1
  Basis Set: CC-PVTZ
  Basis Set:

    Orbital Energies (a.u.)
    -----------------------

    Doubly Occupied:

       1A    -15.526760     2A    -11.239320     3A    -11.208157
       4A    -11.207813     5A    -11.203622     6A    -11.202007
       7A     -1.177249     8A     -1.067821     9A     -0.993263
      10A     -0.905366    11A     -0.813344    12A     -0.776520
      13A     -0.668283    14A     -0.640077    15A     -0.615340
      16A     -0.582869    17A     -0.565539    18A     -0.549216
      19A     -0.526889    20A     -0.498000    21A     -0.477509
      22A     -0.462248    23A     -0.455922    24A     -0.445116
      25A     -0.379963

  @DF-RHF Final Energy:  -251.43844826438192

   => Energetics <=

    Nuclear Repulsion Energy =            249.7622451792572065
    One-Electron Energy =                -834.0249620953663907
    Two-Electron Energy =                 332.8242686517271522
    DFT Exchange-Correlation Energy =       0.0000000000000000
    Empirical Dispersion Energy =           0.0000000000000000
    PCM Polarization Energy =               0.0000000000000000
    EFP Energy =                            0.0000000000000000
    Total Energy =                       -251.4384482643820320
    Molecular point group: c1
  Basis Set: CC-PVTZ
  Basis Set:

  -Total Gradient:
     Atom            X                  Y                   Z
    ------   -----------------  -----------------  -----------------
       1        0.000028871105     0.000012375693     0.000007389341
       2       -0.000007207456    -0.000002953621    -0.000005426707
       3       -0.000736511351     0.001082635064     0.001073728720
       4       -0.000009310969     0.000000214419    -0.000007235596
       5       -0.000676311443     0.001079408133    -0.001110809544
       6        0.000741644877    -0.001084641201    -0.000722969881
       7        0.000000546490     0.000006329458    -0.000000629673
       8       -0.000012982482    -0.000008911003     0.000026928710
       9        0.000675786592    -0.001082108080     0.000775011998
      10       -0.000005932830     0.000004265615    -0.000003831450
      11       -0.000000112264     0.000001152935    -0.000038366263
      12        0.000000262678    -0.000007503497    -0.000007083929
      13        0.000003135076     0.000003268835     0.000001804447
      14        0.000001529849    -0.000001066337     0.000015983164
      15       -0.000002842892    -0.000007932807    -0.000006694876
      16        0.000002525385     0.000003616515    -0.000002167411
      17        0.000002105117    -0.000004490749    -0.000002755859
      18       -0.000002294031    -0.000001899592     0.000005220397
      19       -0.000002901453     0.000008240217     0.000001904412

  **** Optimization is complete! (in 8 steps) ****
    Final optimized geometry and variables:
    Molecular point group: c1

    Geometry (in Angstrom), charge = 0, multiplicity = 1:

    H            2.796869580151     2.027419693880     0.160671011883
    N            1.939668309499     1.541978585028     0.002240293682
    C            2.168264642486     0.103552859332     0.003540391396
    H            1.587416217261     1.853972318923    -0.877845626542
    C            0.872892928222    -0.745397967073    -0.037605023769
    H            2.713649504619    -0.131285266141     0.908995736075
    H            2.811451208483    -0.207887149903    -0.818033387403
    C           -0.449502527929     0.017576589750     0.010395335368
    H            0.887454577485    -1.369393197009    -0.925926693280
    H            0.892342835377    -1.438100933915     0.797924937872
    C           -1.656417992932    -0.917174230229     0.012052982226
    H           -0.526391539269     0.686988878242    -0.841892006230
    H           -0.475648152476     0.648841124565     0.890513504549
    C           -2.987273099078    -0.173303081132     0.052652357223
    H           -1.626038069330    -1.551147531466    -0.870380661785
    H           -1.592574396403    -1.584740095580     0.867222632342
    H           -3.099632982288     0.475498606198    -0.809808399335
    H           -3.823822997599    -0.862945228670     0.058027681054
    H           -3.062264991620     0.445173040396     0.940794718436

  Mulliken Charges: (a.u.)
   Center  Symbol    Alpha    Beta     Spin     Total
       1     H     0.42928  0.42928  0.00000  0.14144
       2     N     3.68484  3.68484  0.00000 -0.36968
       3     C     3.03415  3.03415  0.00000 -0.06830
       4     H     0.43148  0.43148  0.00000  0.13704
       5     C     3.10353  3.10353  0.00000 -0.20705
       6     H     0.45599  0.45599  0.00000  0.08802
       7     H     0.46131  0.46131  0.00000  0.07738
       8     C     3.08085  3.08085  0.00000 -0.16170
       9     H     0.45265  0.45265  0.00000  0.09469
      10     H     0.45353  0.45353  0.00000  0.09293
      11     C     3.08445  3.08445  0.00000 -0.16890
      12     H     0.46067  0.46067  0.00000  0.07866
      13     H     0.44460  0.44460  0.00000  0.11080
      14     C     3.15014  3.15014  0.00000 -0.30029
      15     H     0.45679  0.45679  0.00000  0.08643
      16     H     0.45546  0.45546  0.00000  0.08908
      17     H     0.45616  0.45616  0.00000  0.08768
      18     H     0.44953  0.44953  0.00000  0.10093
      19     H     0.45459  0.45459  0.00000  0.09083

   Total alpha = 25.00000, Total beta = 25.00000, Total charge = -0.00000

*** Psi4 exiting successfully. Buy a developer a beer!
