  ==> Input File <==

--------------------------------------------------------------------------
set {
	reference rhf
	basis 6-31G*
}

set_num_threads( 4 )
memory 2 gb

molecule MOL {
0 1

H	 2.176868	 -0.646004	 -0.217325
O	 1.337496	 -0.537251	 0.205931
C	 0.702312	 0.627605	 -0.264544
C	 -0.714990	 0.596302	 0.266387
H	 0.682322	 0.642550	 -1.350929
H	 1.215941	 1.520383	 0.085680
O	 -1.405996	 -0.526611	 -0.195820
H	 -1.257453	 1.468809	 -0.075599
H	 -0.688972	 0.618407	 1.353696
H	 -0.939345	 -1.296348	 0.103774

	symmetry c1
}
set optking {
	frozen_dihedral = ("
		10 7 4 3
	")
}

ee = optimize('scf')
oeprop('DIPOLE', 'QUADRUPOLE', 'MULLIKEN_CHARGES')
f=open( 'psi4out.xyz', 'w' )
f.write( "10  " )
f.write( str(ee) + "\n" )
f.write( MOL.save_string_xyz() )
f.close()
--------------------------------------------------------------------------

    Molecular point group: c1
  Charge       = 0
  Multiplicity = 1
  Basis Set: 6-31G*
  Basis Set:
  @DF-RHF Final Energy:  -228.92545360131220
    Total Energy =                       -228.9254536013121424
    Molecular point group: c1
  Basis Set: 6-31G*
  Basis Set:
  Basis Set: 6-31G*
  Basis Set:
  @DF-RHF Final Energy:  -228.92545196701113
    Total Energy =                       -228.9254519670111563
  Basis Set: 6-31G*
  Basis Set:
  Basis Set: 6-31G*
  Basis Set:
  @DF-RHF Final Energy:  -228.92547061874984
    Total Energy =                       -228.9254706187498414
  Basis Set: 6-31G*
  Basis Set:
  Charge       = 0
  Multiplicity = 1
  Basis Set: 6-31G*
  Basis Set:

    Orbital Energies (a.u.)
    -----------------------

    Doubly Occupied:

       1A    -20.568009     2A    -20.548834     3A    -11.274997
       4A    -11.268115     5A     -1.381015     6A     -1.350763
       7A     -1.001702     8A     -0.842256     9A     -0.728004
      10A     -0.680304    11A     -0.645821    12A     -0.603288
      13A     -0.574743    14A     -0.528682    15A     -0.490893
      16A     -0.452894    17A     -0.432382

  @DF-RHF Final Energy:  -228.92547073409230

   => Energetics <=

    Nuclear Repulsion Energy =            134.5018116482793857
    One-Electron Energy =                -580.1091616252560925
    Two-Electron Energy =                 216.6818792428842926
    DFT Exchange-Correlation Energy =       0.0000000000000000
    Empirical Dispersion Energy =           0.0000000000000000
    PCM Polarization Energy =               0.0000000000000000
    EFP Energy =                            0.0000000000000000
    Total Energy =                       -228.9254707340924142
    Molecular point group: c1
  Basis Set: 6-31G*
  Basis Set:

  -Total Gradient:
     Atom            X                  Y                   Z
    ------   -----------------  -----------------  -----------------
       1        0.000000264434     0.000008956987    -0.000003925860
       2       -0.000006146860     0.000005119682     0.000010351844
       3       -0.000218525429     0.000342671545    -0.000562412365
       4        0.000178935648    -0.000528791010     0.000941433219
       5        0.000012082003    -0.000001548296    -0.000006891095
       6       -0.000004797436    -0.000013041795     0.000007789231
       7        0.000623085467     0.000200686180    -0.001265728498
       8       -0.000009774315    -0.000017258155    -0.000008880188
       9       -0.000010274596    -0.000008271360     0.000005254989
      10       -0.000564848916     0.000011476225     0.000883008724

  **** Optimization is complete! (in 4 steps) ****
    Final optimized geometry and variables:
    Molecular point group: c1

    Geometry (in Angstrom), charge = 0, multiplicity = 1:

    H            2.181724272913    -0.643651493621    -0.214183642063
    O            1.344971738123    -0.532407123020     0.213666341755
    C            0.701899895572     0.622808185003    -0.269041289069
    C           -0.713128780090     0.592315267787     0.266810718636
    H            0.676578063024     0.624962234290    -1.355260600149
    H            1.212660388573     1.522426353640     0.068415312939
    O           -1.411153301601    -0.522989996898    -0.203768816540
    H           -1.253015985134     1.468941619068    -0.068749390753
    H           -0.685327023668     0.607796290975     1.354025402065
    H           -0.948569872265    -1.298823610345     0.085231030355

  Mulliken Charges: (a.u.)
   Center  Symbol    Alpha    Beta     Spin     Total
       1     H     0.27668  0.27668  0.00000  0.44664
       2     O     4.37751  4.37751  0.00000 -0.75502
       3     C     3.00982  3.00982  0.00000 -0.01965
       4     C     2.99910  2.99910  0.00000  0.00180
       5     H     0.42270  0.42270  0.00000  0.15460
       6     H     0.42914  0.42914  0.00000  0.14172
       7     O     4.37158  4.37158  0.00000 -0.74315
       8     H     0.41669  0.41669  0.00000  0.16662
       9     H     0.42335  0.42335  0.00000  0.15330
      10     H     0.27342  0.27342  0.00000  0.45316

   Total alpha = 17.00000, Total beta = 17.00000, Total charge = -0.00000
