                              Psi4 1.0.54 Driver

  ==> Input File <==

--------------------------------------------------------------------------
set {
	reference rhf
	basis cc-pvtz
}

set_num_threads( 4 )
memory 2 gb

molecule MOL {
0 1

H	 5.269878	 0.195679	 1.068175
C	 4.673900	 -0.208485	 0.258034
C	 3.190199	 -0.204714	 0.610086
H	 4.865136	 0.391893	 -0.624684
H	 5.027838	 -1.214511	 0.056939
C	 2.319208	 -0.778154	 -0.505491
H	 2.876954	 0.809861	 0.827925
H	 3.035335	 -0.782733	 1.518235
C	 0.834815	 -0.838804	 -0.159390
H	 2.447741	 -0.188682	 -1.404842
H	 2.656589	 -1.784505	 -0.736176
C	 0.136668	 0.510119	 -0.120909
H	 0.306889	 -1.430872	 -0.902703
H	 0.676706	 -1.346919	 0.787362
C	 -1.203046	 0.584147	 0.585531
O	 0.606094	 1.470880	 -0.640383
C	 -2.295191	 -0.266483	 -0.071744
H	 -1.497769	 1.624737	 0.597742
H	 -1.066411	 0.262622	 1.614681
C	 -3.652460	 -0.095520	 0.605206
H	 -2.379523	 0.008833	 -1.119448
H	 -2.016580	 -1.315195	 -0.047646
C	 -4.750356	 -0.931184	 -0.043959
H	 -3.934193	 0.952869	 0.581123
H	 -3.565810	 -0.364588	 1.654333
H	 -4.881729	 -0.662416	 -1.086641
H	 -4.514068	 -1.989274	 -0.003053
H	 -5.700168	 -0.785380	 0.456949

	symmetry c1
}
set optking {
	frozen_dihedral = ("
		10 6 3 2
	")
}

ee,wfn = optimize('scf', return_wfn=True)
oeprop( wfn, 'DIPOLE', 'QUADRUPOLE', 'MULLIKEN_CHARGES')
f=open( 'psi4out.xyz', 'w' )
f.write( "28  " )
f.write( str(ee) + "\n" )
f.write( MOL.save_string_xyz() )
f.close()
--------------------------------------------------------------------------

    Molecular point group: c1
  Charge       = 0
  Multiplicity = 1
  Basis Set: CC-PVTZ
  Basis Set:
  @DF-RHF Final Energy:  -426.31988078056270
    Total Energy =                       -426.3198807805628121
    Molecular point group: c1
  Basis Set: CC-PVTZ
  Basis Set:
  Basis Set: CC-PVTZ
  Basis Set:
  @DF-RHF Final Energy:  -426.31987787657738
    Total Energy =                       -426.3198778765763564
  Basis Set: CC-PVTZ
  Basis Set:
  Basis Set: CC-PVTZ
  Basis Set:
  @DF-RHF Final Energy:  -426.31985049979676
    Total Energy =                       -426.3198504997980081
  Basis Set: CC-PVTZ
  Basis Set:
  Basis Set: CC-PVTZ
  Basis Set:
  @DF-RHF Final Energy:  -426.31988296369320
    Total Energy =                       -426.3198829636935443
  Basis Set: CC-PVTZ
  Basis Set:
  Basis Set: CC-PVTZ
  Basis Set:
  @DF-RHF Final Energy:  -426.31988097957640
    Total Energy =                       -426.3198809795767374
  Basis Set: CC-PVTZ
  Basis Set:
  Charge       = 0
  Multiplicity = 1
  Basis Set: CC-PVTZ
  Basis Set:

    Orbital Energies (a.u.)
    -----------------------

    Doubly Occupied:

       1A    -20.536610     2A    -11.316569     3A    -11.229834
       4A    -11.228256     5A    -11.226846     6A    -11.223818
       7A    -11.214712     8A    -11.214248     9A    -11.210903
      10A    -11.204142    11A     -1.396526    12A     -1.096175
      13A     -1.078911    14A     -1.023631    15A     -0.991832
      16A     -0.908106    17A     -0.873952    18A     -0.809356
      19A     -0.800352    20A     -0.724358    21A     -0.670737
      22A     -0.654119    23A     -0.630067    24A     -0.621477
      25A     -0.611008    26A     -0.588724    27A     -0.577620
      28A     -0.576455    29A     -0.543260    30A     -0.533911
      31A     -0.521865    32A     -0.506288    33A     -0.501812
      34A     -0.485402    35A     -0.479306    36A     -0.476545
      37A     -0.473028    38A     -0.465967    39A     -0.456842
      40A     -0.394191

  @DF-RHF Final Energy:  -426.31988332295430

   => Energetics <=

    Nuclear Repulsion Energy =            531.8397734824358167
    One-Electron Energy =               -1632.1637971833229130
    Two-Electron Energy =                 674.0041403779324583
    DFT Exchange-Correlation Energy =       0.0000000000000000
    Empirical Dispersion Energy =           0.0000000000000000
    PCM Polarization Energy =               0.0000000000000000
    EFP Energy =                            0.0000000000000000
    Total Energy =                       -426.3198833229547517
    Molecular point group: c1
  Basis Set: CC-PVTZ
  Basis Set:

  -Total Gradient:
     Atom            X                  Y                   Z
    ------   -----------------  -----------------  -----------------
       1        0.000005577677     0.000001391033     0.000004663371
       2        0.000031504767    -0.000258609825     0.000111948721
       3       -0.000108075733     0.000415637559    -0.000133328593
       4        0.000002217795     0.000003068094    -0.000002536832
       5       -0.000000269551    -0.000004499192    -0.000001653047
       6        0.000373959894    -0.000393854907    -0.000092731293
       7       -0.000000742510     0.000004880122    -0.000000062262
       8       -0.000003732935    -0.000002151337     0.000005380729
       9        0.000006904576    -0.000001276010    -0.000003602994
      10       -0.000297091333     0.000236867649     0.000109565185
      11        0.000000951259    -0.000000624722    -0.000000990549
      12        0.000000019488    -0.000004542471    -0.000000612000
      13       -0.000003589235    -0.000002183848    -0.000002256447
      14       -0.000003085334    -0.000003825651     0.000007081724
      15       -0.000008710983    -0.000009657763    -0.000010814765
      16        0.000005815157     0.000011929365    -0.000001228876
      17        0.000017177373     0.000008732487     0.000011932068
      18       -0.000002085528     0.000005056521     0.000001522893
      19        0.000005428016    -0.000000221024     0.000007528527
      20       -0.000018691239    -0.000003509030    -0.000010386010
      21       -0.000000975237     0.000007160575    -0.000026850901
      22        0.000008640315    -0.000023240178     0.000000776905
      23        0.000013738604     0.000004949349     0.000009223180
      24       -0.000010173241     0.000026494239    -0.000000239690
      25        0.000000224885    -0.000008146058     0.000027140146
      26       -0.000001710296     0.000007787150    -0.000022888669
      27        0.000006131879    -0.000021825585     0.000000441483
      28       -0.000019358531     0.000004213459     0.000012977996

  **** Optimization is complete! (in 6 steps) ****
    Final optimized geometry and variables:
    Molecular point group: c1

    Geometry (in Angstrom), charge = 0, multiplicity = 1:

    H            5.279184620080     0.278991257826     1.014734853794
    C            4.684403948909    -0.128085433808     0.205171673350
    C            3.200760870531    -0.128956105696     0.557590170167
    H            4.874010390203     0.471811965292    -0.678315917282
    H            5.041266558594    -1.133256318185     0.005260745422
    C            2.330903145388    -0.701763675872    -0.559232011078
    H            2.883553193381     0.883381793084     0.779542489232
    H            3.049173237595    -0.711119440540     1.463719692415
    C            0.846016124458    -0.762920871269    -0.214235552936
    H            2.457975368217    -0.109444216956    -1.456934613126
    H            2.668319766013    -1.707675311318    -0.791297596374
    C            0.148669579450     0.586215628256    -0.168685238128
    H            0.318117498255    -1.349963318738    -0.961548224309
    H            0.686793402340    -1.276512723749     0.729310681037
    C           -1.189448900230     0.658175658664     0.540818266424
    O            0.617029272234     1.548650462574    -0.686015263491
    C           -2.283496910178    -0.187857612696    -0.119205480311
    H           -1.483097610257     1.698983063076     0.558925107534
    H           -1.051384742502     0.331024695391     1.567976467404
    C           -3.639136256227    -0.020280575080     0.561834706682
    H           -2.369976381953     0.094031683485    -1.164992486771
    H           -2.005377205815    -1.236865638642    -0.102174411759
    C           -4.737863863287    -0.854795391444    -0.087303982417
    H           -3.921889583997     1.027957830088     0.541997591786
    H           -3.549510596488    -0.292880451502     1.609825927744
    H           -4.873000444982    -0.581753555641    -1.128418146665
    H           -4.499859600501    -1.912716829769    -0.051662642990
    H           -5.686247435741    -0.712489437200     0.417360701189

  Mulliken Charges: (a.u.)
   Center  Symbol    Alpha    Beta     Spin     Total
       1     H     0.44861  0.44861  0.00000  0.10278
       2     C     3.15184  3.15184  0.00000 -0.30367
       3     C     3.08503  3.08503  0.00000 -0.17006
       4     H     0.45200  0.45200  0.00000  0.09600
       5     H     0.45679  0.45679  0.00000  0.08642
       6     C     3.08723  3.08723  0.00000 -0.17446
       7     H     0.44523  0.44523  0.00000  0.10954
       8     H     0.45871  0.45871  0.00000  0.08259
       9     C     3.13043  3.13043  0.00000 -0.26085
      10     H     0.44399  0.44399  0.00000  0.11202
      11     H     0.44774  0.44774  0.00000  0.10452
      12     C     2.86429  2.86429  0.00000  0.27142
      13     H     0.43423  0.43423  0.00000  0.13154
      14     H     0.44287  0.44287  0.00000  0.11426
      15     C     3.09269  3.09269  0.00000 -0.18538
      16     O     4.17838  4.17838  0.00000 -0.35675
      17     C     3.10115  3.10115  0.00000 -0.20231
      18     H     0.43804  0.43804  0.00000  0.12392
      19     H     0.44940  0.44940  0.00000  0.10120
      20     C     3.08729  3.08729  0.00000 -0.17458
      21     H     0.44566  0.44566  0.00000  0.10868
      22     H     0.45039  0.45039  0.00000  0.09923
      23     C     3.14916  3.14916  0.00000 -0.29833
      24     H     0.44977  0.44977  0.00000  0.10047
      25     H     0.45365  0.45365  0.00000  0.09271
      26     H     0.45343  0.45343  0.00000  0.09315
      27     H     0.45521  0.45521  0.00000  0.08957
      28     H     0.44680  0.44680  0.00000  0.10639

   Total alpha = 40.00000, Total beta = 40.00000, Total charge = -0.00000

*** Psi4 exiting successfully. Buy a developer a beer!
