  ==> Input File <==

--------------------------------------------------------------------------
set {
	reference rhf
	basis 6-31G*
}

set_num_threads( 4 )
memory 2 gb

molecule MOL {
0 1

H	 -3.892951	 0.981613	 -0.358725
C	 -3.196921	 0.361773	 0.172313
C	 -2.076860	 -0.007332	 -0.404944
H	 -3.439953	 0.057760	 1.173024
O	 -1.180634	 -0.819263	 0.215062
H	 -1.811520	 0.292194	 -1.403480
C	 0.051604	 -1.018856	 -0.387932
C	 1.043764	 0.054862	 -0.001873
H	 -0.017620	 -1.041351	 -1.469781
H	 0.437898	 -1.966374	 -0.042284
F	 1.354340	 0.773115	 -1.071201
F	 0.546418	 0.879436	 0.905075
F	 2.157783	 -0.452258	 0.484111

	symmetry c1
}
set optking {
	frozen_dihedral = ("
		11 8 7 9
	")
}

ee = optimize('scf')
oeprop('DIPOLE', 'QUADRUPOLE', 'MULLIKEN_CHARGES')
f=open( 'psi4out.xyz', 'w' )
f.write( "13  " )
f.write( str(ee) + "\n" )
f.write( MOL.save_string_xyz() )
f.close()
--------------------------------------------------------------------------

    Molecular point group: c1
  Charge       = 0
  Multiplicity = 1
  Basis Set: 6-31G*
  Basis Set:
  @DF-RHF Final Energy:  -527.52835439393789
    Total Energy =                       -527.5283543939382298
    Molecular point group: c1
  Basis Set: 6-31G*
  Basis Set:
  Basis Set: 6-31G*
  Basis Set:
  @DF-RHF Final Energy:  -527.52924247686406
    Total Energy =                       -527.5292424768638284
  Basis Set: 6-31G*
  Basis Set:
  Basis Set: 6-31G*
  Basis Set:
  @DF-RHF Final Energy:  -527.52952201126539
    Total Energy =                       -527.5295220112652714
  Basis Set: 6-31G*
  Basis Set:
  Basis Set: 6-31G*
  Basis Set:
  @DF-RHF Final Energy:  -527.52954862527395
    Total Energy =                       -527.5295486252734918
  Basis Set: 6-31G*
  Basis Set:
  Basis Set: 6-31G*
  Basis Set:
  @DF-RHF Final Energy:  -527.52955385820655
    Total Energy =                       -527.5295538582065547
  Basis Set: 6-31G*
  Basis Set:
  Basis Set: 6-31G*
  Basis Set:
  @DF-RHF Final Energy:  -527.52955615668679
    Total Energy =                       -527.5295561566870219
  Basis Set: 6-31G*
  Basis Set:
  Basis Set: 6-31G*
  Basis Set:
  @DF-RHF Final Energy:  -527.52955738280139
    Total Energy =                       -527.5295573828009310
  Basis Set: 6-31G*
  Basis Set:
  Charge       = 0
  Multiplicity = 1
  Basis Set: 6-31G*
  Basis Set:

    Orbital Energies (a.u.)
    -----------------------

    Doubly Occupied:

       1A    -26.343234     2A    -26.341752     3A    -26.341141
       4A    -20.606968     5A    -11.504605     6A    -11.318623
       7A    -11.299325     8A    -11.216867     9A     -1.741792
      10A     -1.639897    11A     -1.636429    12A     -1.437487
      13A     -1.079883    14A     -1.015247    15A     -0.925357
      16A     -0.836500    17A     -0.829346    18A     -0.821037
      19A     -0.791015    20A     -0.721961    21A     -0.715135
      22A     -0.694544    23A     -0.674471    24A     -0.660862
      25A     -0.654493    26A     -0.641971    27A     -0.627895
      28A     -0.584180    29A     -0.562415    30A     -0.523561
      31A     -0.512196    32A     -0.352146

  @DF-RHF Final Energy:  -527.52955809036553

   => Energetics <=

    Nuclear Repulsion Energy =            413.2673296992014116
    One-Electron Energy =               -1550.2891102605367450
    Two-Electron Energy =                 609.4922224709697502
    DFT Exchange-Correlation Energy =       0.0000000000000000
    Empirical Dispersion Energy =           0.0000000000000000
    PCM Polarization Energy =               0.0000000000000000
    EFP Energy =                            0.0000000000000000
    Total Energy =                       -527.5295580903656401
    Molecular point group: c1
  Basis Set: 6-31G*
  Basis Set:

  -Total Gradient:
     Atom            X                  Y                   Z
    ------   -----------------  -----------------  -----------------
       1       -0.000007648294    -0.000012311472    -0.000006512595
       2        0.000012126910     0.000015396741     0.000000237466
       3        0.000061464496     0.000034033391     0.000055376862
       4        0.000002935470     0.000003303705     0.000003685311
       5       -0.000069174248    -0.000074603795    -0.000017755676
       6       -0.000005854247    -0.000015276320    -0.000024097840
       7        0.002780324116    -0.002319152538    -0.000101039890
       8       -0.002421096940     0.001947559072     0.000404679245
       9       -0.001862185924     0.001608031353     0.000019323791
      10       -0.000006958265    -0.000005681221    -0.000003851480
      11        0.001608694851    -0.001228315045    -0.000399647591
      12       -0.000006612756     0.000009310241     0.000058770463
      13       -0.000086015161     0.000037705886     0.000010831936

  **** Optimization is complete! (in 8 steps) ****
    Final optimized geometry and variables:
    Molecular point group: c1

    Geometry (in Angstrom), charge = 0, multiplicity = 1:

    H           -3.837845976843     1.028689188111    -0.327664714424
    C           -3.188428648050     0.342201662227     0.179942972499
    C           -2.040520232608     0.004565204248    -0.360689258712
    H           -3.499887917729    -0.053349106732     1.128443621464
    O           -1.196369798717    -0.881611161110     0.228458843711
    H           -1.709334550198     0.394990359657    -1.308049735729
    C            0.051333292639    -1.059409186950    -0.349411341553
    C            1.035532489362     0.067840513828    -0.010643645240
    H           -0.024636086874    -1.121806145941    -1.428654193950
    H            0.450232702232    -1.982957690035     0.038670058535
    F            1.342314663782     0.775161907859    -1.090871980166
    F            0.565892286249     0.898715351835     0.891938510140
    F            2.172649960765    -0.432355956922     0.448824819625

  Mulliken Charges: (a.u.)
   Center  Symbol    Alpha    Beta     Spin     Total
       1     H     0.40685  0.40685  0.00000  0.18631
       2     C     3.23417  3.23417  0.00000 -0.46834
       3     C     2.89921  2.89921  0.00000  0.20159
       4     H     0.40168  0.40168  0.00000  0.19664
       5     O     4.29786  4.29786  0.00000 -0.59573
       6     H     0.40641  0.40641  0.00000  0.18718
       7     C     3.08135  3.08135  0.00000 -0.16269
       8     C     2.44813  2.44813  0.00000  1.10374
       9     H     0.40052  0.40052  0.00000  0.19896
      10     H     0.38463  0.38463  0.00000  0.23073
      11     F     4.68450  4.68450  0.00000 -0.36899
      12     F     4.67111  4.67111  0.00000 -0.34222
      13     F     4.68359  4.68359  0.00000 -0.36718

   Total alpha = 32.00000, Total beta = 32.00000, Total charge =  0.00000
