  ==> Input File <==

--------------------------------------------------------------------------
set {
	reference rhf
	basis 6-31G*
}

set_num_threads( 4 )
memory 2 gb

molecule MOL {
0 1

H	 -3.406877	 1.853657	 -0.660606
O	 -2.701909	 1.266301	 -0.892852
C	 -2.306886	 0.532354	 0.237577
C	 -1.177863	 -0.397191	 -0.171080
H	 -1.971777	 1.200187	 1.030048
H	 -3.142283	 -0.045917	 0.630075
C	 0.198102	 0.111031	 0.262842
H	 -1.208843	 -0.518759	 -1.250427
H	 -1.368741	 -1.376554	 0.258909
C	 1.331804	 -0.827780	 -0.158768
H	 0.361943	 1.100838	 -0.156218
H	 0.217265	 0.229072	 1.345532
C	 2.723619	 -0.410569	 0.329459
H	 1.342964	 -0.912588	 -1.244120
H	 1.116806	 -1.824343	 0.220779
C	 3.243875	 0.895854	 -0.272975
H	 3.424222	 -1.207124	 0.091250
H	 2.714788	 -0.329854	 1.414619
H	 3.251977	 0.848779	 -1.358681
H	 2.637085	 1.747371	 0.016682
H	 4.259473	 1.094070	 0.055697

	symmetry c1
}
set optking {
	frozen_dihedral = ("
		2 3 4 8
	")
}

ee = optimize('scf')
oeprop('DIPOLE', 'QUADRUPOLE', 'MULLIKEN_CHARGES')
f=open( 'psi4out.xyz', 'w' )
f.write( "21  " )
f.write( str(ee) + "\n" )
f.write( MOL.save_string_xyz() )
f.close()
--------------------------------------------------------------------------

    Molecular point group: c1
  Charge       = 0
  Multiplicity = 1
  Basis Set: 6-31G*
  Basis Set:
  @DF-RHF Final Energy:  -310.20794371596429
    Total Energy =                       -310.2079437159642907
    Molecular point group: c1
  Basis Set: 6-31G*
  Basis Set:
  Basis Set: 6-31G*
  Basis Set:
  @DF-RHF Final Energy:  -310.20837135034094
    Total Energy =                       -310.2083713503410536
  Basis Set: 6-31G*
  Basis Set:
  Basis Set: 6-31G*
  Basis Set:
  @DF-RHF Final Energy:  -310.20850619152986
    Total Energy =                       -310.2085061915302049
  Basis Set: 6-31G*
  Basis Set:
  Basis Set: 6-31G*
  Basis Set:
  @DF-RHF Final Energy:  -310.20849691866721
    Total Energy =                       -310.2084969186672652
  Basis Set: 6-31G*
  Basis Set:
  Basis Set: 6-31G*
  Basis Set:
  @DF-RHF Final Energy:  -310.20850800916531
    Total Energy =                       -310.2085080091652571
  Basis Set: 6-31G*
  Basis Set:
  Basis Set: 6-31G*
  Basis Set:
  @DF-RHF Final Energy:  -310.20851086461232
    Total Energy =                       -310.2085108646123217
  Basis Set: 6-31G*
  Basis Set:
  Charge       = 0
  Multiplicity = 1
  Basis Set: 6-31G*
  Basis Set:

    Orbital Energies (a.u.)
    -----------------------

    Doubly Occupied:

       1A    -20.551812     2A    -11.267397     3A    -11.213036
       4A    -11.211361     5A    -11.210830     6A    -11.210495
       7A    -11.205502     8A     -1.357860     9A     -1.082900
      10A     -1.029904    11A     -0.952267    12A     -0.875108
      13A     -0.805365    14A     -0.775921    15A     -0.702924
      16A     -0.640449    17A     -0.625471    18A     -0.601932
      19A     -0.590554    20A     -0.561902    21A     -0.539890
      22A     -0.518720    23A     -0.504642    24A     -0.492110
      25A     -0.476933    26A     -0.458511    27A     -0.455060
      28A     -0.445886    29A     -0.423537

  @DF-RHF Final Energy:  -310.20851161230866

   => Energetics <=

    Nuclear Repulsion Energy =            314.8696012197132745
    One-Electron Energy =               -1044.5796648235441353
    Two-Electron Energy =                 419.5015519915219215
    DFT Exchange-Correlation Energy =       0.0000000000000000
    Empirical Dispersion Energy =           0.0000000000000000
    PCM Polarization Energy =               0.0000000000000000
    EFP Energy =                            0.0000000000000000
    Total Energy =                       -310.2085116123088824
    Molecular point group: c1
  Basis Set: 6-31G*
  Basis Set:

  -Total Gradient:
     Atom            X                  Y                   Z
    ------   -----------------  -----------------  -----------------
       1        0.000035955246    -0.000069772239     0.000054746679
       2       -0.002226464543    -0.002374642299    -0.000900880362
       3        0.003353929568     0.003886185151     0.000943244347
       4       -0.003885153038    -0.004669292513     0.000332535479
       5        0.000015729015    -0.000033788818     0.000042403449
       6        0.000015542471    -0.000007645657    -0.000001188463
       7        0.000007724982    -0.000012596383    -0.000070510661
       8        0.002702504715     0.003340548840    -0.000389406638
       9        0.000006146344    -0.000057577989    -0.000016118564
      10        0.000013055978    -0.000011548978     0.000006954290
      11       -0.000000720278     0.000013269727     0.000005210661
      12        0.000000233959    -0.000018062825    -0.000020656076
      13       -0.000012710184     0.000010158276     0.000018864032
      14       -0.000002777159     0.000013524007    -0.000002951030
      15       -0.000008630794    -0.000005932970     0.000000197593
      16       -0.000009125981     0.000000146694    -0.000004433461
      17       -0.000015899214    -0.000001716238    -0.000007186095
      18        0.000009574203    -0.000002495523     0.000008872924
      19        0.000003360681     0.000001006933     0.000000569494
      20       -0.000001312533     0.000002060759    -0.000004863954
      21       -0.000000963428    -0.000001827959     0.000004596358

  **** Optimization is complete! (in 7 steps) ****
    Final optimized geometry and variables:
    Molecular point group: c1

    Geometry (in Angstrom), charge = 0, multiplicity = 1:

    H           -3.452264943459     1.709229273626    -0.596394827701
    O           -2.792995847267     1.065428306179    -0.813556762308
    C           -2.450285460042     0.335745282402     0.339973638247
    C           -1.316021175945    -0.627441019476    -0.017112124916
    H           -2.144861857475     1.005773347338     1.141288015002
    H           -3.317817460338    -0.217153249929     0.694447775357
    C            0.066020508962    -0.111735001696     0.396568272572
    H           -1.327409767348    -0.748141680122    -1.095255117275
    H           -1.493733112187    -1.601159552658     0.430446886791
    C            1.200707466598    -1.034896883255    -0.052758978362
    H            0.201832407888     0.881890000903    -0.021637087501
    H            0.102817199293    -0.000214333544     1.479665390853
    C            2.595853070239    -0.613036020179     0.422094035151
    H            1.197697297482    -1.104404025294    -1.139318733594
    H            1.000020842639    -2.039368906783     0.315452542662
    C            3.093401527173     0.708681095938    -0.165880229061
    H            3.300808832199    -1.398375839763     0.160312763893
    H            2.602266432962    -0.550427468009     1.508551926919
    H            3.087618434825     0.678917505209    -1.252128124178
    H            2.480067762140     1.547908551646     0.144694388175
    H            4.110903916475     0.913497051034     0.152981412684

  Mulliken Charges: (a.u.)
   Center  Symbol    Alpha    Beta     Spin     Total
       1     H     0.28173  0.28173  0.00000  0.43654
       2     O     4.37108  4.37108  0.00000 -0.74216
       3     C     2.99706  2.99706  0.00000  0.00588
       4     C     3.16269  3.16269  0.00000 -0.32538
       5     H     0.43038  0.43038  0.00000  0.13923
       6     H     0.42996  0.42996  0.00000  0.14009
       7     C     3.15985  3.15985  0.00000 -0.31971
       8     H     0.40521  0.40521  0.00000  0.18958
       9     H     0.42157  0.42157  0.00000  0.15685
      10     C     3.15309  3.15309  0.00000 -0.30619
      11     H     0.41467  0.41467  0.00000  0.17065
      12     H     0.42668  0.42668  0.00000  0.14664
      13     C     3.15215  3.15215  0.00000 -0.30430
      14     H     0.42245  0.42245  0.00000  0.15510
      15     H     0.42341  0.42341  0.00000  0.15318
      16     C     3.24100  3.24100  0.00000 -0.48200
      17     H     0.42139  0.42139  0.00000  0.15722
      18     H     0.42421  0.42421  0.00000  0.15158
      19     H     0.42154  0.42154  0.00000  0.15693
      20     H     0.41984  0.41984  0.00000  0.16031
      21     H     0.42003  0.42003  0.00000  0.15995

   Total alpha = 29.00000, Total beta = 29.00000, Total charge =  0.00000
