  ==> Input File <==

--------------------------------------------------------------------------
set {
	reference rhf
	basis 6-31G*
}

set_num_threads( 1 )
memory 2 gb

molecule MOL {
0 1

H	 -2.698709	 -0.000305	 0.034435
C	 -1.693833	 0.000034	 0.434417
O	 -0.828952	 -0.000968	 -0.659236
H	 -1.574200	 0.882896	 1.055746
H	 -1.574147	 -0.881698	 1.057355
C	 -0.742549	 1.160635	 -1.451522
C	 -2.057472	 1.487230	 -2.156668
C	 -0.185139	 2.355311	 -0.680158
H	 -0.018191	 0.888179	 -2.209878
H	 -2.448692	 0.604449	 -2.650825
H	 -1.895339	 2.254129	 -2.907544
H	 -2.811319	 1.858107	 -1.469406
H	 0.719124	 2.073205	 -0.151781
H	 0.058876	 3.159535	 -1.367287
H	 -0.895682	 2.746867	 0.040711

	symmetry c1
}
set optking {
	frozen_dihedral = ("
		9 6 3 2
	")
}

ee = energy('scf')
oeprop('DIPOLE', 'QUADRUPOLE', 'MULLIKEN_CHARGES')
f=open( 'psi4out.xyz', 'w' )
f.write( "15  " )
f.write( str(ee) + "\n" )
f.write( MOL.save_string_xyz() )
f.close()
--------------------------------------------------------------------------

    Molecular point group: c1

    Geometry (in Angstrom), charge = 0, multiplicity = 1:

       Center              X                  Y                   Z               Mass
    ------------   -----------------  -----------------  -----------------  -----------------
           H         -1.582947050515    -0.995465756140     0.917711935321     1.007825032070
           C         -0.578071050515    -0.995126756140     1.317693935321    12.000000000000
           O          0.286809949485    -0.996128756140     0.224040935321    15.994914619560
           H         -0.458438050515    -0.112264756140     1.939022935321     1.007825032070
           H         -0.458385050515    -1.876858756140     1.940631935321     1.007825032070
           C          0.373212949485     0.165474243860    -0.568245064679    12.000000000000
           C         -0.941710050515     0.492069243860    -1.273391064679    12.000000000000
           C          0.930622949485     1.360150243860     0.203118935321    12.000000000000
           H          1.097570949485    -0.106981756140    -1.326601064679     1.007825032070
           H         -1.332930050515    -0.390711756140    -1.767548064679     1.007825032070
           H         -0.779577050515     1.258968243860    -2.024267064679     1.007825032070
           H         -1.695557050515     0.862946243860    -0.586129064679     1.007825032070
           H          1.834885949485     1.078044243860     0.731495935321     1.007825032070
           H          1.174637949485     2.164374243860    -0.484010064679     1.007825032070
           H          0.220079949485     1.751706243860     0.923987935321     1.007825032070

  Charge       = 0
  Multiplicity = 1
  Basis Set: 6-31G*
  Basis Set:

    Orbital Energies (a.u.)
    -----------------------

    Doubly Occupied:

       1A    -20.546345     2A    -11.275214     3A    -11.261196
       4A    -11.210720     5A    -11.210638     6A     -1.369711
       7A     -1.050306     8A     -0.939826     9A     -0.931282
      10A     -0.781308    11A     -0.673399    12A     -0.641609
      13A     -0.633049    14A     -0.575964    15A     -0.565515
      16A     -0.550760    17A     -0.533865    18A     -0.500182
      19A     -0.496375    20A     -0.441206    21A     -0.404303

  @DF-RHF Final Energy:  -232.13523853842443

   => Energetics <=

    Nuclear Repulsion Energy =            198.8954588879979326
    One-Electron Energy =                -708.8757643607975751
    Two-Electron Energy =                 277.8450669343747563
    DFT Exchange-Correlation Energy =       0.0000000000000000
    Empirical Dispersion Energy =           0.0000000000000000
    PCM Polarization Energy =               0.0000000000000000
    EFP Energy =                            0.0000000000000000
    Total Energy =                       -232.1352385384248578

  Mulliken Charges: (a.u.)
   Center  Symbol    Alpha    Beta     Spin     Total
       1     H     0.42835  0.42835  0.00000  0.14331
       2     C     3.08160  3.08160  0.00000 -0.16319
       3     O     4.31334  4.31334  0.00000 -0.62668
       4     H     0.43028  0.43028  0.00000  0.13943
       5     H     0.41242  0.41242  0.00000  0.17516
       6     C     2.90848  2.90848  0.00000  0.18304
       7     C     3.25414  3.25414  0.00000 -0.50827
       8     C     3.25343  3.25343  0.00000 -0.50686
       9     H     0.41463  0.41463  0.00000  0.17074
      10     H     0.41135  0.41135  0.00000  0.17730
      11     H     0.41914  0.41914  0.00000  0.16172
      12     H     0.42119  0.42119  0.00000  0.15762
      13     H     0.41116  0.41116  0.00000  0.17768
      14     H     0.41922  0.41922  0.00000  0.16155
      15     H     0.42127  0.42127  0.00000  0.15746

   Total alpha = 21.00000, Total beta = 21.00000, Total charge =  0.00000
