  ==> Input File <==

--------------------------------------------------------------------------
set {
	reference rhf
	basis 6-31G*
}

set_num_threads( 1 )
memory 2 gb

molecule MOL {
0 1

H	 2.873109	 0.360357	 0.426577
C	 1.951159	 -0.223429	 0.317018
C	 0.692068	 0.589600	 0.160137
O	 1.992055	 -1.411012	 0.327243
C	 -0.558097	 -0.297372	 0.091132
H	 0.791645	 1.202255	 -0.728243
H	 0.616171	 1.253469	 1.020572
C	 -1.850991	 0.512573	 -0.019058
H	 -0.476753	 -0.965681	 -0.762987
H	 -0.604799	 -0.930658	 0.975228
C	 -3.096943	 -0.368295	 -0.099594
H	 -1.800724	 1.150330	 -0.898172
H	 -1.931651	 1.177355	 0.838044
H	 -3.060452	 -1.020287	 -0.967456
H	 -3.996858	 0.233488	 -0.175704
H	 -3.191959	 -0.995686	 0.782074

	symmetry c1
}
set optking {
	frozen_dihedral = ("
		9 5 8 12,
		6 3 5 9
	")
}

ee = energy('scf')
oeprop('DIPOLE', 'QUADRUPOLE', 'MULLIKEN_CHARGES')
f=open( 'psi4out.xyz', 'w' )
f.write( "16  " )
f.write( str(ee) + "\n" )
f.write( MOL.save_string_xyz() )
f.close()
--------------------------------------------------------------------------

    Molecular point group: c1

    Geometry (in Angstrom), charge = 0, multiplicity = 1:

       Center              X                  Y                   Z               Mass
    ------------   -----------------  -----------------  -----------------  -----------------
           H          3.028297216713     0.575705038636     0.297108458967     1.007825032070
           C          2.106347216713    -0.008080961364     0.187549458967    12.000000000000
           C          0.847256216713     0.804948038636     0.030668458967    12.000000000000
           O          2.147243216713    -1.195663961364     0.197774458967    15.994914619560
           C         -0.402908783287    -0.082023961364    -0.038336541033    12.000000000000
           H          0.946833216713     1.417603038636    -0.857711541033     1.007825032070
           H          0.771359216713     1.468817038636     0.891103458967     1.007825032070
           C         -1.695802783287     0.727921038636    -0.148526541033    12.000000000000
           H         -0.321564783287    -0.750332961364    -0.892455541033     1.007825032070
           H         -0.449610783287    -0.715309961364     0.845759458967     1.007825032070
           C         -2.941754783287    -0.152946961364    -0.229062541033    12.000000000000
           H         -1.645535783287     1.365678038636    -1.027640541033     1.007825032070
           H         -1.776462783287     1.392703038636     0.708575458967     1.007825032070
           H         -2.905263783287    -0.804938961364    -1.096924541033     1.007825032070
           H         -3.841669783287     0.448836038636    -0.305172541033     1.007825032070
           H         -3.036770783287    -0.780337961364     0.652605458967     1.007825032070

  Charge       = 0
  Multiplicity = 1
  Basis Set: 6-31G*
  Basis Set:

    Orbital Energies (a.u.)
    -----------------------

    Doubly Occupied:

       1A    -20.564368     2A    -11.328442     3A    -11.237338
       4A    -11.221556     5A    -11.220864     6A    -11.211697
       7A     -1.404706     8A     -1.087340     9A     -1.014784
      10A     -0.907051    11A     -0.812787    12A     -0.770479
      13A     -0.674477    14A     -0.658138    15A     -0.628805
      16A     -0.599898    17A     -0.583029    18A     -0.533090
      19A     -0.527557    20A     -0.498347    21A     -0.482066
      22A     -0.475077    23A     -0.471739    24A     -0.411519

  @DF-RHF Final Energy:  -270.02085692545398

   => Energetics <=

    Nuclear Repulsion Energy =            232.2493028024893533
    One-Electron Energy =                -825.8899882210851047
    Two-Electron Energy =                 323.6198284931412559
    DFT Exchange-Correlation Energy =       0.0000000000000000
    Empirical Dispersion Energy =           0.0000000000000000
    PCM Polarization Energy =               0.0000000000000000
    EFP Energy =                            0.0000000000000000
    Total Energy =                       -270.0208569254544386

  Mulliken Charges: (a.u.)
   Center  Symbol    Alpha    Beta     Spin     Total
       1     H     0.42758  0.42758  0.00000  0.14484
       2     C     2.83506  2.83506  0.00000  0.32987
       3     C     3.21476  3.21476  0.00000 -0.42952
       4     O     4.23664  4.23664  0.00000 -0.47328
       5     C     3.14928  3.14928  0.00000 -0.29855
       6     H     0.40547  0.40547  0.00000  0.18906
       7     H     0.40808  0.40808  0.00000  0.18384
       8     C     3.15298  3.15298  0.00000 -0.30597
       9     H     0.41226  0.41226  0.00000  0.17548
      10     H     0.41229  0.41229  0.00000  0.17542
      11     C     3.23943  3.23943  0.00000 -0.47887
      12     H     0.42380  0.42380  0.00000  0.15239
      13     H     0.42394  0.42394  0.00000  0.15213
      14     H     0.41978  0.41978  0.00000  0.16044
      15     H     0.41875  0.41875  0.00000  0.16249
      16     H     0.41989  0.41989  0.00000  0.16022

   Total alpha = 24.00000, Total beta = 24.00000, Total charge = -0.00000
