  ==> Input File <==

--------------------------------------------------------------------------
set {
	reference rhf
	basis 6-31G*
}

set_num_threads( 1 )
memory 2 gb

molecule MOL {
0 1

O	 0.749854	 1.307668	 -0.000040
C	 0.576249	 0.131685	 -0.000108
C	 -0.766779	 -0.556801	 -0.000461
O	 1.568443	 -0.749345	 -0.000005
C	 -1.945214	 0.412366	 0.000161
H	 -0.796911	 -1.211249	 -0.867467
H	 -0.796854	 -1.212390	 0.865687
C	 -3.287791	 -0.317055	 0.000105
H	 -1.876087	 1.060580	 -0.866812
H	 -1.875822	 1.059691	 0.867761
H	 -3.394745	 -0.949193	 -0.877058
H	 -4.111778	 0.388953	 0.000015
H	 -3.394954	 -0.949187	 0.877259
C	 1.407089	 -1.898879	 0.811009
H	 1.293045	 -1.619004	 1.848412
H	 2.304635	 -2.482381	 0.677578
H	 0.541868	 -2.465841	 0.498830

	symmetry c1
}
set optking {
	frozen_dihedral = ("
		1 2 3 6,
		9 5 3 6
	")
}

ee = energy('scf')
oeprop('DIPOLE', 'QUADRUPOLE', 'MULLIKEN_CHARGES')
f=open( 'psi4out.xyz', 'w' )
f.write( "17  " )
f.write( str(ee) + "\n" )
f.write( MOL.save_string_xyz() )
f.close()
--------------------------------------------------------------------------

    Molecular point group: c1

    Geometry (in Angstrom), charge = 0, multiplicity = 1:

       Center              X                  Y                   Z               Mass
    ------------   -----------------  -----------------  -----------------  -----------------
           O          0.978316560524     1.564942108920    -0.125207650700    15.994914619560
           C          0.804711560524     0.388959108920    -0.125275650700    12.000000000000
           C         -0.538316439476    -0.299526891080    -0.125628650700    12.000000000000
           O          1.796905560524    -0.492070891080    -0.125172650700    15.994914619560
           C         -1.716751439476     0.669640108920    -0.125006650700    12.000000000000
           H         -0.568448439476    -0.953974891080    -0.992634650700     1.007825032070
           H         -0.568391439476    -0.955115891080     0.740519349300     1.007825032070
           C         -3.059328439476    -0.059780891080    -0.125062650700    12.000000000000
           H         -1.647624439476     1.317854108920    -0.991979650700     1.007825032070
           H         -1.647359439476     1.316965108920     0.742593349300     1.007825032070
           H         -3.166282439476    -0.691918891080    -1.002225650700     1.007825032070
           H         -3.883315439476     0.646227108920    -0.125152650700     1.007825032070
           H         -3.166491439476    -0.691912891080     0.752091349300     1.007825032070
           C          1.635551560524    -1.641604891080     0.685841349300    12.000000000000
           H          1.521507560524    -1.361729891080     1.723244349300     1.007825032070
           H          2.533097560524    -2.225106891080     0.552410349300     1.007825032070
           H          0.770330560524    -2.208566891080     0.373662349300     1.007825032070

  Charge       = 0
  Multiplicity = 1
  Basis Set: 6-31G*
  Basis Set:

    Orbital Energies (a.u.)
    -----------------------

    Doubly Occupied:

       1A    -20.599846     2A    -20.549724     3A    -11.374968
       4A    -11.297612     5A    -11.240965     6A    -11.225394
       7A    -11.218275     8A     -1.466781     9A     -1.370055
      10A     -1.082929    11A     -0.990335    12A     -0.972771
      13A     -0.841796    14A     -0.765909    15A     -0.703904
      16A     -0.687685    17A     -0.680141    18A     -0.641808
      19A     -0.611219    20A     -0.578822    21A     -0.569928
      22A     -0.554891    23A     -0.523065    24A     -0.496296
      25A     -0.490373    26A     -0.482474    27A     -0.455612
      28A     -0.432028

  @DF-RHF Final Energy:  -344.88086921352414

   => Energetics <=

    Nuclear Repulsion Energy =            316.4881507719485967
    One-Electron Energy =               -1096.9269960476701726
    Two-Electron Energy =                 435.5579760621976106
    DFT Exchange-Correlation Energy =       0.0000000000000000
    Empirical Dispersion Energy =           0.0000000000000000
    PCM Polarization Energy =               0.0000000000000000
    EFP Energy =                            0.0000000000000000
    Total Energy =                       -344.8808692135240221

  Mulliken Charges: (a.u.)
   Center  Symbol    Alpha    Beta     Spin     Total
       1     O     4.26588  4.26588  0.00000 -0.53175
       2     C     2.59781  2.59781  0.00000  0.80438
       3     C     3.23678  3.23678  0.00000 -0.47355
       4     O     4.30175  4.30175  0.00000 -0.60350
       5     C     3.14901  3.14901  0.00000 -0.29803
       6     H     0.39908  0.39908  0.00000  0.20184
       7     H     0.40388  0.40388  0.00000  0.19224
       8     C     3.24274  3.24274  0.00000 -0.48548
       9     H     0.40870  0.40870  0.00000  0.18260
      10     H     0.41045  0.41045  0.00000  0.17910
      11     H     0.42163  0.42163  0.00000  0.15673
      12     H     0.41404  0.41404  0.00000  0.17192
      13     H     0.42300  0.42300  0.00000  0.15400
      14     C     3.10361  3.10361  0.00000 -0.20723
      15     H     0.41130  0.41130  0.00000  0.17741
      16     H     0.39765  0.39765  0.00000  0.20470
      17     H     0.41269  0.41269  0.00000  0.17463

   Total alpha = 28.00000, Total beta = 28.00000, Total charge = -0.00000
