  ==> Input File <==

--------------------------------------------------------------------------
set {
	reference rhf
	basis 6-31G*
}

set_num_threads( 1 )
memory 2 gb

molecule MOL {
0 1

H	 1.104027	 -0.878065	 -1.050897
O	 0.822702	 -0.161412	 -1.603272
C	 0.408990	 0.901609	 -0.795316
C	 -0.793441	 0.596080	 0.058728
H	 0.179660	 1.720760	 -1.467328
H	 1.223407	 1.242056	 -0.156686
C	 -1.530462	 -0.493172	 -0.025500
H	 -1.041549	 1.355811	 0.783803
H	 -1.092586	 -1.461565	 -0.186463
H	 -2.602122	 -0.450675	 0.050101

	symmetry c1
}
set optking {
	frozen_dihedral = ("
		5 3 2 1,
		5 3 4 7
	")
}

ee = energy('scf')
oeprop('DIPOLE', 'QUADRUPOLE', 'MULLIKEN_CHARGES')
f=open( 'psi4out.xyz', 'w' )
f.write( "10  " )
f.write( str(ee) + "\n" )
f.write( MOL.save_string_xyz() )
f.close()
--------------------------------------------------------------------------

    Molecular point group: c1

    Geometry (in Angstrom), charge = 0, multiplicity = 1:

       Center              X                  Y                   Z               Mass
    ------------   -----------------  -----------------  -----------------  -----------------
           H          1.311920286401    -1.067802425663    -0.416310397915     1.007825032070
           O          1.030595286401    -0.351149425663    -0.968685397915    15.994914619560
           C          0.616883286401     0.711871574337    -0.160729397915    12.000000000000
           C         -0.585547713599     0.406342574337     0.693314602085    12.000000000000
           H          0.387553286401     1.531022574337    -0.832741397915     1.007825032070
           H          1.431300286401     1.052318574337     0.477900602085     1.007825032070
           C         -1.322568713599    -0.682909425663     0.609086602085    12.000000000000
           H         -0.833655713599     1.166073574337     1.418389602085     1.007825032070
           H         -0.884692713599    -1.651302425663     0.448123602085     1.007825032070
           H         -2.394228713599    -0.640412425663     0.684687602085     1.007825032070

  Charge       = 0
  Multiplicity = 1
  Basis Set: 6-31G*
  Basis Set:

    Orbital Energies (a.u.)
    -----------------------

    Doubly Occupied:

       1A    -20.559348     2A    -11.279169     3A    -11.232022
       4A    -11.220723     5A     -1.368154     6A     -1.058555
       7A     -0.928832     8A     -0.768900     9A     -0.688816
      10A     -0.655391    11A     -0.613453    12A     -0.569442
      13A     -0.558143    14A     -0.493446    15A     -0.451230
      16A     -0.331630

  @DF-RHF Final Energy:  -191.87848663314048

   => Energetics <=

    Nuclear Repulsion Energy =            119.3051369585306105
    One-Electron Energy =                -496.8127652435732102
    Two-Electron Energy =                 185.6291416519023301
    DFT Exchange-Correlation Energy =       0.0000000000000000
    Empirical Dispersion Energy =           0.0000000000000000
    PCM Polarization Energy =               0.0000000000000000
    EFP Energy =                            0.0000000000000000
    Total Energy =                       -191.8784866331402554

  Mulliken Charges: (a.u.)
   Center  Symbol    Alpha    Beta     Spin     Total
       1     H     0.28037  0.28037  0.00000  0.43927
       2     O     4.36572  4.36572  0.00000 -0.73144
       3     C     2.99800  2.99800  0.00000  0.00399
       4     C     3.09685  3.09685  0.00000 -0.19370
       5     H     0.40464  0.40464  0.00000  0.19072
       6     H     0.42995  0.42995  0.00000  0.14009
       7     C     3.19232  3.19232  0.00000 -0.38465
       8     H     0.40892  0.40892  0.00000  0.18217
       9     H     0.41605  0.41605  0.00000  0.16790
      10     H     0.40717  0.40717  0.00000  0.18566

   Total alpha = 16.00000, Total beta = 16.00000, Total charge = -0.00000
