                              Psi4 1.0.54 Driver

  ==> Input File <==

--------------------------------------------------------------------------
set {
	reference rhf
	basis cc-pvtz
}

set_num_threads( 4 )
memory 2 gb

molecule MOL {
0 1

O	 0.675956	 -1.103837	 -2.169361
C	 0.068133	 -1.144334	 -1.155068
C	 -1.329373	 -1.674698	 -1.008963
O	 0.550743	 -0.719877	 0.000412
H	 -1.335163	 -2.491680	 -0.299096
H	 -1.689832	 -2.011873	 -1.967042
H	 -1.973807	 -0.896874	 -0.620207
C	 1.863204	 -0.194033	 0.000410
H	 2.031502	 0.409177	 -0.879273
H	 2.524488	 -1.045142	 0.000793
H	 2.031291	 0.409823	 0.879686

	symmetry c1
}
set optking {
	frozen_dihedral = ("
		2 4 8 9
	")
}

ee,wfn = optimize('scf', return_wfn=True)
oeprop( wfn, 'DIPOLE', 'QUADRUPOLE', 'MULLIKEN_CHARGES')
f=open( 'psi4out.xyz', 'w' )
f.write( "11  " )
f.write( str(ee) + "\n" )
f.write( MOL.save_string_xyz() )
f.close()
--------------------------------------------------------------------------

    Molecular point group: c1
  Charge       = 0
  Multiplicity = 1
  Basis Set: CC-PVTZ
  Basis Set:
  @DF-RHF Final Energy:  -266.93730072633559
    Total Energy =                       -266.9373007263354793
    Molecular point group: c1
  Basis Set: CC-PVTZ
  Basis Set:
  Basis Set: CC-PVTZ
  Basis Set:
  @DF-RHF Final Energy:  -266.93833515970994
    Total Energy =                       -266.9383351597097089
  Basis Set: CC-PVTZ
  Basis Set:
  Basis Set: CC-PVTZ
  Basis Set:
  @DF-RHF Final Energy:  -266.93843873008245
    Total Energy =                       -266.9384387300823391
  Basis Set: CC-PVTZ
  Basis Set:
  Basis Set: CC-PVTZ
  Basis Set:
  @DF-RHF Final Energy:  -266.93857780636415
    Total Energy =                       -266.9385778063641510
  Basis Set: CC-PVTZ
  Basis Set:
  Basis Set: CC-PVTZ
  Basis Set:
  @DF-RHF Final Energy:  -266.93865955081344
    Total Energy =                       -266.9386595508133837
  Basis Set: CC-PVTZ
  Basis Set:
  Charge       = 0
  Multiplicity = 1
  Basis Set: CC-PVTZ
  Basis Set:

    Orbital Energies (a.u.)
    -----------------------

    Doubly Occupied:

       1A    -20.598528     2A    -20.535099     3A    -11.369185
       4A    -11.279595     5A    -11.233072     6A     -1.473717
       7A     -1.367859     8A     -1.037052     9A     -0.953815
      10A     -0.780068    11A     -0.698674    12A     -0.683781
      13A     -0.681181    14A     -0.596518    15A     -0.593205
      16A     -0.561968    17A     -0.528156    18A     -0.523941
      19A     -0.461416    20A     -0.445860

  @DF-RHF Final Energy:  -266.93865987193891

   => Energetics <=

    Nuclear Repulsion Energy =            183.5995655197311294
    One-Electron Energy =                -728.2710712732250613
    Two-Electron Energy =                 277.7328458815551357
    DFT Exchange-Correlation Energy =       0.0000000000000000
    Empirical Dispersion Energy =           0.0000000000000000
    PCM Polarization Energy =               0.0000000000000000
    EFP Energy =                            0.0000000000000000
    Total Energy =                       -266.9386598719387393
    Molecular point group: c1
  Basis Set: CC-PVTZ
  Basis Set:

  -Total Gradient:
     Atom            X                  Y                   Z
    ------   -----------------  -----------------  -----------------
       1        0.000039233991     0.000059552196     0.000084027355
       2       -0.000437040414     0.001182046648    -0.000221233933
       3        0.000005133423     0.000008760943     0.000036029433
       4        0.000816494801    -0.001927597314     0.000040612675
       5       -0.000016037844    -0.000005572481    -0.000004400384
       6        0.000022935172     0.000000470810     0.000009561715
       7        0.000025126343    -0.000012954933    -0.000002399395
       8       -0.000883364764     0.001822393360     0.000813788687
       9        0.000402770471    -0.001141336934    -0.000778486445
      10        0.000039427548    -0.000076773101     0.000002124059
      11       -0.000014678724     0.000091010806     0.000020376229

  **** Optimization is complete! (in 6 steps) ****
    Final optimized geometry and variables:
    Molecular point group: c1

    Geometry (in Angstrom), charge = 0, multiplicity = 1:

    O            0.283239703621    -0.158916430176    -1.317352930999
    C           -0.316807408829    -0.187160485618    -0.298130472170
    C           -1.720482851071    -0.697875574538    -0.140950220338
    O            0.177199880183     0.231364019816     0.854901568393
    H           -1.732676858721    -1.511209742352     0.572995944019
    H           -2.091040550511    -1.035093183622    -1.095137170017
    H           -2.351945847726     0.090403050268     0.247879000485
    C            1.485594763079     0.767912540753     0.858839279963
    H            1.650837426213     1.382632096872    -0.011150546986
    H            2.213864997244    -0.031546344589     0.864631158454
    H            1.572394271979     1.349587982265     1.762226741963

  Mulliken Charges: (a.u.)
   Center  Symbol    Alpha    Beta     Spin     Total
       1     O     4.19704  4.19704  0.00000 -0.39409
       2     C     2.80065  2.80065  0.00000  0.39869
       3     C     3.13860  3.13860  0.00000 -0.27720
       4     O     4.14823  4.14823  0.00000 -0.29647
       5     H     0.44519  0.44519  0.00000  0.10962
       6     H     0.43789  0.43789  0.00000  0.12422
       7     H     0.44571  0.44571  0.00000  0.10858
       8     C     3.03383  3.03383  0.00000 -0.06766
       9     H     0.44973  0.44973  0.00000  0.10054
      10     H     0.45659  0.45659  0.00000  0.08683
      11     H     0.44653  0.44653  0.00000  0.10693

   Total alpha = 20.00000, Total beta = 20.00000, Total charge =  0.00000

*** Psi4 exiting successfully. Buy a developer a beer!
