  ==> Input File <==

--------------------------------------------------------------------------
set {
	reference rhf
	basis 6-31G*
}

set_num_threads( 4 )
memory 2 gb

molecule MOL {
0 1

H	 -0.687322	 1.985602	 0.911572
C	 0.041532	 1.201878	 1.123315
N	 0.538815	 0.649616	 0.000000
O	 0.337030	 0.898416	 2.241260
C	 1.521968	 -0.411503	 0.000000
H	 0.207592	 0.995048	 -0.871351
H	 2.150599	 -0.357004	 -0.881901
H	 0.999455	 -1.354525	 0.000000
H	 2.150599	 -0.357004	 0.881901

	symmetry c1
}
set optking {
	frozen_dihedral = ("
		6 3 5 7
	")
}

ee = optimize('scf')
oeprop('DIPOLE', 'QUADRUPOLE', 'MULLIKEN_CHARGES')
f=open( 'psi4out.xyz', 'w' )
f.write( "9  " )
f.write( str(ee) + "\n" )
f.write( MOL.save_string_xyz() )
f.close()
--------------------------------------------------------------------------

    Molecular point group: c1
  Charge       = 0
  Multiplicity = 1
  Basis Set: 6-31G*
  Basis Set:
  @DF-RHF Final Energy:  -207.96021658843699
    Total Energy =                       -207.9602165884369640
    Molecular point group: c1
  Basis Set: 6-31G*
  Basis Set:
  Basis Set: 6-31G*
  Basis Set:
  @DF-RHF Final Energy:  -207.96084857948216
    Total Energy =                       -207.9608485794821604
  Basis Set: 6-31G*
  Basis Set:
  Basis Set: 6-31G*
  Basis Set:
  @DF-RHF Final Energy:  -207.96098828906378
    Total Energy =                       -207.9609882890638346
  Basis Set: 6-31G*
  Basis Set:
  Basis Set: 6-31G*
  Basis Set:
  @DF-RHF Final Energy:  -207.96091101637572
    Total Energy =                       -207.9609110163757464
  Basis Set: 6-31G*
  Basis Set:
  Basis Set: 6-31G*
  Basis Set:
  @DF-RHF Final Energy:  -207.96103711971034
    Total Energy =                       -207.9610371197103404
  Basis Set: 6-31G*
  Basis Set:
  Basis Set: 6-31G*
  Basis Set:
  @DF-RHF Final Energy:  -207.96106538009735
    Total Energy =                       -207.9610653800973239
  Basis Set: 6-31G*
  Basis Set:
  Basis Set: 6-31G*
  Basis Set:
  @DF-RHF Final Energy:  -207.96106857751636
    Total Energy =                       -207.9610685775163574
  Basis Set: 6-31G*
  Basis Set:
  Charge       = 0
  Multiplicity = 1
  Basis Set: 6-31G*
  Basis Set:

    Orbital Energies (a.u.)
    -----------------------

    Doubly Occupied:

       1A    -20.526216     2A    -15.590531     3A    -11.343285
       4A    -11.260911     5A     -1.389490     6A     -1.236169
       7A     -0.967925     8A     -0.807655     9A     -0.746464
      10A     -0.641347    11A     -0.626735    12A     -0.592665
      13A     -0.556813    14A     -0.533977    15A     -0.424085
      16A     -0.391244

  @DF-RHF Final Energy:  -207.96106862244983

   => Energetics <=

    Nuclear Repulsion Energy =            122.6317887847007881
    One-Electron Energy =                -525.9146898789854276
    Two-Electron Energy =                 195.3218324718347674
    DFT Exchange-Correlation Energy =       0.0000000000000000
    Empirical Dispersion Energy =           0.0000000000000000
    PCM Polarization Energy =               0.0000000000000000
    EFP Energy =                            0.0000000000000000
    Total Energy =                       -207.9610686224498579
    Molecular point group: c1
  Basis Set: 6-31G*
  Basis Set:

  -Total Gradient:
     Atom            X                  Y                   Z
    ------   -----------------  -----------------  -----------------
       1        0.000001338470     0.000000774335     0.000003774224
       2       -0.000009593549     0.000008555174    -0.000037362698
       3        0.000025819559     0.000028365593     0.000018560203
       4        0.000009863081    -0.000009641832     0.000014324532
       5       -0.000015972980    -0.000033326672    -0.000009791644
       6       -0.000021802899    -0.000017033119     0.000001217233
       7        0.000014567226     0.000016091713     0.000008752540
       8       -0.000004033653     0.000004390600    -0.000001203623
       9       -0.000000185255     0.000001824208     0.000001729230

  **** Optimization is complete! (in 8 steps) ****
    Final optimized geometry and variables:
    Molecular point group: c1

    Geometry (in Angstrom), charge = 0, multiplicity = 1:

    H           -1.294732763573     1.428539089573     0.093237354297
    C           -0.580584068655     0.626646413602     0.286998251740
    N           -0.025684733212     0.140345964690    -0.839240161535
    O           -0.329634968520     0.252654700995     1.394362193659
    C            0.901436975014    -0.970901543667    -0.823668195084
    H           -0.377604816818     0.462118259648    -1.711116007583
    H            1.475624457326    -0.965063853556    -1.740756709024
    H            0.390198556918    -1.923649339998    -0.733725330257
    H            1.574592817881    -0.862786742446     0.013554654191

  Mulliken Charges: (a.u.)
   Center  Symbol    Alpha    Beta     Spin     Total
       1     H     0.42700  0.42700  0.00000  0.14600
       2     C     2.74689  2.74689  0.00000  0.50621
       3     N     3.87425  3.87425  0.00000 -0.74850
       4     O     4.28309  4.28309  0.00000 -0.56618
       5     C     3.13908  3.13908  0.00000 -0.27817
       6     H     0.30879  0.30879  0.00000  0.38241
       7     H     0.41502  0.41502  0.00000  0.16996
       8     H     0.41121  0.41121  0.00000  0.17758
       9     H     0.39466  0.39466  0.00000  0.21067

   Total alpha = 16.00000, Total beta = 16.00000, Total charge =  0.00000
