  ==> Input File <==

--------------------------------------------------------------------------
set {
	reference rhf
	basis cc-pvtz
}

set_num_threads( 4 )
memory 2 gb

molecule MOL {
0 1

H	 3.889604	 0.356866	 -0.089510
N	 3.091268	 -0.241216	 -0.065538
C	 1.860978	 0.530248	 0.016256
H	 3.192566	 -0.835836	 0.730398
C	 0.644130	 -0.381765	 -0.031064
H	 1.835721	 1.204666	 -0.833114
H	 1.808789	 1.151975	 0.911067
C	 -0.678115	 0.376691	 0.025731
H	 0.693998	 -0.977147	 -0.936845
H	 0.693309	 -1.082142	 0.800523
C	 -1.898633	 -0.538633	 0.067199
H	 -0.753894	 1.032339	 -0.838756
H	 -0.688580	 1.024303	 0.899437
C	 -3.218653	 0.223401	 0.117443
H	 -1.889796	 -1.186820	 -0.804621
H	 -1.827263	 -1.192283	 0.932311
H	 -3.336012	 0.860738	 -0.752769
H	 -4.063484	 -0.455169	 0.145896
H	 -3.272722	 0.855536	 0.997681

	symmetry c1
}
set optking {
	frozen_dihedral = ("
		12 8 5 9
	")
}

ee = optimize('scf')
oeprop('DIPOLE', 'QUADRUPOLE', 'MULLIKEN_CHARGES')
f=open( 'psi4out.xyz', 'w' )
f.write( "19  " )
f.write( str(ee) + "\n" )
f.write( MOL.save_string_xyz() )
f.close()
--------------------------------------------------------------------------

    Molecular point group: c1
  Charge       = 0
  Multiplicity = 1
  Basis Set: CC-PVTZ
  Basis Set:
  @DF-RHF Final Energy:  -251.44809878076032
    Total Energy =                       -251.4480987807604606
    Molecular point group: c1
  Basis Set: CC-PVTZ
  Basis Set:
  Basis Set: CC-PVTZ
  Basis Set:
  @DF-RHF Final Energy:  -251.44810518340236
    Total Energy =                       -251.4481051834023901
  Basis Set: CC-PVTZ
  Basis Set:
  Basis Set: CC-PVTZ
  Basis Set:
  @DF-RHF Final Energy:  -251.44810729109099
    Total Energy =                       -251.4481072910909916
  Basis Set: CC-PVTZ
  Basis Set:
  Charge       = 0
  Multiplicity = 1
  Basis Set: CC-PVTZ
  Basis Set:

    Orbital Energies (a.u.)
    -----------------------

    Doubly Occupied:

       1A    -15.526379     2A    -11.237873     3A    -11.211871
       4A    -11.210464     5A    -11.207676     6A    -11.205448
       7A     -1.178135     8A     -1.074284     9A     -0.999599
      10A     -0.900939    11A     -0.813250    12A     -0.789577
      13A     -0.666013    14A     -0.643668    15A     -0.617402
      16A     -0.590346    17A     -0.565027    18A     -0.549073
      19A     -0.531561    20A     -0.498030    21A     -0.481390
      22A     -0.465005    23A     -0.461725    24A     -0.450781
      25A     -0.383777

  @DF-RHF Final Energy:  -251.44810737737373

   => Energetics <=

    Nuclear Repulsion Energy =            246.0642455471135008
    One-Electron Energy =                -826.5061129369996706
    Two-Electron Energy =                 328.9937600125126096
    DFT Exchange-Correlation Energy =       0.0000000000000000
    Empirical Dispersion Energy =           0.0000000000000000
    PCM Polarization Energy =               0.0000000000000000
    EFP Energy =                            0.0000000000000000
    Total Energy =                       -251.4481073773735602
    Molecular point group: c1
  Basis Set: CC-PVTZ
  Basis Set:

  -Total Gradient:
     Atom            X                  Y                   Z
    ------   -----------------  -----------------  -----------------
       1       -0.000002537553    -0.000000396399     0.000001605781
       2        0.000000994401     0.000000456274     0.000005658250
       3        0.000000715282    -0.000003196141    -0.000005439552
       4        0.000004178601    -0.000000093744     0.000000036496
       5       -0.000408067642    -0.000719910462     0.000279320023
       6       -0.000001433016    -0.000000557474     0.000001417622
       7        0.000005779471     0.000006739498     0.000002767308
       8        0.000414178562     0.000691187865     0.000325001560
       9        0.000265773001     0.000484886198    -0.000310137884
      10       -0.000001108206     0.000012663210     0.000001112250
      11        0.000001997920     0.000000251242     0.000031801359
      12       -0.000266238010    -0.000458038387    -0.000325322043
      13       -0.000006837512    -0.000009605777     0.000002722908
      14       -0.000002510625    -0.000000677337    -0.000013697131
      15        0.000001739392     0.000002110495     0.000002668398
      16       -0.000006272638    -0.000006406490     0.000003697482
      17       -0.000001984464     0.000005498255     0.000000533031
      18        0.000000226141    -0.000000103532    -0.000004792485
      19        0.000001406893    -0.000004807293     0.000001046625

  **** Optimization is complete! (in 4 steps) ****
    Final optimized geometry and variables:
    Molecular point group: c1

    Geometry (in Angstrom), charge = 0, multiplicity = 1:

    H            3.887941442473     0.359621376405    -0.137946841792
    N            3.090158390953    -0.239067264178    -0.110119099068
    C            1.860319206012     0.530968815425    -0.010775016488
    H            3.199849749612    -0.838744382049     0.680929889168
    C            0.643324257053    -0.381793379495    -0.050099697759
    H            1.825275089369     1.210241310670    -0.856011836188
    H            1.817349110362     1.147586488710     0.888031335155
    C           -0.678285299346     0.377909122675     0.006740965439
    H            0.691637048890    -0.976805963631    -0.956108015740
    H            0.696064012067    -1.079300675527     0.783508158757
    C           -1.899317741557    -0.537429470097     0.040632320736
    H           -0.752237654945     1.033128076009    -0.858083902898
    H           -0.692031156353     1.022753993255     0.882310458471
    C           -3.219593691897     0.224855925544     0.077609472557
    H           -1.883287900468    -1.188022570533    -0.829341665667
    H           -1.835336756192    -1.188568744336     0.908166990966
    H           -3.329969629027     0.859096760804    -0.795753482505
    H           -4.064726914723    -0.453547247394     0.101826092721
    H           -3.280494966248     0.860099988708     0.955182650306

  Mulliken Charges: (a.u.)
   Center  Symbol    Alpha    Beta     Spin     Total
       1     H     0.43023  0.43023  0.00000  0.13953
       2     N     3.68918  3.68918  0.00000 -0.37837
       3     C     3.02671  3.02671  0.00000 -0.05343
       4     H     0.43104  0.43104  0.00000  0.13792
       5     C     3.08169  3.08169  0.00000 -0.16338
       6     H     0.45720  0.45720  0.00000  0.08559
       7     H     0.46855  0.46855  0.00000  0.06290
       8     C     3.09313  3.09313  0.00000 -0.18626
       9     H     0.44875  0.44875  0.00000  0.10251
      10     H     0.46040  0.46040  0.00000  0.07920
      11     C     3.08339  3.08339  0.00000 -0.16677
      12     H     0.45473  0.45473  0.00000  0.09055
      13     H     0.45688  0.45688  0.00000  0.08624
      14     C     3.14986  3.14986  0.00000 -0.29972
      15     H     0.45385  0.45385  0.00000  0.09230
      16     H     0.45501  0.45501  0.00000  0.08999
      17     H     0.45518  0.45518  0.00000  0.08964
      18     H     0.44856  0.44856  0.00000  0.10289
      19     H     0.45566  0.45566  0.00000  0.08868

   Total alpha = 25.00000, Total beta = 25.00000, Total charge =  0.00000
