                              Psi4 1.0.54 Driver

  ==> Input File <==

--------------------------------------------------------------------------
set {
	reference rhf
	basis cc-pvtz
}

set_num_threads( 4 )
memory 2 gb

molecule MOL {
0 1

H	 -1.703443	 -1.016900	 -1.009268
O	 -2.321472	 -0.864941	 -0.318626
C	 -2.021813	 0.336996	 0.342658
C	 -0.669613	 0.837286	 -0.127252
H	 -2.780861	 1.084746	 0.127159
H	 -2.006390	 0.184138	 1.420053
C	 0.490865	 -0.082543	 0.241244
H	 -0.708709	 0.967192	 -1.204587
H	 -0.507562	 1.822272	 0.303070
C	 1.839800	 0.429565	 -0.255472
H	 0.305636	 -1.070211	 -0.165276
H	 0.527397	 -0.195943	 1.322876
C	 3.001144	 -0.485193	 0.119072
H	 1.804373	 0.541073	 -1.335756
H	 2.020437	 1.423114	 0.146921
H	 2.866892	 -1.477297	 -0.298806
H	 3.943543	 -0.095749	 -0.249061
H	 3.085064	 -0.590459	 1.195790

	symmetry c1
}
set optking {
	frozen_dihedral = ("
		1 2 3 4
	")
}

ee,wfn = optimize('scf', return_wfn=True)
oeprop( wfn, 'DIPOLE', 'QUADRUPOLE', 'MULLIKEN_CHARGES')
f=open( 'psi4out.xyz', 'w' )
f.write( "18  " )
f.write( str(ee) + "\n" )
f.write( MOL.save_string_xyz() )
f.close()
--------------------------------------------------------------------------

    Molecular point group: c1
  Charge       = 0
  Multiplicity = 1
  Basis Set: CC-PVTZ
  Basis Set:
  @DF-RHF Final Energy:  -271.28219819737308
    Total Energy =                       -271.2821981973731340
    Molecular point group: c1
  Basis Set: CC-PVTZ
  Basis Set:
  Basis Set: CC-PVTZ
  Basis Set:
  @DF-RHF Final Energy:  -271.18249184509887
    Total Energy =                       -271.1824918450986388
  Basis Set: CC-PVTZ
  Basis Set:
  Basis Set: CC-PVTZ
  Basis Set:
  @DF-RHF Final Energy:  -271.26749062541063
    Total Energy =                       -271.2674906254106304
  Basis Set: CC-PVTZ
  Basis Set:
  Basis Set: CC-PVTZ
  Basis Set:
  @DF-RHF Final Energy:  -271.28355066102131
    Total Energy =                       -271.2835506610214225
  Basis Set: CC-PVTZ
  Basis Set:
  Basis Set: CC-PVTZ
  Basis Set:
  @DF-RHF Final Energy:  -271.28361685315599
    Total Energy =                       -271.2836168531559906
  Basis Set: CC-PVTZ
  Basis Set:
  Basis Set: CC-PVTZ
  Basis Set:
  @DF-RHF Final Energy:  -271.28398404325219
    Total Energy =                       -271.2839840432521328
  Basis Set: CC-PVTZ
  Basis Set:
  Basis Set: CC-PVTZ
  Basis Set:
  @DF-RHF Final Energy:  -271.28399971179186
    Total Energy =                       -271.2839997117918642
  Basis Set: CC-PVTZ
  Basis Set:
  Charge       = 0
  Multiplicity = 1
  Basis Set: CC-PVTZ
  Basis Set:

    Orbital Energies (a.u.)
    -----------------------

    Doubly Occupied:

       1A    -20.542963     2A    -11.264815     3A    -11.222075
       4A    -11.219391     5A    -11.218774     6A    -11.210693
       7A     -1.361317     8A     -1.086107     9A     -1.015443
      10A     -0.922637    11A     -0.835866    12A     -0.798548
      13A     -0.663988    14A     -0.658901    15A     -0.636688
      16A     -0.613125    17A     -0.577588    18A     -0.558651
      19A     -0.542991    20A     -0.500077    21A     -0.495450
      22A     -0.479431    23A     -0.470812    24A     -0.455419
      25A     -0.429880

  @DF-RHF Final Energy:  -271.28399998474765

   => Energetics <=

    Nuclear Repulsion Energy =            249.1217838786103584
    One-Electron Energy =                -861.2483204557039471
    Two-Electron Energy =                 340.8425365923457093
    DFT Exchange-Correlation Energy =       0.0000000000000000
    Empirical Dispersion Energy =           0.0000000000000000
    PCM Polarization Energy =               0.0000000000000000
    EFP Energy =                            0.0000000000000000
    Total Energy =                       -271.2839999847478794
    Molecular point group: c1
  Basis Set: CC-PVTZ
  Basis Set:

  -Total Gradient:
     Atom            X                  Y                   Z
    ------   -----------------  -----------------  -----------------
       1        0.001054130933    -0.000808182615     0.000480498640
       2       -0.001526024939     0.001227296759    -0.000721291481
       3        0.001056670269    -0.000895087178     0.000674569067
       4       -0.000547809971     0.000520270730    -0.000436431281
       5       -0.000018863483    -0.000006864970     0.000019467756
       6       -0.000028898198    -0.000034461472    -0.000006631407
       7        0.000010959025    -0.000024969841     0.000002743369
       8       -0.000002407009     0.000001197577    -0.000001867667
       9        0.000017552701     0.000010240755    -0.000001861725
      10       -0.000000632790     0.000007092703    -0.000011407908
      11       -0.000016285419    -0.000007611834    -0.000003840115
      12        0.000006034975     0.000013380039     0.000007420286
      13       -0.000014704531    -0.000000893420     0.000007921439
      14       -0.000004787251    -0.000003189253    -0.000011177986
      15        0.000006525298     0.000002432935     0.000007153685
      16       -0.000001506819    -0.000004641419    -0.000006587800
      17        0.000003441991     0.000000908967    -0.000004772506
      18        0.000006605218     0.000003081539     0.000006095635

  **** Optimization is complete! (in 8 steps) ****
    Final optimized geometry and variables:
    Molecular point group: c1

    Geometry (in Angstrom), charge = 0, multiplicity = 1:

    H           -2.233252697230    -0.807928114849     0.055950872668
    O           -2.383490670259    -0.480171076346     0.922242951565
    C           -1.590833056480     0.654278080027     1.167791546972
    C           -0.541287374818     0.915960725077     0.099107008341
    H           -2.241401969959     1.519240326192     1.248423212723
    H           -1.112350216322     0.517452984512     2.131676252937
    C            0.541781442417    -0.157093688647     0.002657103279
    H           -1.039020914324     1.028951071058    -0.862628843050
    H           -0.078336897298     1.874817506285     0.313788820887
    C            1.573785384776     0.128382035388    -1.084867145121
    H            0.090364979376    -1.127982443766    -0.182479158050
    H            1.043663245085    -0.239684729649     0.963285520992
    C            2.660236591399    -0.937957912916    -1.173590739122
    H            1.070986539047     0.210896306374    -2.044757750621
    H            2.032699811794     1.095542674702    -0.898664553418
    H            2.235823891360    -1.911967789543    -1.393214978028
    H            3.375365842126    -0.705524666797    -1.954151126164
    H            3.205304556195    -1.019745218011    -0.239203781691

  Mulliken Charges: (a.u.)
   Center  Symbol    Alpha    Beta     Spin     Total
       1     H     0.39190  0.39190  0.00000  0.21620
       2     O     4.20869  4.20869  0.00000 -0.41739
       3     C     2.95503  2.95503  0.00000  0.08993
       4     C     3.11499  3.11499  0.00000 -0.22999
       5     H     0.46390  0.46390  0.00000  0.07221
       6     H     0.47067  0.47067  0.00000  0.05867
       7     C     3.08647  3.08647  0.00000 -0.17295
       8     H     0.45276  0.45276  0.00000  0.09448
       9     H     0.45016  0.45016  0.00000  0.09969
      10     C     3.08389  3.08389  0.00000 -0.16778
      11     H     0.45460  0.45460  0.00000  0.09080
      12     H     0.45200  0.45200  0.00000  0.09600
      13     C     3.14944  3.14944  0.00000 -0.29888
      14     H     0.45457  0.45457  0.00000  0.09087
      15     H     0.45397  0.45397  0.00000  0.09205
      16     H     0.45485  0.45485  0.00000  0.09029
      17     H     0.44786  0.44786  0.00000  0.10429
      18     H     0.45424  0.45424  0.00000  0.09151

   Total alpha = 25.00000, Total beta = 25.00000, Total charge =  0.00000

*** Psi4 exiting successfully. Buy a developer a beer!
