  ==> Input File <==

--------------------------------------------------------------------------
set {
	reference rhf
	basis 6-31G*
}

set_num_threads( 1 )
memory 2 gb

molecule MOL {
0 1

O	 -2.190643	 0.451450	 -1.892279
C	 -2.334260	 -0.324737	 -1.002603
C	 -3.504313	 -1.268136	 -0.891955
O	 -1.481751	 -0.454642	 0.000584
H	 -3.534155	 -1.890858	 -1.778064
H	 -3.440365	 -1.887694	 -0.009630
H	 -4.418592	 -0.687245	 -0.868719
C	 -0.334255	 0.388708	 0.000906
C	 0.891947	 -0.504646	 0.000751
H	 -0.365390	 1.025305	 -0.873475
H	 -0.365484	 1.024911	 0.875569
C	 2.191998	 0.301789	 0.000897
H	 0.855148	 -1.151283	 -0.871571
H	 0.855132	 -1.151660	 0.872805
C	 3.441114	 -0.581407	 0.000108
H	 2.215074	 0.954890	 -0.869742
H	 2.215465	 0.953923	 0.872248
C	 4.739576	 0.224112	 -0.001102
H	 3.419457	 -1.233487	 -0.870178
H	 3.420834	 -1.233096	 0.870717
H	 4.804918	 0.861552	 -0.878265
H	 5.606527	 -0.429058	 -0.001824
H	 4.806469	 0.861674	 0.875853

	symmetry c1
}
set optking {
	frozen_dihedral = ("
		13 9 8 10,
		16 12 9 13,
		19 15 12 16,
		1 2 4 8
	")
}

ee = energy('scf')
oeprop('DIPOLE', 'QUADRUPOLE', 'MULLIKEN_CHARGES')
f=open( 'psi4out.xyz', 'w' )
f.write( "23  " )
f.write( str(ee) + "\n" )
f.write( MOL.save_string_xyz() )
f.close()
--------------------------------------------------------------------------

    Molecular point group: c1

    Geometry (in Angstrom), charge = 0, multiplicity = 1:

       Center              X                  Y                   Z               Mass
    ------------   -----------------  -----------------  -----------------  -----------------
           O         -2.333325319109     0.645425913579    -1.464540436300    15.994914619560
           C         -2.476942319109    -0.130761086421    -0.574864436300    12.000000000000
           C         -3.646995319109    -1.074160086421    -0.464216436300    12.000000000000
           O         -1.624433319109    -0.260666086421     0.428322563700    15.994914619560
           H         -3.676837319109    -1.696882086421    -1.350325436300     1.007825032070
           H         -3.583047319109    -1.693718086421     0.418108563700     1.007825032070
           H         -4.561274319109    -0.493269086421    -0.440980436300     1.007825032070
           C         -0.476937319109     0.582683913579     0.428644563700    12.000000000000
           C          0.749264680891    -0.310670086421     0.428489563700    12.000000000000
           H         -0.508072319109     1.219280913579    -0.445736436300     1.007825032070
           H         -0.508166319109     1.218886913579     1.303307563700     1.007825032070
           C          2.049315680891     0.495764913579     0.428635563700    12.000000000000
           H          0.712465680891    -0.957307086421    -0.443832436300     1.007825032070
           H          0.712449680891    -0.957684086421     1.300543563700     1.007825032070
           C          3.298431680891    -0.387431086421     0.427846563700    12.000000000000
           H          2.072391680891     1.148865913579    -0.442003436300     1.007825032070
           H          2.072782680891     1.147898913579     1.299986563700     1.007825032070
           C          4.596893680891     0.418087913579     0.426636563700    12.000000000000
           H          3.276774680891    -1.039511086421    -0.442439436300     1.007825032070
           H          3.278151680891    -1.039120086421     1.298455563700     1.007825032070
           H          4.662235680891     1.055527913579    -0.450526436300     1.007825032070
           H          5.463844680891    -0.235082086421     0.425914563700     1.007825032070
           H          4.663786680891     1.055649913579     1.303591563700     1.007825032070

  Charge       = 0
  Multiplicity = 1
  Basis Set: 6-31G*
  Basis Set:

    Orbital Energies (a.u.)
    -----------------------

    Doubly Occupied:

       1A    -20.603299     2A    -20.540287     3A    -11.376014
       4A    -11.277081     5A    -11.233285     6A    -11.222118
       7A    -11.221491     8A    -11.220121     9A    -11.211723
      10A     -1.469020    11A     -1.361552    12A     -1.092177
      13A     -1.041571    14A     -1.002950    15A     -0.930171
      16A     -0.844315    17A     -0.800097    18A     -0.772909
      19A     -0.699794    20A     -0.681073    21A     -0.660283
      22A     -0.647585    23A     -0.604341    24A     -0.587118
      25A     -0.584960    26A     -0.571810    27A     -0.550631
      28A     -0.539495    29A     -0.522288    30A     -0.508712
      31A     -0.487373    32A     -0.477730    33A     -0.472883
      34A     -0.469245    35A     -0.441563    36A     -0.433852

  @DF-RHF Final Energy:  -422.97667410772902

   => Energetics <=

    Nuclear Repulsion Energy =            453.2902639234811772
    One-Electron Energy =               -1474.2122222114230681
    Two-Electron Energy =                 597.9452841802133207
    DFT Exchange-Correlation Energy =       0.0000000000000000
    Empirical Dispersion Energy =           0.0000000000000000
    PCM Polarization Energy =               0.0000000000000000
    EFP Energy =                            0.0000000000000000
    Total Energy =                       -422.9766741077285133

  Mulliken Charges: (a.u.)
   Center  Symbol    Alpha    Beta     Spin     Total
       1     O     4.28473  4.28473  0.00000 -0.56945
       2     C     2.61518  2.61518  0.00000  0.76965
       3     C     3.28886  3.28886  0.00000 -0.57771
       4     O     4.31060  4.31060  0.00000 -0.62119
       5     H     0.39741  0.39741  0.00000  0.20517
       6     H     0.39950  0.39950  0.00000  0.20101
       7     H     0.39703  0.39703  0.00000  0.20595
       8     C     3.01283  3.01283  0.00000 -0.02565
       9     C     3.16113  3.16113  0.00000 -0.32225
      10     H     0.39011  0.39011  0.00000  0.21979
      11     H     0.41432  0.41432  0.00000  0.17136
      12     C     3.16124  3.16124  0.00000 -0.32247
      13     H     0.41566  0.41566  0.00000  0.16868
      14     H     0.41518  0.41518  0.00000  0.16965
      15     C     3.15131  3.15131  0.00000 -0.30262
      16     H     0.41941  0.41941  0.00000  0.16117
      17     H     0.42243  0.42243  0.00000  0.15514
      18     C     3.23982  3.23982  0.00000 -0.47964
      19     H     0.42112  0.42112  0.00000  0.15775
      20     H     0.42186  0.42186  0.00000  0.15629
      21     H     0.42063  0.42063  0.00000  0.15875
      22     H     0.41826  0.41826  0.00000  0.16349
      23     H     0.42142  0.42142  0.00000  0.15715

   Total alpha = 36.00000, Total beta = 36.00000, Total charge =  0.00000
