  ==> Input File <==

--------------------------------------------------------------------------
set {
	reference rhf
	basis 6-31G*
}

set_num_threads( 4 )
memory 2 gb

molecule MOL {
0 1

H	 2.160235	 -0.367401	 -0.693560
O	 1.586534	 -0.678666	 -0.000226
C	 0.489431	 0.077273	 0.000046
C	 -0.764129	 -0.759190	 0.000191
O	 0.537743	 1.263962	 0.000257
C	 -2.038368	 0.075731	 -0.000248
H	 -0.717284	 -1.412404	 -0.866059
H	 -0.717458	 -1.411724	 0.866967
H	 -2.086483	 0.712501	 -0.875098
H	 -2.908485	 -0.571682	 -0.000042
H	 -2.086576	 0.713280	 0.874068

	symmetry c1
}
set optking {
	frozen_dihedral = ("
		1 2 3 5
	")
}

ee = optimize('scf')
oeprop('DIPOLE', 'QUADRUPOLE', 'MULLIKEN_CHARGES')
f=open( 'psi4out.xyz', 'w' )
f.write( "11  " )
f.write( str(ee) + "\n" )
f.write( MOL.save_string_xyz() )
f.close()
--------------------------------------------------------------------------

    Molecular point group: c1
  Charge       = 0
  Multiplicity = 1
  Basis Set: 6-31G*
  Basis Set:
  @DF-RHF Final Energy:  -266.83336281051032
    Total Energy =                       -266.8333628105106072
    Molecular point group: c1
  Basis Set: 6-31G*
  Basis Set:
  Basis Set: 6-31G*
  Basis Set:
  @DF-RHF Final Energy:  -266.83149508173568
    Total Energy =                       -266.8314950817357953
  Basis Set: 6-31G*
  Basis Set:
  Basis Set: 6-31G*
  Basis Set:
  @DF-RHF Final Energy:  -266.83441098651031
    Total Energy =                       -266.8344109865103633
  Basis Set: 6-31G*
  Basis Set:
  Basis Set: 6-31G*
  Basis Set:
  @DF-RHF Final Energy:  -266.83450600701735
    Total Energy =                       -266.8345060070174668
  Basis Set: 6-31G*
  Basis Set:
  Basis Set: 6-31G*
  Basis Set:
  @DF-RHF Final Energy:  -266.83451167500931
    Total Energy =                       -266.8345116750091393
  Basis Set: 6-31G*
  Basis Set:
  Basis Set: 6-31G*
  Basis Set:
  @DF-RHF Final Energy:  -266.83451289244749
    Total Energy =                       -266.8345128924476057
  Basis Set: 6-31G*
  Basis Set:
  Charge       = 0
  Multiplicity = 1
  Basis Set: 6-31G*
  Basis Set:

    Orbital Energies (a.u.)
    -----------------------

    Doubly Occupied:

       1A    -20.603525     2A    -20.558296     3A    -11.382230
       4A    -11.243676     5A    -11.220135     6A     -1.466465
       7A     -1.368006     8A     -1.063826     9A     -0.913702
      10A     -0.802483    11A     -0.705931    12A     -0.683389
      13A     -0.658233    14A     -0.608794    15A     -0.573713
      16A     -0.526834    17A     -0.525303    18A     -0.504235
      19A     -0.483774    20A     -0.445649

  @DF-RHF Final Energy:  -266.83451308318251

   => Energetics <=

    Nuclear Repulsion Energy =            179.3220213006170241
    One-Electron Energy =                -719.6366703157029860
    Two-Electron Energy =                 273.4801359319035896
    DFT Exchange-Correlation Energy =       0.0000000000000000
    Empirical Dispersion Energy =           0.0000000000000000
    PCM Polarization Energy =               0.0000000000000000
    EFP Energy =                            0.0000000000000000
    Total Energy =                       -266.8345130831823440
    Molecular point group: c1
  Basis Set: 6-31G*
  Basis Set:

  -Total Gradient:
     Atom            X                  Y                   Z
    ------   -----------------  -----------------  -----------------
       1       -0.004443674421    -0.007722466999    -0.007924908025
       2        0.005279900640     0.009649134144     0.014867424906
       3        0.000109294978    -0.002187497917    -0.017554810628
       4       -0.000081216898     0.000007823459     0.000044425336
       5       -0.000911422865     0.000259882749     0.010602982728
       6        0.000011397059     0.000017903046    -0.000020049572
       7        0.000004780989    -0.000015144246     0.000020756246
       8        0.000023695337    -0.000017640656    -0.000034128777
       9       -0.000012748428     0.000012126940    -0.000007398493
      10        0.000020693120    -0.000007511473    -0.000000634313
      11       -0.000000699514     0.000003390954     0.000006340593

  **** Optimization is complete! (in 7 steps) ****
    Final optimized geometry and variables:
    Molecular point group: c1

    Geometry (in Angstrom), charge = 0, multiplicity = 1:

    H            2.255425689426    -0.398584191314    -0.558022864998
    O            1.601508405289    -0.673399577442     0.074419434503
    C            0.490363807456     0.084265752672    -0.037048859966
    C           -0.762758079824    -0.752132583328    -0.002696590737
    O            0.528119862226     1.267034843766    -0.055309710949
    C           -2.040508375357     0.075175530684     0.047667570356
    H           -0.742307097156    -1.398977253851    -0.875808843943
    H           -0.681292299537    -1.414999398690     0.853672544384
    H           -2.120009871590     0.723522127141    -0.816452174225
    H           -2.907469361665    -0.576259409941     0.067349247731
    H           -2.063757509569     0.700949430680     0.931649589132

  Mulliken Charges: (a.u.)
   Center  Symbol    Alpha    Beta     Spin     Total
       1     H     0.26612  0.26612  0.00000  0.46775
       2     O     4.36063  4.36063  0.00000 -0.72125
       3     C     2.63067  2.63067  0.00000  0.73866
       4     C     3.20750  3.20750  0.00000 -0.41501
       5     O     4.26034  4.26034  0.00000 -0.52067
       6     C     3.23975  3.23975  0.00000 -0.47950
       7     H     0.40285  0.40285  0.00000  0.19430
       8     H     0.39667  0.39667  0.00000  0.20666
       9     H     0.40981  0.40981  0.00000  0.18037
      10     H     0.41686  0.41686  0.00000  0.16628
      11     H     0.40880  0.40880  0.00000  0.18241

   Total alpha = 20.00000, Total beta = 20.00000, Total charge = -0.00000
