  ==> Input File <==

--------------------------------------------------------------------------
set {
	reference rhf
	basis 6-31G*
}

set_num_threads( 1 )
memory 2 gb

molecule MOL {
0 1

H	 -3.225282	 -0.897878	 -0.549920
O	 -2.310168	 -0.871793	 -0.309793
C	 -2.026376	 0.340750	 0.341611
C	 -0.673256	 0.843270	 -0.132153
H	 -2.792215	 1.080697	 0.115987
H	 -2.013526	 0.200402	 1.421792
C	 0.486613	 -0.083066	 0.235839
H	 -0.715586	 0.970948	 -1.210718
H	 -0.508072	 1.829858	 0.297090
C	 1.840406	 0.433480	 -0.254303
H	 0.300215	 -1.068318	 -0.178947
H	 0.519509	 -0.203625	 1.318070
C	 3.000220	 -0.489290	 0.118523
H	 1.809207	 0.553576	 -1.335192
H	 2.021860	 1.424500	 0.157276
H	 2.864959	 -1.479103	 -0.307933
H	 3.946603	 -0.099227	 -0.243630
H	 3.080049	 -0.602997	 1.196117

	symmetry c1
}
set optking {
	frozen_dihedral = ("
		14 10 7 11,
		10 7 4 8,
		2 3 4 8
	")
}

ee = energy('scf')
oeprop('DIPOLE', 'QUADRUPOLE', 'MULLIKEN_CHARGES')
f=open( 'psi4out.xyz', 'w' )
f.write( "18  " )
f.write( str(ee) + "\n" )
f.write( MOL.save_string_xyz() )
f.close()
--------------------------------------------------------------------------

    Molecular point group: c1

    Geometry (in Angstrom), charge = 0, multiplicity = 1:

       Center              X                  Y                   Z               Mass
    ------------   -----------------  -----------------  -----------------  -----------------
           H         -3.224253965619    -0.901507042712    -0.543612778981     1.007825032070
           O         -2.309139965619    -0.875422042712    -0.303485778981    15.994914619560
           C         -2.025347965619     0.337120957288     0.347918221019    12.000000000000
           C         -0.672227965619     0.839640957288    -0.125845778981    12.000000000000
           H         -2.791186965619     1.077067957288     0.122294221019     1.007825032070
           H         -2.012497965619     0.196772957288     1.428099221019     1.007825032070
           C          0.487641034381    -0.086695042712     0.242146221019    12.000000000000
           H         -0.714557965619     0.967318957288    -1.204410778981     1.007825032070
           H         -0.507043965619     1.826228957288     0.303397221019     1.007825032070
           C          1.841434034381     0.429850957288    -0.247995778981    12.000000000000
           H          0.301243034381    -1.071947042712    -0.172639778981     1.007825032070
           H          0.520537034381    -0.207254042712     1.324377221019     1.007825032070
           C          3.001248034381    -0.492919042712     0.124830221019    12.000000000000
           H          1.810235034381     0.549946957288    -1.328884778981     1.007825032070
           H          2.022888034381     1.420870957288     0.163583221019     1.007825032070
           H          2.865987034381    -1.482732042712    -0.301625778981     1.007825032070
           H          3.947631034381    -0.102856042712    -0.237322778981     1.007825032070
           H          3.081077034381    -0.606626042712     1.202424221019     1.007825032070

  Charge       = 0
  Multiplicity = 1
  Basis Set: 6-31G*
  Basis Set:

    Orbital Energies (a.u.)
    -----------------------

    Doubly Occupied:

       1A    -20.552216     2A    -11.268178     3A    -11.210531
       4A    -11.210413     5A    -11.205935     6A    -11.204084
       7A     -1.359719     8A     -1.074207     9A     -1.008134
      10A     -0.912702    11A     -0.818132    12A     -0.784729
      13A     -0.702346    14A     -0.647752    15A     -0.617561
      16A     -0.580503    17A     -0.574439    18A     -0.551730
      19A     -0.517667    20A     -0.512059    21A     -0.488423
      22A     -0.466461    23A     -0.457892    24A     -0.442777
      25A     -0.428534

  @DF-RHF Final Energy:  -271.17815103991768

   => Energetics <=

    Nuclear Repulsion Energy =            249.0541224663181481
    One-Electron Energy =                -861.2701190995910565
    Two-Electron Energy =                 341.0378455933544046
    DFT Exchange-Correlation Energy =       0.0000000000000000
    Empirical Dispersion Energy =           0.0000000000000000
    PCM Polarization Energy =               0.0000000000000000
    EFP Energy =                            0.0000000000000000
    Total Energy =                       -271.1781510399184754

  Mulliken Charges: (a.u.)
   Center  Symbol    Alpha    Beta     Spin     Total
       1     H     0.27954  0.27954  0.00000  0.44091
       2     O     4.37056  4.37056  0.00000 -0.74111
       3     C     2.99961  2.99961  0.00000  0.00077
       4     C     3.15626  3.15626  0.00000 -0.31251
       5     H     0.43017  0.43017  0.00000  0.13967
       6     H     0.42784  0.42784  0.00000  0.14431
       7     C     3.15379  3.15379  0.00000 -0.30759
       8     H     0.41902  0.41902  0.00000  0.16196
       9     H     0.42634  0.42634  0.00000  0.14731
      10     C     3.15154  3.15154  0.00000 -0.30307
      11     H     0.40786  0.40786  0.00000  0.18428
      12     H     0.42649  0.42649  0.00000  0.14703
      13     C     3.23894  3.23894  0.00000 -0.47788
      14     H     0.42300  0.42300  0.00000  0.15401
      15     H     0.42528  0.42528  0.00000  0.14945
      16     H     0.42080  0.42080  0.00000  0.15839
      17     H     0.42056  0.42056  0.00000  0.15888
      18     H     0.42241  0.42241  0.00000  0.15518

   Total alpha = 25.00000, Total beta = 25.00000, Total charge = -0.00000
