  ==> Input File <==

--------------------------------------------------------------------------
set {
	reference rhf
	basis 6-31G*
}

set_num_threads( 4 )
memory 2 gb

molecule MOL {
0 1

H	 -0.000158	 1.970498	 0.756846
O	 -0.000074	 1.880206	 -0.189275
C	 -0.000015	 0.544847	 -0.545111
C	 0.172477	 -0.323208	 0.696950
C	 1.047421	 0.295640	 -1.625283
H	 -0.966184	 0.316554	 -0.969966
F	 -0.818486	 -0.100055	 1.533456
F	 0.182330	 -1.607789	 0.410397
F	 1.301982	 -0.031074	 1.321828
F	 0.771268	 1.024476	 -2.685507
F	 1.089407	 -0.966024	 -1.997870
F	 2.252428	 0.640873	 -1.200606

	symmetry c1
}
set optking {
	frozen_dihedral = ("
		6 3 2 1
	")
}

ee = optimize('scf')
oeprop('DIPOLE', 'QUADRUPOLE', 'MULLIKEN_CHARGES')
f=open( 'psi4out.xyz', 'w' )
f.write( "12  " )
f.write( str(ee) + "\n" )
f.write( MOL.save_string_xyz() )
f.close()
--------------------------------------------------------------------------

    Molecular point group: c1
  Charge       = 0
  Multiplicity = 1
  Basis Set: 6-31G*
  Basis Set:
  @DF-RHF Final Energy:  -786.27188516188767
    Total Energy =                       -786.2718851618881217
    Molecular point group: c1
  Basis Set: 6-31G*
  Basis Set:
  Basis Set: 6-31G*
  Basis Set:
  @DF-RHF Final Energy:  -786.27320817084978
    Total Energy =                       -786.2732081708493297
  Basis Set: 6-31G*
  Basis Set:
  Basis Set: 6-31G*
  Basis Set:
  @DF-RHF Final Energy:  -786.27349977687572
    Total Energy =                       -786.2734997768766334
  Basis Set: 6-31G*
  Basis Set:
  Basis Set: 6-31G*
  Basis Set:
  @DF-RHF Final Energy:  -786.27356726057076
    Total Energy =                       -786.2735672605705304
  Basis Set: 6-31G*
  Basis Set:
  Basis Set: 6-31G*
  Basis Set:
  @DF-RHF Final Energy:  -786.27358484268643
    Total Energy =                       -786.2735848426859775
  Basis Set: 6-31G*
  Basis Set:
  Basis Set: 6-31G*
  Basis Set:
  @DF-RHF Final Energy:  -786.27358751987367
    Total Energy =                       -786.2735875198731037
  Basis Set: 6-31G*
  Basis Set:
  Charge       = 0
  Multiplicity = 1
  Basis Set: 6-31G*
  Basis Set:

    Orbital Energies (a.u.)
    -----------------------

    Doubly Occupied:

       1A    -26.370388     2A    -26.368476     3A    -26.366940
       4A    -26.355142     5A    -26.351598     6A    -26.351313
       7A    -20.613855     8A    -11.533834     9A    -11.519638
      10A    -11.349356    11A     -1.770158    12A     -1.753577
      13A     -1.667356    14A     -1.664610    15A     -1.650653
      16A     -1.649084    17A     -1.431788    18A     -1.103962
      19A     -0.998207    20A     -0.936786    21A     -0.869570
      22A     -0.862405    23A     -0.856681    24A     -0.840937
      25A     -0.830515    26A     -0.796654    27A     -0.748382
      28A     -0.734528    29A     -0.718396    30A     -0.716821
      31A     -0.704724    32A     -0.689613    33A     -0.685520
      34A     -0.669603    35A     -0.667877    36A     -0.664363
      37A     -0.652705    38A     -0.649526    39A     -0.615232
      40A     -0.547116    41A     -0.502706

  @DF-RHF Final Energy:  -786.27358811516933

   => Energetics <=

    Nuclear Repulsion Energy =            670.7169106323358392
    One-Electron Energy =               -2428.3198089092038572
    Two-Electron Energy =                 971.3293101616990270
    DFT Exchange-Correlation Energy =       0.0000000000000000
    Empirical Dispersion Energy =           0.0000000000000000
    PCM Polarization Energy =               0.0000000000000000
    EFP Energy =                            0.0000000000000000
    Total Energy =                       -786.2735881151689910
    Molecular point group: c1
  Basis Set: 6-31G*
  Basis Set:

  -Total Gradient:
     Atom            X                  Y                   Z
    ------   -----------------  -----------------  -----------------
       1        0.000984251528     0.000005430256     0.000030168721
       2       -0.001151845493     0.000061480766    -0.000237466751
       3       -0.000188912637    -0.000231002391     0.000953574619
       4        0.000000259275    -0.000020555287     0.000010940691
       5       -0.000006292339    -0.000021942925    -0.000023921998
       6        0.000328037231     0.000179726494    -0.000764903530
       7        0.000022206479    -0.000011555039    -0.000000293033
       8       -0.000000738333     0.000033037340    -0.000007840276
       9        0.000004099478    -0.000001974606     0.000020128921
      10       -0.000001565958     0.000038590434    -0.000022613568
      11        0.000001813707    -0.000031307265     0.000023815868
      12        0.000008687063     0.000000072212     0.000018410341

  **** Optimization is complete! (in 7 steps) ****
    Final optimized geometry and variables:
    Molecular point group: c1

    Geometry (in Angstrom), charge = 0, multiplicity = 1:

    H           -0.683753304786     1.904965161923     1.128365823961
    O           -0.658899985972     1.759292344053     0.192476238298
    C           -0.639787759011     0.411764589855    -0.128566346434
    C           -0.441028610767    -0.457876033534     1.106292949859
    C            0.439709228324     0.211167448880    -1.185857945770
    H           -1.578343430376     0.110607706810    -0.578657783838
    F           -1.353323897373    -0.124115645934     2.009139225710
    F           -0.586257840970    -1.733521229324     0.832099707970
    F            0.739250353071    -0.280072089065     1.663283170452
    F            0.151464205702     0.932722849464    -2.248491047987
    F            0.498456858020    -1.055234916377    -1.558088134573
    F            1.630086975883     0.567881558894    -0.757688701232

  Mulliken Charges: (a.u.)
   Center  Symbol    Alpha    Beta     Spin     Total
       1     H     0.26271  0.26271  0.00000  0.47458
       2     O     4.37224  4.37224  0.00000 -0.74448
       3     C     3.02272  3.02272  0.00000 -0.04543
       4     C     2.46455  2.46455  0.00000  1.07090
       5     C     2.43814  2.43814  0.00000  1.12372
       6     H     0.38457  0.38457  0.00000  0.23087
       7     F     4.68351  4.68351  0.00000 -0.36702
       8     F     4.67054  4.67054  0.00000 -0.34108
       9     F     4.67233  4.67233  0.00000 -0.34466
      10     F     4.67641  4.67641  0.00000 -0.35283
      11     F     4.67917  4.67917  0.00000 -0.35834
      12     F     4.67312  4.67312  0.00000 -0.34623

   Total alpha = 41.00000, Total beta = 41.00000, Total charge = -0.00000
