                              Psi4 1.0.54 Driver

  ==> Input File <==

--------------------------------------------------------------------------
set {
	reference rhf
	basis cc-pvtz
}

set_num_threads( 4 )
memory 2 gb

molecule MOL {
0 1

H	 2.614283	 2.028610	 0.296620
O	 3.358864	 1.662087	 -0.142800
C	 3.565468	 0.338079	 0.273842
C	 2.533667	 -0.637565	 -0.272227
H	 4.548038	 0.064914	 -0.086598
H	 3.593945	 0.282242	 1.360360
C	 1.114816	 -0.402372	 0.240993
H	 2.544552	 -0.580764	 -1.356576
H	 2.850574	 -1.642962	 -0.005497
C	 0.739437	 1.078209	 0.283482
H	 1.017416	 -0.828445	 1.233958
H	 0.408746	 -0.931092	 -0.397135
C	 -0.697697	 1.368323	 0.720214
H	 1.427419	 1.602057	 0.942642
H	 0.889227	 1.500622	 -0.706265
C	 -1.013201	 1.024950	 2.174963
H	 -0.894438	 2.425473	 0.564476
H	 -1.385279	 0.834938	 0.067615
C	 -2.427147	 1.423875	 2.589722
H	 -0.296412	 1.523550	 2.823870
H	 -0.886521	 -0.040212	 2.343438
C	 -2.746744	 1.079064	 4.040534
H	 -2.558146	 2.491547	 2.436453
H	 -3.144222	 0.933191	 1.936962
H	 -2.066451	 1.580521	 4.720960
H	 -3.755409	 1.377532	 4.302486
H	 -2.661628	 0.011925	 4.217517

	symmetry c1
}
set optking {
	frozen_dihedral = ("
		10 7 4 8
	")
}

ee,wfn = optimize('scf', return_wfn=True)
oeprop( wfn, 'DIPOLE', 'QUADRUPOLE', 'MULLIKEN_CHARGES')
f=open( 'psi4out.xyz', 'w' )
f.write( "27  " )
f.write( str(ee) + "\n" )
f.write( MOL.save_string_xyz() )
f.close()
--------------------------------------------------------------------------

    Molecular point group: c1
  Charge       = 0
  Multiplicity = 1
  Basis Set: CC-PVTZ
  Basis Set:
  @DF-RHF Final Energy:  -388.40897785323267
    Total Energy =                       -388.4089778532329547
    Molecular point group: c1
  Basis Set: CC-PVTZ
  Basis Set:
  Basis Set: CC-PVTZ
  Basis Set:
  @DF-RHF Final Energy:  -388.41891398748118
    Total Energy =                       -388.4189139874808916
  Basis Set: CC-PVTZ
  Basis Set:
  Basis Set: CC-PVTZ
  Basis Set:
  @DF-RHF Final Energy:  -388.42176378372540
    Total Energy =                       -388.4217637837250550
  Basis Set: CC-PVTZ
  Basis Set:
  Basis Set: CC-PVTZ
  Basis Set:
  @DF-RHF Final Energy:  -388.42223815569116
    Total Energy =                       -388.4222381556910477
  Basis Set: CC-PVTZ
  Basis Set:
  @DF-RHF Final Energy:  -388.42245239028944
    Total Energy =                       -388.4224523902896635
  Basis Set: CC-PVTZ
  Basis Set:
  @DF-RHF Final Energy:  -388.42264068977772
    Total Energy =                       -388.4226406897780635
  Basis Set: CC-PVTZ
  Basis Set:
  Basis Set: CC-PVTZ
  Basis Set:
  @DF-RHF Final Energy:  -388.42265681526487
    Total Energy =                       -388.4226568152649861
  Basis Set: CC-PVTZ
  Basis Set:
  Basis Set: CC-PVTZ
  Basis Set:
  @DF-RHF Final Energy:  -388.42265792888691
    Total Energy =                       -388.4226579288866787
  Basis Set: CC-PVTZ
  Basis Set:
  Charge       = 0
  Multiplicity = 1
  Basis Set: CC-PVTZ
  Basis Set:

    Orbital Energies (a.u.)
    -----------------------

    Doubly Occupied:

       1A    -20.542238     2A    -11.264654     3A    -11.221111
       4A    -11.217809     5A    -11.216726     6A    -11.215508
       7A    -11.214087     8A    -11.213977     9A    -11.208520
      10A     -1.361044    11A     -1.098137    12A     -1.062083
      13A     -1.014108    14A     -0.950017    15A     -0.892691
      16A     -0.828005    17A     -0.802323    18A     -0.777086
      19A     -0.696147    20A     -0.651030    21A     -0.631739
      22A     -0.623720    23A     -0.601168    24A     -0.584308
      25A     -0.570367    26A     -0.565131    27A     -0.550405
      28A     -0.530081    29A     -0.517507    30A     -0.499366
      31A     -0.482507    32A     -0.475975    33A     -0.469511
      34A     -0.463910    35A     -0.449149    36A     -0.439644
      37A     -0.426295

  @DF-RHF Final Energy:  -388.42265819980622

   => Energetics <=

    Nuclear Repulsion Energy =            466.6017238906753732
    One-Electron Energy =               -1451.3926027218960826
    Two-Electron Energy =                 596.3682206314147152
    DFT Exchange-Correlation Energy =       0.0000000000000000
    Empirical Dispersion Energy =           0.0000000000000000
    PCM Polarization Energy =               0.0000000000000000
    EFP Energy =                            0.0000000000000000
    Total Energy =                       -388.4226581998059373
    Molecular point group: c1
  Basis Set: CC-PVTZ
  Basis Set:

  -Total Gradient:
     Atom            X                  Y                   Z
    ------   -----------------  -----------------  -----------------
       1       -0.000070239612    -0.000008993013     0.000018504604
       2        0.000093460233     0.000012778773    -0.000011165587
       3       -0.000036943438     0.000076575094    -0.000021570454
       4        0.001108755704     0.005452724032     0.000959833117
       5       -0.000000435244    -0.000011549520     0.000001722347
       6        0.000008943025    -0.000017724478    -0.000000426846
       7       -0.001782305956    -0.001951856719    -0.004095253416
       8       -0.000467980680    -0.004213321334     0.000282581456
       9       -0.000023540430     0.000017902027    -0.000013206589
      10        0.001185300463     0.000627360753     0.002863914554
      11        0.000002365548     0.000003908424     0.000005202038
      12        0.000003022997    -0.000005244188     0.000004641135
      13       -0.000058111015     0.000013854897    -0.000003758428
      14       -0.000008030672     0.000012053265    -0.000030443499
      15        0.000026830382    -0.000006730967     0.000016534450
      16        0.000011845245     0.000006968032     0.000028061982
      17       -0.000002861533    -0.000004284488     0.000011998189
      18        0.000009142809     0.000018449582    -0.000005168413
      19       -0.000015923184    -0.000006616428    -0.000020160058
      20       -0.000003101553    -0.000009224674    -0.000001682299
      21        0.000010043354    -0.000000799005     0.000000692270
      22        0.000016001332    -0.000005648868     0.000013780898
      23        0.000002560846    -0.000010697517    -0.000004146770
      24       -0.000003175779     0.000007471765     0.000001199573
      25       -0.000007263525    -0.000008316117    -0.000000915796
      26        0.000006948932     0.000001185932    -0.000003937419
      27       -0.000005308246     0.000009774742     0.000003168964

  **** Optimization is complete! (in 9 steps) ****
    Final optimized geometry and variables:
    Molecular point group: c1

    Geometry (in Angstrom), charge = 0, multiplicity = 1:

    H            2.404395214612     1.459000775569    -1.315768317014
    O            3.178791586823     0.962131452122    -1.498444758843
    C            3.181458898614    -0.232672934281    -0.763454671941
    C            2.128801552323    -1.245412051316    -1.198984689902
    H            4.162276951748    -0.660257487367    -0.919867188594
    H            3.090038642677    -0.028195174874     0.301812289291
    C            0.697483747690    -1.051691858393    -0.675821435263
    H            2.129980727745    -1.315448733626    -2.282269447068
    H            2.463030128021    -2.219774235466    -0.851061829094
    C            0.129193438571     0.366978948983    -0.752973778613
    H            0.669655462289    -1.378308867736     0.358914001747
    H            0.043145699123    -1.725231194935    -1.221212244483
    C           -1.353275208616     0.473978665853    -0.386187058570
    H            0.692955662674     1.024499388222    -0.094798205085
    H            0.254426800214     0.747184521993    -1.763390041716
    C           -1.685549906090     0.148439613418     1.068866165333
    H           -1.685147235494     1.486455981228    -0.598587931512
    H           -1.928840294700    -0.175699759100    -1.040921269727
    C           -3.157122870849     0.371443498116     1.408031736682
    H           -1.071346608286     0.763687139882     1.723181751347
    H           -1.427508276922    -0.882589662062     1.289236384381
    C           -3.494653602774     0.042737565943     2.858446966379
    H           -3.420249556075     1.405416608920     1.202719058605
    H           -3.772488489425    -0.235147379456     0.749127564883
    H           -2.918625303600     0.656385273688     3.543156329669
    H           -4.544759287680     0.213566618585     3.065792765313
    H           -3.277801646485    -0.995814941598     3.085416995649

  Mulliken Charges: (a.u.)
   Center  Symbol    Alpha    Beta     Spin     Total
       1     H     0.38893  0.38893  0.00000  0.22215
       2     O     4.20698  4.20698  0.00000 -0.41397
       3     C     2.98402  2.98402  0.00000  0.03196
       4     C     3.10111  3.10111  0.00000 -0.20222
       5     H     0.44478  0.44478  0.00000  0.11045
       6     H     0.46863  0.46863  0.00000  0.06273
       7     C     3.10001  3.10001  0.00000 -0.20002
       8     H     0.44835  0.44835  0.00000  0.10331
       9     H     0.45111  0.45111  0.00000  0.09777
      10     C     3.10928  3.10928  0.00000 -0.21855
      11     H     0.45076  0.45076  0.00000  0.09847
      12     H     0.44693  0.44693  0.00000  0.10614
      13     C     3.10099  3.10099  0.00000 -0.20199
      14     H     0.45894  0.45894  0.00000  0.08211
      15     H     0.44285  0.44285  0.00000  0.11429
      16     C     3.08864  3.08864  0.00000 -0.17727
      17     H     0.44739  0.44739  0.00000  0.10521
      18     H     0.45189  0.45189  0.00000  0.09621
      19     C     3.08483  3.08483  0.00000 -0.16966
      20     H     0.45532  0.45532  0.00000  0.08937
      21     H     0.45235  0.45235  0.00000  0.09530
      22     C     3.14960  3.14960  0.00000 -0.29921
      23     H     0.45369  0.45369  0.00000  0.09261
      24     H     0.45414  0.45414  0.00000  0.09172
      25     H     0.45512  0.45512  0.00000  0.08976
      26     H     0.44805  0.44805  0.00000  0.10389
      27     H     0.45529  0.45529  0.00000  0.08943

   Total alpha = 37.00000, Total beta = 37.00000, Total charge =  0.00000

*** Psi4 exiting successfully. Buy a developer a beer!
