  ==> Input File <==

--------------------------------------------------------------------------
set {
	reference rhf
	basis 6-31G*
}

set_num_threads( 1 )
memory 2 gb

molecule MOL {
0 1

H	 5.202340	 1.444279	 -0.422439
C	 4.483997	 1.161359	 -1.185632
C	 3.147416	 0.758541	 -0.563967
H	 4.362537	 2.007498	 -1.855436
H	 4.914349	 0.344368	 -1.758451
C	 2.112560	 0.346686	 -1.613377
H	 2.760024	 1.586714	 0.020549
H	 3.306924	 -0.067430	 0.127423
C	 0.769691	 -0.079311	 -1.019662
H	 1.948322	 1.166626	 -2.303571
H	 2.507546	 -0.482997	 -2.195316
C	 -0.046127	 1.062562	 -0.431607
H	 0.153341	 -0.533887	 -1.793770
H	 0.905858	 -0.848754	 -0.262963
C	 -1.181045	 0.701995	 0.511084
O	 0.179897	 2.201590	 -0.710772
C	 -2.285934	 -0.139295	 -0.145128
H	 -1.590875	 1.632918	 0.884093
H	 -0.767658	 0.156495	 1.357385
C	 -3.651768	 0.085446	 0.506485
H	 -2.346596	 0.110469	 -1.202272
H	 -2.034737	 -1.195320	 -0.088721
C	 -4.759797	 -0.746382	 -0.137905
H	 -3.908762	 1.140117	 0.445781
H	 -3.588286	 -0.154158	 1.565709
H	 -4.868882	 -0.505166	 -1.191300
H	 -4.548009	 -1.809175	 -0.062213
H	 -5.715422	 -0.564821	 0.343442

	symmetry c1
}
set optking {
	frozen_dihedral = ("
		10 6 3 2,
		16 12 15 17
	")
}

ee = energy('scf')
oeprop('DIPOLE', 'QUADRUPOLE', 'MULLIKEN_CHARGES')
f=open( 'psi4out.xyz', 'w' )
f.write( "28  " )
f.write( str(ee) + "\n" )
f.write( MOL.save_string_xyz() )
f.close()
--------------------------------------------------------------------------

    Molecular point group: c1

    Geometry (in Angstrom), charge = 0, multiplicity = 1:

       Center              X                  Y                   Z               Mass
    ------------   -----------------  -----------------  -----------------  -----------------
           H          5.324677385788     0.906145234522     0.061485532123     1.007825032070
           C          4.606334385788     0.623225234522    -0.701707467877    12.000000000000
           C          3.269753385788     0.220407234522    -0.080042467877    12.000000000000
           H          4.484874385788     1.469364234522    -1.371511467877     1.007825032070
           H          5.036686385788    -0.193765765478    -1.274526467877     1.007825032070
           C          2.234897385788    -0.191447765478    -1.129452467877    12.000000000000
           H          2.882361385788     1.048580234522     0.504473532123     1.007825032070
           H          3.429261385788    -0.605563765478     0.611347532123     1.007825032070
           C          0.892028385788    -0.617444765478    -0.535737467877    12.000000000000
           H          2.070659385788     0.628492234522    -1.819646467877     1.007825032070
           H          2.629883385788    -1.021130765478    -1.711391467877     1.007825032070
           C          0.076210385788     0.524428234522     0.052317532123    12.000000000000
           H          0.275678385788    -1.072020765478    -1.309845467877     1.007825032070
           H          1.028195385788    -1.386887765478     0.220961532123     1.007825032070
           C         -1.058707614212     0.163861234522     0.995008532123    12.000000000000
           O          0.302234385788     1.663456234522    -0.226847467877    15.994914619560
           C         -2.163596614212    -0.677428765478     0.338796532123    12.000000000000
           H         -1.468537614212     1.094784234522     1.368017532123     1.007825032070
           H         -0.645320614212    -0.381638765478     1.841309532123     1.007825032070
           C         -3.529430614212    -0.452687765478     0.990409532123    12.000000000000
           H         -2.224258614212    -0.427664765478    -0.718347467877     1.007825032070
           H         -1.912399614212    -1.733453765478     0.395203532123     1.007825032070
           C         -4.637459614212    -1.284515765478     0.346019532123    12.000000000000
           H         -3.786424614212     0.601983234522     0.929705532123     1.007825032070
           H         -3.465948614212    -0.692291765478     2.049633532123     1.007825032070
           H         -4.746544614212    -1.043299765478    -0.707375467877     1.007825032070
           H         -4.425671614212    -2.347308765478     0.421711532123     1.007825032070
           H         -5.593084614212    -1.102954765478     0.827366532123     1.007825032070

  Charge       = 0
  Multiplicity = 1
  Basis Set: 6-31G*
  Basis Set:

    Orbital Energies (a.u.)
    -----------------------

    Doubly Occupied:

       1A    -20.547920     2A    -11.322061     3A    -11.232175
       4A    -11.229856     5A    -11.228013     6A    -11.225631
       7A    -11.216463     8A    -11.215705     9A    -11.212349
      10A    -11.205744    11A     -1.393095    12A     -1.094917
      13A     -1.077358    14A     -1.022357    15A     -0.990522
      16A     -0.907126    17A     -0.872843    18A     -0.809197
      19A     -0.799716    20A     -0.723436    21A     -0.670866
      22A     -0.648589    23A     -0.628453    24A     -0.619445
      25A     -0.609311    26A     -0.586690    27A     -0.580252
      28A     -0.574593    29A     -0.540747    30A     -0.530349
      31A     -0.522123    32A     -0.507231    33A     -0.502053
      34A     -0.481939    35A     -0.480078    36A     -0.472408
      37A     -0.471228    38A     -0.464919    39A     -0.455565
      40A     -0.392251

  @DF-RHF Final Energy:  -426.16708758131256

   => Energetics <=

    Nuclear Repulsion Energy =            531.3523045407101790
    One-Electron Energy =               -1630.9072551773570012
    Two-Electron Energy =                 673.3878630553344919
    DFT Exchange-Correlation Energy =       0.0000000000000000
    Empirical Dispersion Energy =           0.0000000000000000
    PCM Polarization Energy =               0.0000000000000000
    EFP Energy =                            0.0000000000000000
    Total Energy =                       -426.1670875813124439

  Mulliken Charges: (a.u.)
   Center  Symbol    Alpha    Beta     Spin     Total
       1     H     0.41934  0.41934  0.00000  0.16131
       2     C     3.24012  3.24012  0.00000 -0.48024
       3     C     3.15636  3.15636  0.00000 -0.31271
       4     H     0.41830  0.41830  0.00000  0.16339
       5     H     0.42361  0.42361  0.00000  0.15278
       6     C     3.14930  3.14930  0.00000 -0.29860
       7     H     0.41047  0.41047  0.00000  0.17906
       8     H     0.42769  0.42769  0.00000  0.14461
       9     C     3.21113  3.21113  0.00000 -0.42226
      10     H     0.40665  0.40665  0.00000  0.18670
      11     H     0.42192  0.42192  0.00000  0.15616
      12     C     2.73424  2.73424  0.00000  0.53152
      13     H     0.40275  0.40275  0.00000  0.19450
      14     H     0.41321  0.41321  0.00000  0.17359
      15     C     3.20125  3.20125  0.00000 -0.40251
      16     O     4.26680  4.26680  0.00000 -0.53360
      17     C     3.16246  3.16246  0.00000 -0.32493
      18     H     0.39932  0.39932  0.00000  0.20137
      19     H     0.41157  0.41157  0.00000  0.17687
      20     C     3.15316  3.15316  0.00000 -0.30631
      21     H     0.41600  0.41600  0.00000  0.16801
      22     H     0.41796  0.41796  0.00000  0.16408
      23     C     3.24069  3.24069  0.00000 -0.48137
      24     H     0.41707  0.41707  0.00000  0.16585
      25     H     0.42074  0.42074  0.00000  0.15853
      26     H     0.41979  0.41979  0.00000  0.16042
      27     H     0.42130  0.42130  0.00000  0.15740
      28     H     0.41680  0.41680  0.00000  0.16639

   Total alpha = 40.00000, Total beta = 40.00000, Total charge =  0.00000
