  ==> Input File <==

--------------------------------------------------------------------------
set {
	reference rhf
	basis 6-31G*
}

set_num_threads( 1 )
memory 2 gb

molecule MOL {
0 1

H	 -3.928080	 -1.295144	 1.208933
O	 -3.332361	 -1.123111	 0.493792
C	 -2.106521	 -0.661770	 1.000815
C	 -1.177863	 -0.397191	 -0.171080
H	 -2.249554	 0.251469	 1.576873
H	 -1.664648	 -1.401590	 1.666965
C	 0.198102	 0.111031	 0.262842
H	 -1.653905	 0.325615	 -0.828092
H	 -1.075606	 -1.316761	 -0.740650
C	 1.331804	 -0.827780	 -0.158768
H	 0.361943	 1.100838	 -0.156218
H	 0.217265	 0.229072	 1.345532
C	 2.723619	 -0.410569	 0.329459
H	 1.342964	 -0.912588	 -1.244120
H	 1.116806	 -1.824343	 0.220779
C	 3.243875	 0.895854	 -0.272975
H	 3.424222	 -1.207124	 0.091250
H	 2.714788	 -0.329854	 1.414619
H	 3.251977	 0.848779	 -1.358681
H	 2.637085	 1.747371	 0.016682
H	 4.259473	 1.094070	 0.055697

	symmetry c1
}
set optking {
	frozen_dihedral = ("
		2 3 4 8,
		4 7 10 14,
		16 13 10 14,
		1 2 3 5
	")
}

ee = energy('scf')
oeprop('DIPOLE', 'QUADRUPOLE', 'MULLIKEN_CHARGES')
f=open( 'psi4out.xyz', 'w' )
f.write( "21  " )
f.write( str(ee) + "\n" )
f.write( MOL.save_string_xyz() )
f.close()
--------------------------------------------------------------------------

    Molecular point group: c1

    Geometry (in Angstrom), charge = 0, multiplicity = 1:

       Center              X                  Y                   Z               Mass
    ------------   -----------------  -----------------  -----------------  -----------------
           H         -3.987613129745    -0.940992931758     0.982921039146     1.007825032070
           O         -3.391894129745    -0.768959931758     0.267780039146    15.994914619560
           C         -2.166054129745    -0.307618931758     0.774803039146    12.000000000000
           C         -1.237396129745    -0.043039931758    -0.397091960854    12.000000000000
           H         -2.309087129745     0.605620068242     1.350861039146     1.007825032070
           H         -1.724181129745    -1.047438931758     1.440953039146     1.007825032070
           C          0.138568870255     0.465182068242     0.036830039146    12.000000000000
           H         -1.713438129745     0.679766068242    -1.054103960854     1.007825032070
           H         -1.135139129745    -0.962609931758    -0.966661960854     1.007825032070
           C          1.272270870255    -0.473628931758    -0.384779960854    12.000000000000
           H          0.302409870255     1.454989068242    -0.382229960854     1.007825032070
           H          0.157731870255     0.583223068242     1.119520039146     1.007825032070
           C          2.664085870255    -0.056417931758     0.103447039146    12.000000000000
           H          1.283430870255    -0.558436931758    -1.470131960854     1.007825032070
           H          1.057272870255    -1.470191931758    -0.005232960854     1.007825032070
           C          3.184341870255     1.250005068242    -0.498986960854    12.000000000000
           H          3.364688870255    -0.852972931758    -0.134761960854     1.007825032070
           H          2.655254870255     0.024297068242     1.188607039146     1.007825032070
           H          3.192443870255     1.202930068242    -1.584692960854     1.007825032070
           H          2.577551870255     2.101522068242    -0.209329960854     1.007825032070
           H          4.199939870255     1.448221068242    -0.170314960854     1.007825032070

  Charge       = 0
  Multiplicity = 1
  Basis Set: 6-31G*
  Basis Set:

    Orbital Energies (a.u.)
    -----------------------

    Doubly Occupied:

       1A    -20.551731     2A    -11.267696     3A    -11.214931
       4A    -11.214514     5A    -11.213828     6A    -11.209030
       7A    -11.208006     8A     -1.358651     9A     -1.086628
      10A     -1.032861    11A     -0.953217    12A     -0.877370
      13A     -0.807692    14A     -0.779223    15A     -0.693471
      16A     -0.654085    17A     -0.625127    18A     -0.609118
      19A     -0.591195    20A     -0.554535    21A     -0.551421
      22A     -0.516724    23A     -0.505954    24A     -0.495655
      25A     -0.474865    26A     -0.459792    27A     -0.452896
      28A     -0.445519    29A     -0.431216

  @DF-RHF Final Energy:  -310.20766030557729

   => Energetics <=

    Nuclear Repulsion Energy =            313.6003250568979865
    One-Electron Energy =               -1041.9423188175824180
    Two-Electron Energy =                 418.1343334551086173
    DFT Exchange-Correlation Energy =       0.0000000000000000
    Empirical Dispersion Energy =           0.0000000000000000
    PCM Polarization Energy =               0.0000000000000000
    EFP Energy =                            0.0000000000000000
    Total Energy =                       -310.2076603055758142

  Mulliken Charges: (a.u.)
   Center  Symbol    Alpha    Beta     Spin     Total
       1     H     0.28131  0.28131  0.00000  0.43737
       2     O     4.37162  4.37162  0.00000 -0.74323
       3     C     2.99379  2.99379  0.00000  0.01241
       4     C     3.16050  3.16050  0.00000 -0.32100
       5     H     0.43215  0.43215  0.00000  0.13569
       6     H     0.43282  0.43282  0.00000  0.13436
       7     C     3.16463  3.16463  0.00000 -0.32926
       8     H     0.41263  0.41263  0.00000  0.17474
       9     H     0.41181  0.41181  0.00000  0.17637
      10     C     3.15435  3.15435  0.00000 -0.30869
      11     H     0.41646  0.41646  0.00000  0.16708
      12     H     0.42357  0.42357  0.00000  0.15286
      13     C     3.15298  3.15298  0.00000 -0.30596
      14     H     0.42195  0.42195  0.00000  0.15609
      15     H     0.42187  0.42187  0.00000  0.15626
      16     C     3.24116  3.24116  0.00000 -0.48231
      17     H     0.42093  0.42093  0.00000  0.15813
      18     H     0.42398  0.42398  0.00000  0.15204
      19     H     0.42188  0.42188  0.00000  0.15623
      20     H     0.42029  0.42029  0.00000  0.15942
      21     H     0.41931  0.41931  0.00000  0.16139

   Total alpha = 29.00000, Total beta = 29.00000, Total charge =  0.00000
