                              Psi4 1.0.54 Driver

  ==> Input File <==

--------------------------------------------------------------------------
set {
	reference rhf
	basis cc-pvtz
}

set_num_threads( 4 )
memory 2 gb

molecule MOL {
0 1

O	 0.395927	 1.296676	 -0.000076
C	 0.503051	 0.114301	 -0.000074
C	 -0.701422	 -0.805636	 -0.000109
C	 1.858118	 -0.556123	 0.000212
C	 -1.244515	 -1.115866	 -1.386070
H	 -0.417073	 -1.717809	 0.518083
H	 -1.465137	 -0.345633	 0.621643
H	 -0.493004	 -1.595538	 -1.998748
H	 -2.101118	 -1.775481	 -1.315391
H	 -1.550368	 -0.211208	 -1.894282
H	 1.961106	 -1.191101	 -0.872843
H	 2.636688	 0.191085	 -0.000109
H	 1.961070	 -1.190284	 0.873873

	symmetry c1
}
set optking {
	frozen_dihedral = ("
		6 3 2 1
	")
}

ee,wfn = optimize('scf', return_wfn=True)
oeprop( wfn, 'DIPOLE', 'QUADRUPOLE', 'MULLIKEN_CHARGES')
f=open( 'psi4out.xyz', 'w' )
f.write( "13  " )
f.write( str(ee) + "\n" )
f.write( MOL.save_string_xyz() )
f.close()
--------------------------------------------------------------------------

    Molecular point group: c1
  Charge       = 0
  Multiplicity = 1
  Basis Set: CC-PVTZ
  Basis Set:
  @DF-RHF Final Energy:  -231.08045532891282
    Total Energy =                       -231.0804553289126488
    Molecular point group: c1
  Basis Set: CC-PVTZ
  Basis Set:
  Basis Set: CC-PVTZ
  Basis Set:
  @DF-RHF Final Energy:  -231.08111679758412
    Total Energy =                       -231.0811167975840021
  Basis Set: CC-PVTZ
  Basis Set:
  Basis Set: CC-PVTZ
  Basis Set:
  @DF-RHF Final Energy:  -231.08098722867942
    Total Energy =                       -231.0809872286794189
  Basis Set: CC-PVTZ
  Basis Set:
  Basis Set: CC-PVTZ
  Basis Set:
  @DF-RHF Final Energy:  -231.08077458748497
    Total Energy =                       -231.0807745874849957
  Basis Set: CC-PVTZ
  Basis Set:
  @DF-RHF Final Energy:  -231.08062880991008
    Total Energy =                       -231.0806288099102517
  @DF-RHF Final Energy:  -231.06163403723613
    Total Energy =                       -231.0616340372359332
  @DF-RHF Final Energy:  -231.07881771986288
    Total Energy =                       -231.0788177198628830
  @DF-RHF Final Energy:  -231.08119772784389
    Total Energy =                       -231.0811977278439144
  @DF-RHF Final Energy:  -231.08052168807336
    Total Energy =                       -231.0805216880734179
  @DF-RHF Final Energy:  -231.08139992756779
    Total Energy =                       -231.0813999275676451
  Basis Set: CC-PVTZ
  Basis Set:
  @DF-RHF Final Energy:  -231.08142183565980
    Total Energy =                       -231.0814218356597962
  Basis Set: CC-PVTZ
  Basis Set:
  Basis Set: CC-PVTZ
  Basis Set:
  @DF-RHF Final Energy:  -231.08143266565983
    Total Energy =                       -231.0814326656599178
  Basis Set: CC-PVTZ
  Basis Set:
  Basis Set: CC-PVTZ
  Basis Set:
  @DF-RHF Final Energy:  -231.08143506347767
    Total Energy =                       -231.0814350634777270
  Basis Set: CC-PVTZ
  Basis Set:
  Charge       = 0
  Multiplicity = 1
  Basis Set: CC-PVTZ
  Basis Set:

    Orbital Energies (a.u.)
    -----------------------

    Doubly Occupied:

       1A    -20.538161     2A    -11.320494     3A    -11.231772
       4A    -11.227934     5A    -11.226834     6A     -1.398289
       7A     -1.067065     8A     -0.998506     9A     -0.884366
      10A     -0.735164    11A     -0.656985    12A     -0.649622
      13A     -0.610422    14A     -0.594788    15A     -0.566249
      16A     -0.541145    17A     -0.529519    18A     -0.503777
      19A     -0.484865    20A     -0.402081

  @DF-RHF Final Energy:  -231.08143517292694

   => Energetics <=

    Nuclear Repulsion Energy =            177.3597241830974554
    One-Electron Energy =                -664.5462430780168006
    Two-Electron Energy =                 256.1050837219924006
    DFT Exchange-Correlation Energy =       0.0000000000000000
    Empirical Dispersion Energy =           0.0000000000000000
    PCM Polarization Energy =               0.0000000000000000
    EFP Energy =                            0.0000000000000000
    Total Energy =                       -231.0814351729269447
    Molecular point group: c1
  Basis Set: CC-PVTZ
  Basis Set:

  -Total Gradient:
     Atom            X                  Y                   Z
    ------   -----------------  -----------------  -----------------
       1       -0.000015922091     0.000044923436     0.000069701171
       2        0.000031299031    -0.000058472185    -0.000082008989
       3        0.000029940890    -0.000052326304    -0.000048848730
       4       -0.000013491942     0.000022257011    -0.000002676623
       5        0.000001402396     0.000005512825     0.000009484596
       6       -0.000031034153     0.000043579555     0.000056030352
       7        0.000002428499     0.000004614668    -0.000001087555
       8        0.000002545698    -0.000002231615     0.000000489671
       9       -0.000001446907    -0.000001676964     0.000000822746
      10       -0.000000084613     0.000002896974    -0.000000061541
      11        0.000001676850     0.000003358114     0.000004966287
      12       -0.000007674007    -0.000010122775     0.000002430577
      13        0.000000360350    -0.000002312739    -0.000009241964

  **** Optimization is complete! (in 11 steps) ****
    Final optimized geometry and variables:
    Molecular point group: c1

    Geometry (in Angstrom), charge = 0, multiplicity = 1:

    O            0.192484224444     1.529438630270    -0.095619128108
    C            0.299295078266     0.393770219885     0.235415095313
    C           -0.916565527086    -0.503718724230     0.358083766371
    C            1.645943977874    -0.219933959955     0.537147088705
    C           -1.238412145369    -1.178054099337    -0.979384393741
    H           -0.748683162761    -1.257129849916     1.119764793497
    H           -1.749196111024     0.114130099302     0.666012076120
    H           -0.420877181411    -1.803706346103    -1.319407455039
    H           -2.115409595259    -1.805377938994    -0.882979636683
    H           -1.434746937280    -0.435098185916    -1.741579050173
    H            1.764857859306    -1.165189280372     0.020088117669
    H            2.435090056565     0.459316829898     0.253749878880
    H            1.711422520377    -0.425503947446     1.600850786453

  Mulliken Charges: (a.u.)
   Center  Symbol    Alpha    Beta     Spin     Total
       1     O     4.17599  4.17599  0.00000 -0.35198
       2     C     2.85309  2.85309  0.00000  0.29382
       3     C     3.09778  3.09778  0.00000 -0.19556
       4     C     3.15435  3.15435  0.00000 -0.30870
       5     C     3.14954  3.14954  0.00000 -0.29908
       6     H     0.45075  0.45075  0.00000  0.09850
       7     H     0.43912  0.43912  0.00000  0.12177
       8     H     0.45458  0.45458  0.00000  0.09085
       9     H     0.44585  0.44585  0.00000  0.10830
      10     H     0.44333  0.44333  0.00000  0.11335
      11     H     0.45106  0.45106  0.00000  0.09787
      12     H     0.43610  0.43610  0.00000  0.12779
      13     H     0.44847  0.44847  0.00000  0.10306

   Total alpha = 20.00000, Total beta = 20.00000, Total charge = -0.00000

*** Psi4 exiting successfully. Buy a developer a beer!
