  ==> Input File <==

--------------------------------------------------------------------------
set {
	reference rhf
	basis cc-pvtz
}

set_num_threads( 4 )
memory 2 gb

molecule MOL {
0 1

H	 -3.260447	 0.495616	 -0.426815
C	 -2.850581	 1.501265	 -0.367125
O	 -1.490671	 1.513365	 -0.646478
H	 -3.344352	 2.121922	 -1.100517
H	 -3.058845	 1.899116	 0.624453
C	 -0.718530	 0.758693	 0.228682
C	 0.718529	 0.758687	 -0.228709
H	 -0.769011	 1.177548	 1.233660
H	 -1.079285	 -0.266597	 0.274156
O	 1.401606	 -0.295166	 0.366636
H	 0.748705	 0.673477	 -1.312803
H	 1.176496	 1.708671	 0.046552
C	 2.714315	 -0.441627	 -0.061017
H	 2.765292	 -0.641548	 -1.128869
H	 3.305661	 0.447341	 0.150952
H	 3.143725	 -1.278506	 0.470147

	symmetry c1
}
set optking {
	frozen_dihedral = ("
		3 6 7 11
	")
}

ee = optimize('scf')
oeprop('DIPOLE', 'QUADRUPOLE', 'MULLIKEN_CHARGES')
f=open( 'psi4out.xyz', 'w' )
f.write( "16  " )
f.write( str(ee) + "\n" )
f.write( MOL.save_string_xyz() )
f.close()
--------------------------------------------------------------------------

    Molecular point group: c1
  Charge       = 0
  Multiplicity = 1
  Basis Set: CC-PVTZ
  Basis Set:
  @DF-RHF Final Energy:  -307.09765453918510
    Total Energy =                       -307.0976545391851573
    Molecular point group: c1
  Basis Set: CC-PVTZ
  Basis Set:
  Basis Set: CC-PVTZ
  Basis Set:
  @DF-RHF Final Energy:  -307.09830728583159
    Total Energy =                       -307.0983072858314245
  Basis Set: CC-PVTZ
  Basis Set:
  Basis Set: CC-PVTZ
  Basis Set:
  @DF-RHF Final Energy:  -307.09836855772505
    Total Energy =                       -307.0983685577248252
  Basis Set: CC-PVTZ
  Basis Set:
  Basis Set: CC-PVTZ
  Basis Set:
  @DF-RHF Final Energy:  -307.09837266596497
    Total Energy =                       -307.0983726659651438
  Basis Set: CC-PVTZ
  Basis Set:
  Charge       = 0
  Multiplicity = 1
  Basis Set: CC-PVTZ
  Basis Set:

    Orbital Energies (a.u.)
    -----------------------

    Doubly Occupied:

       1A    -20.553040     2A    -20.552529     3A    -11.265982
       4A    -11.265316     5A    -11.264841     6A    -11.264631
       7A     -1.392558     8A     -1.381298     9A     -1.031181
      10A     -0.942322    11A     -0.883904    12A     -0.832086
      13A     -0.693005    14A     -0.677178    15A     -0.661595
      16A     -0.649747    17A     -0.623219    18A     -0.601419
      19A     -0.573928    20A     -0.518421    21A     -0.509628
      22A     -0.485451    23A     -0.468247    24A     -0.421318
      25A     -0.419917

  @DF-RHF Final Energy:  -307.09837288861547

   => Energetics <=

    Nuclear Repulsion Energy =            255.0153405564643947
    One-Electron Energy =                -924.3619067908938405
    Two-Electron Energy =                 362.2481933458140020
    DFT Exchange-Correlation Energy =       0.0000000000000000
    Empirical Dispersion Energy =           0.0000000000000000
    PCM Polarization Energy =               0.0000000000000000
    EFP Energy =                            0.0000000000000000
    Total Energy =                       -307.0983728886154722
    Molecular point group: c1
  Basis Set: CC-PVTZ
  Basis Set:

  -Total Gradient:
     Atom            X                  Y                   Z
    ------   -----------------  -----------------  -----------------
       1        0.000010490986     0.000003101255     0.000000704633
       2       -0.000013727260     0.000010558739    -0.000013736875
       3       -0.000447404987    -0.002162699218    -0.001400637556
       4       -0.000009836519     0.000002093480     0.000000503296
       5        0.000005192466    -0.000003111526     0.000001676318
       6        0.000568762676     0.003553810745     0.001785945598
       7        0.000005244991    -0.004745495246    -0.000124502399
       8       -0.000011287985     0.000005803571     0.000000484601
       9        0.000000963192     0.000000271806    -0.000010368669
      10        0.000012955212     0.000028271585    -0.000017515671
      11       -0.000126583224     0.003335597578    -0.000258594561
      12        0.000004783733    -0.000017858757     0.000019047143
      13        0.000001613914    -0.000012065038     0.000015766333
      14       -0.000010633990     0.000003191496     0.000003539928
      15       -0.000002118462     0.000002111334    -0.000001852828
      16        0.000011585255    -0.000003581804    -0.000000459292

  **** Optimization is complete! (in 5 steps) ****
    Final optimized geometry and variables:
    Molecular point group: c1

    Geometry (in Angstrom), charge = 0, multiplicity = 1:

    H           -3.276285108733    -0.034004597345    -0.143491463430
    C           -2.799570760962     0.942594927366    -0.188866068361
    O           -1.460934448272     0.837146205921    -0.545263117381
    H           -3.296497039534     1.538156162817    -0.940733180555
    H           -2.917698667447     1.427980564681     0.777246222703
    C           -0.690823177972     0.078712949630     0.331312974384
    C            0.742485935551     0.099909296883    -0.157788200240
    H           -0.754359063218     0.470333273366     1.344030106415
    H           -1.038341884538    -0.951561452577     0.352457687422
    O            1.429901870909    -0.948050969196     0.443163495861
    H            0.747617669307     0.021337340894    -1.242169016992
    H            1.206362259200     1.052849277337     0.091507795410
    C            2.780145999942    -1.008726494563     0.121098593073
    H            2.927703744590    -1.135705550912    -0.948910291887
    H            3.305128192572    -0.109927134512     0.436469587555
    H            3.205027118201    -1.858726056098     0.634753599217

  Mulliken Charges: (a.u.)
   Center  Symbol    Alpha    Beta     Spin     Total
       1     H     0.47082  0.47082  0.00000  0.05836
       2     C     3.03071  3.03071  0.00000 -0.06142
       3     O     4.17527  4.17527  0.00000 -0.35054
       4     H     0.44686  0.44686  0.00000  0.10629
       5     H     0.47086  0.47086  0.00000  0.05829
       6     C     2.96373  2.96373  0.00000  0.07255
       7     C     2.96362  2.96362  0.00000  0.07276
       8     H     0.47174  0.47174  0.00000  0.05651
       9     H     0.47015  0.47015  0.00000  0.05970
      10     O     4.17475  4.17475  0.00000 -0.34949
      11     H     0.46935  0.46935  0.00000  0.06131
      12     H     0.47322  0.47322  0.00000  0.05357
      13     C     3.03092  3.03092  0.00000 -0.06184
      14     H     0.47048  0.47048  0.00000  0.05905
      15     H     0.47077  0.47077  0.00000  0.05846
      16     H     0.44677  0.44677  0.00000  0.10647

   Total alpha = 25.00000, Total beta = 25.00000, Total charge = -0.00000
