  ==> Input File <==

--------------------------------------------------------------------------
set {
	reference rhf
	basis 6-31G*
}

set_num_threads( 4 )
memory 2 gb

molecule MOL {
0 1

H	 2.962496	 -0.577202	 -1.744492
O	 2.045245	 -0.795659	 -1.831300
C	 1.301594	 -0.136111	 -0.916767
C	 1.860868	 0.737131	 0.007334
C	 -0.064799	 -0.356056	 -0.921907
H	 2.924453	 0.906888	 0.009632
C	 1.054245	 1.389249	 0.924815
H	 -0.498074	 -1.030309	 -1.635161
C	 -0.865228	 0.300799	 0.000000
H	 1.498493	 2.062700	 1.635086
C	 -0.312282	 1.175399	 0.926875
C	 -2.333960	 0.069074	 0.000000
H	 -0.940700	 1.680872	 1.638629
O	 -2.847347	 -1.003763	 0.000000
H	 -2.943845	 0.977528	 0.000000

	symmetry c1
}
set optking {
	frozen_dihedral = ("
		11 9 12 14
	")
}

ee = optimize('scf')
oeprop('DIPOLE', 'QUADRUPOLE', 'MULLIKEN_CHARGES')
f=open( 'psi4out.xyz', 'w' )
f.write( "15  " )
f.write( str(ee) + "\n" )
f.write( MOL.save_string_xyz() )
f.close()
--------------------------------------------------------------------------

    Molecular point group: c1
  Charge       = 0
  Multiplicity = 1
  Basis Set: 6-31G*
  Basis Set:
  @DF-RHF Final Energy:  -418.27882786066834
    Total Energy =                       -418.2788278606683434
    Molecular point group: c1
  Basis Set: 6-31G*
  Basis Set:
  Basis Set: 6-31G*
  Basis Set:
  @DF-RHF Final Energy:  -418.27715577026720
    Total Energy =                       -418.2771557702676546
  Basis Set: 6-31G*
  Basis Set:
  Basis Set: 6-31G*
  Basis Set:
  @DF-RHF Final Energy:  -418.27936894810881
    Total Energy =                       -418.2793689481084130
  Basis Set: 6-31G*
  Basis Set:
  Basis Set: 6-31G*
  Basis Set:
  @DF-RHF Final Energy:  -418.27951263790931
    Total Energy =                       -418.2795126379090789
  Basis Set: 6-31G*
  Basis Set:
  Basis Set: 6-31G*
  Basis Set:
  @DF-RHF Final Energy:  -418.27951434718727
    Total Energy =                       -418.2795143471876145
  Basis Set: 6-31G*
  Basis Set:
  Charge       = 0
  Multiplicity = 1
  Basis Set: 6-31G*
  Basis Set:

    Orbital Energies (a.u.)
    -----------------------

    Doubly Occupied:

       1A    -20.601864     2A    -20.569109     3A    -11.334658
       4A    -11.312735     5A    -11.254551     6A    -11.252558
       7A    -11.245633     8A    -11.243365     9A    -11.239382
      10A     -1.421647    11A     -1.408737    12A     -1.168453
      13A     -1.047810    14A     -1.025443    15A     -0.899219
      16A     -0.843798    17A     -0.815275    18A     -0.736778
      19A     -0.700999    20A     -0.682856    21A     -0.647291
      22A     -0.638507    23A     -0.613073    24A     -0.600512
      25A     -0.578684    26A     -0.545365    27A     -0.534835
      28A     -0.513616    29A     -0.488535    30A     -0.423743
      31A     -0.352926    32A     -0.324424

  @DF-RHF Final Energy:  -418.27951483700281

   => Energetics <=

    Nuclear Repulsion Energy =            402.8450993003654048
    One-Electron Energy =               -1368.1164703422257389
    Two-Electron Energy =                 546.9918562048577542
    DFT Exchange-Correlation Energy =       0.0000000000000000
    Empirical Dispersion Energy =           0.0000000000000000
    PCM Polarization Energy =               0.0000000000000000
    EFP Energy =                            0.0000000000000000
    Total Energy =                       -418.2795148370025800
    Molecular point group: c1
  Basis Set: 6-31G*
  Basis Set:

  -Total Gradient:
     Atom            X                  Y                   Z
    ------   -----------------  -----------------  -----------------
       1       -0.000005637603     0.000022439371    -0.000011082394
       2        0.000003613837    -0.000015185585     0.000034136488
       3       -0.000025526818    -0.000011991166    -0.000015323271
       4       -0.000010730499     0.000040320318     0.000003824952
       5        0.000044087135     0.000001323375    -0.000029013385
       6        0.000004434521    -0.000009319658     0.000003263331
       7        0.000061653353    -0.000028482432    -0.000009750974
       8       -0.000004831904     0.000011006024     0.000000014540
       9       -0.001254253535     0.006268437864    -0.001842039224
      10        0.000001477797    -0.000003429999    -0.000003286787
      11        0.000879768530    -0.004409283854     0.003409215998
      12        0.000065205422    -0.001601081740    -0.008535478485
      13       -0.000002167539    -0.000003459106     0.000002452982
      14        0.000247068997    -0.000244774388     0.006987970086
      15       -0.000004161695    -0.000016519018     0.000005096142

  **** Optimization is complete! (in 6 steps) ****
    Final optimized geometry and variables:
    Molecular point group: c1

    Geometry (in Angstrom), charge = 0, multiplicity = 1:

    H            2.980443278182    -0.720991213897    -1.472538050296
    O            2.059279905489    -0.911896257899    -1.580968499918
    C            1.317487961622    -0.244689303278    -0.671270526633
    C            1.877876523309     0.615268318777     0.261681641792
    C           -0.052820997572    -0.454088913714    -0.687442601928
    H            2.943541350471     0.769758580025     0.279698739745
    C            1.065419419098     1.271335984882     1.172266994345
    H           -0.474170311959    -1.145757833594    -1.391956133632
    C           -0.858621331275     0.230717669906     0.205642001519
    H            1.509421837509     1.925922526017     1.900186225584
    C           -0.304951098836     1.089923016485     1.147529890592
    C           -2.325382275327    -0.047324027092     0.248273840986
    H           -0.934440480262     1.607331515388     1.849811815432
    O           -2.791256760750    -1.140252205733     0.226108867869
    H           -2.968899270114     0.828416709012     0.373446671323

  Mulliken Charges: (a.u.)
   Center  Symbol    Alpha    Beta     Spin     Total
       1     H     0.27041  0.27041  0.00000  0.45919
       2     O     4.37596  4.37596  0.00000 -0.75192
       3     C     2.79385  2.79385  0.00000  0.41229
       4     C     3.13833  3.13833  0.00000 -0.27665
       5     C     3.11680  3.11680  0.00000 -0.23361
       6     H     0.39988  0.39988  0.00000  0.20024
       7     C     3.09143  3.09143  0.00000 -0.18285
       8     H     0.37739  0.37739  0.00000  0.24523
       9     C     3.03077  3.03077  0.00000 -0.06153
      10     H     0.39346  0.39346  0.00000  0.21309
      11     C     3.11750  3.11750  0.00000 -0.23499
      12     C     2.84727  2.84727  0.00000  0.30545
      13     H     0.39434  0.39434  0.00000  0.21133
      14     O     4.22959  4.22959  0.00000 -0.45919
      15     H     0.42304  0.42304  0.00000  0.15392

   Total alpha = 32.00000, Total beta = 32.00000, Total charge = -0.00000
