  ==> Input File <==

--------------------------------------------------------------------------
set {
	reference rhf
	basis 6-31G*
}

set_num_threads( 1 )
memory 2 gb

molecule MOL {
0 1

O	 0.749854	 1.307668	 -0.000040
C	 0.576249	 0.131685	 -0.000108
C	 -0.766779	 -0.556801	 -0.000461
O	 1.568443	 -0.749345	 -0.000005
C	 -1.945214	 0.412366	 0.000161
H	 -0.796911	 -1.211249	 -0.867467
H	 -0.796854	 -1.212390	 0.865687
C	 -3.287791	 -0.317055	 0.000105
H	 -1.876087	 1.060580	 -0.866812
H	 -1.875822	 1.059691	 0.867761
H	 -3.394745	 -0.949193	 -0.877058
H	 -4.111778	 0.388953	 0.000015
H	 -3.394954	 -0.949187	 0.877259
C	 1.510600	 -1.782516	 -0.966659
H	 0.619105	 -2.378292	 -0.833125
H	 2.390785	 -2.385534	 -0.806943
H	 1.515621	 -1.369513	 -1.965114

	symmetry c1
}
set optking {
	frozen_dihedral = ("
		1 2 3 6,
		9 5 3 6
	")
}

ee = energy('scf')
oeprop('DIPOLE', 'QUADRUPOLE', 'MULLIKEN_CHARGES')
f=open( 'psi4out.xyz', 'w' )
f.write( "17  " )
f.write( str(ee) + "\n" )
f.write( MOL.save_string_xyz() )
f.close()
--------------------------------------------------------------------------

    Molecular point group: c1

    Geometry (in Angstrom), charge = 0, multiplicity = 1:

       Center              X                  Y                   Z               Mass
    ------------   -----------------  -----------------  -----------------  -----------------
           O          0.962335901537     1.546977254603     0.149255218584    15.994914619560
           C          0.788730901537     0.370994254603     0.149187218584    12.000000000000
           C         -0.554297098463    -0.317491745397     0.148834218584    12.000000000000
           O          1.780924901537    -0.510035745397     0.149290218584    15.994914619560
           C         -1.732732098463     0.651675254603     0.149456218584    12.000000000000
           H         -0.584429098463    -0.971939745397    -0.718171781416     1.007825032070
           H         -0.584372098463    -0.973080745397     1.014982218584     1.007825032070
           C         -3.075309098463    -0.077745745397     0.149400218584    12.000000000000
           H         -1.663605098463     1.299889254603    -0.717516781416     1.007825032070
           H         -1.663340098463     1.299000254603     1.017056218584     1.007825032070
           H         -3.182263098463    -0.709883745397    -0.727762781416     1.007825032070
           H         -3.899296098463     0.628262254603     0.149310218584     1.007825032070
           H         -3.182472098463    -0.709877745397     1.026554218584     1.007825032070
           C          1.723081901537    -1.543206745397    -0.817363781416    12.000000000000
           H          0.831586901537    -2.138982745397    -0.683829781416     1.007825032070
           H          2.603266901537    -2.146224745397    -0.657647781416     1.007825032070
           H          1.728102901537    -1.130203745397    -1.815818781416     1.007825032070

  Charge       = 0
  Multiplicity = 1
  Basis Set: 6-31G*
  Basis Set:

    Orbital Energies (a.u.)
    -----------------------

    Doubly Occupied:

       1A    -20.596399     2A    -20.551804     3A    -11.374776
       4A    -11.297538     5A    -11.239906     6A    -11.224925
       7A    -11.217745     8A     -1.465998     9A     -1.369997
      10A     -1.082098    11A     -0.991232    12A     -0.969363
      13A     -0.840191    14A     -0.766890    15A     -0.702170
      16A     -0.683812    17A     -0.681375    18A     -0.642121
      19A     -0.613639    20A     -0.578413    21A     -0.568978
      22A     -0.554212    23A     -0.520158    24A     -0.494746
      25A     -0.489920    26A     -0.481500    27A     -0.456625
      28A     -0.432699

  @DF-RHF Final Energy:  -344.88079777303778

   => Energetics <=

    Nuclear Repulsion Energy =            315.9286497896149513
    One-Electron Energy =               -1095.8403839730581240
    Two-Electron Energy =                 435.0309364104043084
    DFT Exchange-Correlation Energy =       0.0000000000000000
    Empirical Dispersion Energy =           0.0000000000000000
    PCM Polarization Energy =               0.0000000000000000
    EFP Energy =                            0.0000000000000000
    Total Energy =                       -344.8807977730388643

  Mulliken Charges: (a.u.)
   Center  Symbol    Alpha    Beta     Spin     Total
       1     O     4.26268  4.26268  0.00000 -0.52537
       2     C     2.60287  2.60287  0.00000  0.79426
       3     C     3.23018  3.23018  0.00000 -0.46035
       4     O     4.30326  4.30326  0.00000 -0.60653
       5     C     3.14975  3.14975  0.00000 -0.29950
       6     H     0.40578  0.40578  0.00000  0.18844
       7     H     0.39911  0.39911  0.00000  0.20178
       8     C     3.24263  3.24263  0.00000 -0.48526
       9     H     0.41096  0.41096  0.00000  0.17809
      10     H     0.40884  0.40884  0.00000  0.18233
      11     H     0.42306  0.42306  0.00000  0.15388
      12     H     0.41428  0.41428  0.00000  0.17144
      13     H     0.42143  0.42143  0.00000  0.15714
      14     C     3.10086  3.10086  0.00000 -0.20172
      15     H     0.41486  0.41486  0.00000  0.17028
      16     H     0.39822  0.39822  0.00000  0.20356
      17     H     0.41124  0.41124  0.00000  0.17753

   Total alpha = 28.00000, Total beta = 28.00000, Total charge =  0.00000
