                              Psi4 1.0.54 Driver

  ==> Input File <==

--------------------------------------------------------------------------
set {
	reference rhf
	basis cc-pvtz
}

set_num_threads( 4 )
memory 2 gb

molecule MOL {
0 1

H	 2.530620	 -0.931366	 -0.243237
O	 1.675515	 -0.612943	 -0.465627
C	 1.135873	 0.113391	 0.608264
C	 0.027642	 1.012027	 0.090274
H	 1.902972	 0.727968	 1.072615
H	 0.756163	 -0.561896	 1.370018
C	 -1.138737	 0.285728	 -0.581921
H	 0.464661	 1.708096	 -0.618252
H	 -0.340737	 1.603071	 0.925246
C	 -1.933983	 -0.631436	 0.343653
H	 -0.763151	 -0.285569	 -1.422081
H	 -1.808359	 1.035291	 -0.992333
H	 -2.789188	 -1.049673	 -0.174718
H	 -1.335629	 -1.461368	 0.700418
H	 -2.305435	 -0.092167	 1.209725

	symmetry c1
}
set optking {
	frozen_dihedral = ("
		1 2 3 4
	")
}

ee,wfn = optimize('scf', return_wfn=True)
oeprop( wfn, 'DIPOLE', 'QUADRUPOLE', 'MULLIKEN_CHARGES')
f=open( 'psi4out.xyz', 'w' )
f.write( "15  " )
f.write( str(ee) + "\n" )
f.write( MOL.save_string_xyz() )
f.close()
--------------------------------------------------------------------------

    Molecular point group: c1
  Charge       = 0
  Multiplicity = 1
  Basis Set: CC-PVTZ
  Basis Set:
  @DF-RHF Final Energy:  -232.23717980134199
    Total Energy =                       -232.2371798013419948
    Molecular point group: c1
  Basis Set: CC-PVTZ
  Basis Set:
  Basis Set: CC-PVTZ
  Basis Set:
  @DF-RHF Final Energy:  -232.23719358326986
    Total Energy =                       -232.2371935832699137
  Basis Set: CC-PVTZ
  Basis Set:
  Basis Set: CC-PVTZ
  Basis Set:
  @DF-RHF Final Energy:  -232.23719613999566
    Total Energy =                       -232.2371961399957740
  Basis Set: CC-PVTZ
  Basis Set:
  Basis Set: CC-PVTZ
  Basis Set:
  @DF-RHF Final Energy:  -232.23719974479988
    Total Energy =                       -232.2371997447995682
  Basis Set: CC-PVTZ
  Basis Set:
  Charge       = 0
  Multiplicity = 1
  Basis Set: CC-PVTZ
  Basis Set:

    Orbital Energies (a.u.)
    -----------------------

    Doubly Occupied:

       1A    -20.546190     2A    -11.265441     3A    -11.210804
       4A    -11.207008     5A    -11.202116     6A     -1.363919
       7A     -1.065083     8A     -0.971077     9A     -0.869301
      10A     -0.775806    11A     -0.706102    12A     -0.649374
      13A     -0.610274    14A     -0.571885    15A     -0.567364
      16A     -0.532590    17A     -0.510825    18A     -0.477313
      19A     -0.467088    20A     -0.452294    21A     -0.432373

  @DF-RHF Final Energy:  -232.23719987589044

   => Energetics <=

    Nuclear Repulsion Energy =            191.9407511451752271
    One-Electron Energy =                -695.4474517354484533
    Two-Electron Energy =                 271.2695007143826160
    DFT Exchange-Correlation Energy =       0.0000000000000000
    Empirical Dispersion Energy =           0.0000000000000000
    PCM Polarization Energy =               0.0000000000000000
    EFP Energy =                            0.0000000000000000
    Total Energy =                       -232.2371998758906102
    Molecular point group: c1
  Basis Set: CC-PVTZ
  Basis Set:

  -Total Gradient:
     Atom            X                  Y                   Z
    ------   -----------------  -----------------  -----------------
       1        0.000562702113     0.001127428429    -0.000523876211
       2       -0.000475464542    -0.001180244671     0.000583065658
       3       -0.000645197831    -0.000567470815     0.000082171587
       4        0.000553345421     0.000600796714    -0.000151385664
       5        0.000000552804     0.000003344802     0.000000719399
       6       -0.000004050307     0.000002394413     0.000003093718
       7        0.000002725864     0.000003352139     0.000005410754
       8       -0.000002576634    -0.000001315014    -0.000002787056
       9       -0.000005574304     0.000000473066    -0.000005237918
      10        0.000009239090    -0.000003046673     0.000001735620
      11        0.000001547430     0.000004422781     0.000006783611
      12        0.000000099592     0.000008219693     0.000000791106
      13        0.000001437825     0.000002451205    -0.000002727319
      14        0.000001138440    -0.000001695166     0.000002385171
      15        0.000000075038     0.000000889096    -0.000000142458

  **** Optimization is complete! (in 5 steps) ****
    Final optimized geometry and variables:
    Molecular point group: c1

    Geometry (in Angstrom), charge = 0, multiplicity = 1:

    H            2.514593837827    -0.953093576687    -0.240458458830
    O            1.659894693595    -0.632321886155    -0.458685723518
    C            1.135064610819     0.116109687813     0.608587876384
    C            0.026503196853     1.016148996078     0.092821162158
    H            1.909457413454     0.734496560539     1.054364546295
    H            0.764290494746    -0.546983350668     1.385045255174
    C           -1.137704807253     0.288854666273    -0.582350709612
    H            0.462667885486     1.714594814361    -0.613714791693
    H           -0.344779998599     1.602993941283     0.929628955332
    C           -1.927967313956    -0.636175247645     0.339496574513
    H           -0.760111403495    -0.277358834075    -1.425139896389
    H           -1.810274040493     1.037636261932    -0.989358285135
    H           -2.780434858600    -1.057404048612    -0.180912903974
    H           -1.324262775492    -1.463451889049     0.693022162122
    H           -2.303036040920    -0.102146195056     1.207264032009

  Mulliken Charges: (a.u.)
   Center  Symbol    Alpha    Beta     Spin     Total
       1     H     0.39449  0.39449  0.00000  0.21101
       2     O     4.20011  4.20011  0.00000 -0.40022
       3     C     2.97612  2.97612  0.00000  0.04776
       4     C     3.09213  3.09213  0.00000 -0.18426
       5     H     0.46376  0.46376  0.00000  0.07248
       6     H     0.47185  0.47185  0.00000  0.05631
       7     C     3.08710  3.08710  0.00000 -0.17420
       8     H     0.45023  0.45023  0.00000  0.09954
       9     H     0.45548  0.45548  0.00000  0.08905
      10     C     3.15485  3.15485  0.00000 -0.30969
      11     H     0.44666  0.44666  0.00000  0.10669
      12     H     0.45075  0.45075  0.00000  0.09851
      13     H     0.44682  0.44682  0.00000  0.10636
      14     H     0.45228  0.45228  0.00000  0.09543
      15     H     0.45738  0.45738  0.00000  0.08524

   Total alpha = 21.00000, Total beta = 21.00000, Total charge = -0.00000

*** Psi4 exiting successfully. Buy a developer a beer!
