  ==> Input File <==

--------------------------------------------------------------------------
set {
	reference rhf
	basis cc-pvtz
}

set_num_threads( 4 )
memory 2 gb

molecule MOL {
0 1

H	 -2.266619	 1.169943	 0.000098
O	 -1.438073	 1.611259	 0.000041
C	 -0.408657	 0.734701	 0.000005
C	 -0.447212	 -0.273863	 -0.944834
C	 0.645532	 0.830157	 0.900941
H	 -1.277615	 -0.313391	 -1.622181
C	 0.569791	 -1.203044	 -1.002231
C	 1.653507	 -0.116950	 0.820305
C	 0.686143	 1.931377	 1.931410
H	 0.533118	 -1.983228	 -1.738401
C	 1.628448	 -1.129575	 -0.117765
H	 2.475270	 -0.056933	 1.509560
H	 -0.170395	 1.890975	 2.598515
H	 1.573396	 1.849599	 2.542585
H	 0.701340	 2.914836	 1.469996
H	 2.423096	 -1.848883	 -0.156508

	symmetry c1
}
set optking {
	frozen_dihedral = ("
		4 3 2 1
	")
}

ee = optimize('scf')
oeprop('DIPOLE', 'QUADRUPOLE', 'MULLIKEN_CHARGES')
f=open( 'psi4out.xyz', 'w' )
f.write( "16  " )
f.write( str(ee) + "\n" )
f.write( MOL.save_string_xyz() )
f.close()
--------------------------------------------------------------------------

    Molecular point group: c1
  Charge       = 0
  Multiplicity = 1
  Basis Set: CC-PVTZ
  Basis Set:
  @DF-RHF Final Energy:  -344.71595384330215
    Total Energy =                       -344.7159538433022021
    Molecular point group: c1
  Basis Set: CC-PVTZ
  Basis Set:
  Basis Set: CC-PVTZ
  Basis Set:
  @DF-RHF Final Energy:  -344.71766989178980
    Total Energy =                       -344.7176698917897966
  Basis Set: CC-PVTZ
  Basis Set:
  Basis Set: CC-PVTZ
  Basis Set:
  @DF-RHF Final Energy:  -344.71778520757982
    Total Energy =                       -344.7177852075800502
  Basis Set: CC-PVTZ
  Basis Set:
  Basis Set: CC-PVTZ
  Basis Set:
  @DF-RHF Final Energy:  -344.71779408125462
    Total Energy =                       -344.7177940812542829
  Basis Set: CC-PVTZ
  Basis Set:
  Basis Set: CC-PVTZ
  Basis Set:
  @DF-RHF Final Energy:  -344.71779617471117
    Total Energy =                       -344.7177961747109975
  Basis Set: CC-PVTZ
  Basis Set:
  Charge       = 0
  Multiplicity = 1
  Basis Set: CC-PVTZ
  Basis Set:

    Orbital Energies (a.u.)
    -----------------------

    Doubly Occupied:

       1A    -20.575337     2A    -11.286417     3A    -11.230796
       4A    -11.228074     5A    -11.225776     6A    -11.223704
       7A    -11.220173     8A    -11.214001     9A     -1.403238
      10A     -1.153148    11A     -1.047353    12A     -1.006507
      13A     -0.932710    14A     -0.841436    15A     -0.803905
      16A     -0.733204    17A     -0.672252    18A     -0.656700
      19A     -0.621007    20A     -0.595825    21A     -0.574950
      22A     -0.563601    23A     -0.543755    24A     -0.532163
      25A     -0.502328    26A     -0.486305    27A     -0.471897
      28A     -0.333374    29A     -0.315772

  @DF-RHF Final Energy:  -344.71779640084515

   => Energetics <=

    Nuclear Repulsion Energy =            350.6576088579511179
    One-Electron Energy =               -1162.7593924473101197
    Two-Electron Energy =                 467.3839871885137427
    DFT Exchange-Correlation Energy =       0.0000000000000000
    Empirical Dispersion Energy =           0.0000000000000000
    PCM Polarization Energy =               0.0000000000000000
    EFP Energy =                            0.0000000000000000
    Total Energy =                       -344.7177964008452591
    Molecular point group: c1
  Basis Set: CC-PVTZ
  Basis Set:

  -Total Gradient:
     Atom            X                  Y                   Z
    ------   -----------------  -----------------  -----------------
       1        0.000023370043    -0.000110260012     0.002508155590
       2        0.000413399855     0.000759970724    -0.003751897023
       3       -0.001425814569    -0.001756281745     0.002422191112
       4        0.000942422798     0.001110935069    -0.001183538559
       5       -0.000010181017     0.000004953312    -0.000006565510
       6        0.000006026302    -0.000000075457     0.000005032446
       7        0.000006988270    -0.000003466114    -0.000018270399
       8        0.000017755677     0.000006217625    -0.000008118992
       9        0.000021101104    -0.000003622347    -0.000003391949
      10        0.000004600659    -0.000003914755     0.000003990618
      11       -0.000000514159     0.000008592498     0.000031506477
      12        0.000003535016    -0.000000631865     0.000006394841
      13       -0.000000753278    -0.000008862524    -0.000002741568
      14        0.000001831039     0.000001778421     0.000002285283
      15       -0.000001511475    -0.000004614068    -0.000002035454
      16       -0.000002256263    -0.000000718761    -0.000002996914

  **** Optimization is complete! (in 6 steps) ****
    Final optimized geometry and variables:
    Molecular point group: c1

    Geometry (in Angstrom), charge = 0, multiplicity = 1:

    H           -2.557860095331     0.896810948670    -0.179557166469
    O           -1.707297176576     1.297407488424    -0.167671808611
    C           -0.726739540489     0.351532886124    -0.216639802279
    C           -0.754477133134    -0.645991127600    -1.170065799859
    C            0.332076293674     0.462614844419     0.676369193569
    H           -1.572865597371    -0.687131724926    -1.864610945588
    C            0.266918032196    -1.575598910660    -1.230487913982
    C            1.348854723654    -0.471980895761     0.587583844710
    C            0.359419668667     1.570495126152     1.696620522907
    H            0.236611778101    -2.353226775612    -1.969447611344
    C            1.323930280370    -1.489288190444    -0.349883109647
    H            2.175697494382    -0.405018785126     1.269800305517
    H           -0.512210886767     1.532177865852     2.338610223056
    H            1.242820431392     1.495682877678     2.316335494544
    H            0.359094660345     2.542388918894     1.218588313352
    H            2.125286146542    -2.201428635561    -0.391214458089

  Mulliken Charges: (a.u.)
   Center  Symbol    Alpha    Beta     Spin     Total
       1     H     0.38479  0.38479  0.00000  0.23042
       2     O     4.18597  4.18597  0.00000 -0.37194
       3     C     2.87961  2.87961  0.00000  0.24077
       4     C     3.12154  3.12154  0.00000 -0.24308
       5     C     2.99322  2.99322  0.00000  0.01355
       6     H     0.42662  0.42662  0.00000  0.14676
       7     C     3.07466  3.07466  0.00000 -0.14932
       8     C     3.08886  3.08886  0.00000 -0.17772
       9     C     3.13939  3.13939  0.00000 -0.27878
      10     H     0.42251  0.42251  0.00000  0.15498
      11     C     3.08406  3.08406  0.00000 -0.16812
      12     H     0.42474  0.42474  0.00000  0.15051
      13     H     0.45042  0.45042  0.00000  0.09916
      14     H     0.45386  0.45386  0.00000  0.09229
      15     H     0.44528  0.44528  0.00000  0.10944
      16     H     0.42446  0.42446  0.00000  0.15108

   Total alpha = 29.00000, Total beta = 29.00000, Total charge = -0.00000
