  ==> Input File <==

--------------------------------------------------------------------------
set {
	reference rhf
	basis 6-31G*
}

set_num_threads( 4 )
memory 2 gb

molecule MOL {
0 1

H	 -1.319810	 1.399586	 0.319832
C	 -0.737872	 0.479741	 0.394124
N	 0.538815	 0.649616	 0.000000
O	 -1.218053	 -0.542406	 0.786363
C	 1.521968	 -0.411503	 0.000000
H	 0.812173	 1.555206	 -0.305720
H	 2.150599	 -0.357004	 -0.881901
H	 0.999455	 -1.354525	 0.000000
H	 2.150599	 -0.357004	 0.881901

	symmetry c1
}
set optking {
	frozen_dihedral = ("
		6 3 5 7
	")
}

ee = optimize('scf')
oeprop('DIPOLE', 'QUADRUPOLE', 'MULLIKEN_CHARGES')
f=open( 'psi4out.xyz', 'w' )
f.write( "9  " )
f.write( str(ee) + "\n" )
f.write( MOL.save_string_xyz() )
f.close()
--------------------------------------------------------------------------

    Molecular point group: c1
  Charge       = 0
  Multiplicity = 1
  Basis Set: 6-31G*
  Basis Set:
  @DF-RHF Final Energy:  -207.96086933989287
    Total Energy =                       -207.9608693398928949
    Molecular point group: c1
  Basis Set: 6-31G*
  Basis Set:
  Basis Set: 6-31G*
  Basis Set:
  @DF-RHF Final Energy:  -207.96095515455175
    Total Energy =                       -207.9609551545516979
  Basis Set: 6-31G*
  Basis Set:
  Basis Set: 6-31G*
  Basis Set:
  @DF-RHF Final Energy:  -207.96095174263479
    Total Energy =                       -207.9609517426347907
  Basis Set: 6-31G*
  Basis Set:
  Basis Set: 6-31G*
  Basis Set:
  @DF-RHF Final Energy:  -207.96100823868593
    Total Energy =                       -207.9610082386859631
  Basis Set: 6-31G*
  Basis Set:
  Basis Set: 6-31G*
  Basis Set:
  @DF-RHF Final Energy:  -207.96104025939354
    Total Energy =                       -207.9610402593935419
  Basis Set: 6-31G*
  Basis Set:
  Basis Set: 6-31G*
  Basis Set:
  @DF-RHF Final Energy:  -207.96104385693502
    Total Energy =                       -207.9610438569350492
  Basis Set: 6-31G*
  Basis Set:
  Charge       = 0
  Multiplicity = 1
  Basis Set: 6-31G*
  Basis Set:

    Orbital Energies (a.u.)
    -----------------------

    Doubly Occupied:

       1A    -20.526080     2A    -15.590772     3A    -11.343786
       4A    -11.260593     5A     -1.389409     6A     -1.236384
       7A     -0.968192     8A     -0.807392     9A     -0.746395
      10A     -0.641574    11A     -0.626611    12A     -0.592948
      13A     -0.555586    14A     -0.535499    15A     -0.424136
      16A     -0.391055

  @DF-RHF Final Energy:  -207.96104409523127

   => Energetics <=

    Nuclear Repulsion Energy =            122.5579740319636812
    One-Electron Energy =                -525.7652116615931845
    Two-Electron Energy =                 195.2461935343982589
    DFT Exchange-Correlation Energy =       0.0000000000000000
    Empirical Dispersion Energy =           0.0000000000000000
    PCM Polarization Energy =               0.0000000000000000
    EFP Energy =                            0.0000000000000000
    Total Energy =                       -207.9610440952312445
    Molecular point group: c1
  Basis Set: 6-31G*
  Basis Set:

  -Total Gradient:
     Atom            X                  Y                   Z
    ------   -----------------  -----------------  -----------------
       1       -0.000005791923    -0.000000597352     0.000001660258
       2        0.000014859194     0.000054424214    -0.000020562243
       3       -0.000075415307    -0.000074553097    -0.000171454624
       4        0.000006510721    -0.000025268047     0.000005087418
       5        0.000111040039     0.000071868047     0.000125093529
       6        0.000020396960     0.000040805174     0.000132347836
       7       -0.000068539599    -0.000070580369    -0.000065876909
       8        0.000002953385    -0.000005894003    -0.000003044546
       9       -0.000006013465     0.000009795431    -0.000003250721

  **** Optimization is complete! (in 7 steps) ****
    Final optimized geometry and variables:
    Molecular point group: c1

    Geometry (in Angstrom), charge = 0, multiplicity = 1:

    H           -1.366082258646     1.360453631218     0.027174457511
    C           -0.774044590954     0.447556856032     0.108485344550
    N            0.477177342061     0.598884704083    -0.366875802432
    O           -1.224808156443    -0.562505770085     0.561896554849
    C            1.467554674710    -0.454205694000    -0.304058347875
    H            0.765710796208     1.512346251128    -0.632284233629
    H            2.151825847970    -0.355628446279    -1.137089316055
    H            0.966679196443    -1.407449767082    -0.371253598067
    H            2.032885793743    -0.424294171598     0.621901756210

  Mulliken Charges: (a.u.)
   Center  Symbol    Alpha    Beta     Spin     Total
       1     H     0.42718  0.42718  0.00000  0.14564
       2     C     2.74616  2.74616  0.00000  0.50768
       3     N     3.87418  3.87418  0.00000 -0.74835
       4     O     4.28347  4.28347  0.00000 -0.56693
       5     C     3.14138  3.14138  0.00000 -0.28277
       6     H     0.30938  0.30938  0.00000  0.38124
       7     H     0.41446  0.41446  0.00000  0.17109
       8     H     0.39104  0.39104  0.00000  0.21793
       9     H     0.41276  0.41276  0.00000  0.17447

   Total alpha = 16.00000, Total beta = 16.00000, Total charge = -0.00000
