  ==> Input File <==

--------------------------------------------------------------------------
set {
	reference rhf
	basis 6-31G*
}

set_num_threads( 4 )
memory 2 gb

molecule MOL {
0 1

H	 -2.098997	 -0.674324	 -0.616650
O	 -2.035884	 -0.060112	 0.102722
C	 -0.955155	 0.788182	 -0.092531
C	 0.353668	 0.040312	 -0.004810
H	 -0.985057	 1.290372	 -1.054184
H	 -0.974469	 1.533190	 0.688632
F	 1.067479	 0.215926	 -1.111249
F	 1.073639	 0.485228	 1.012485
F	 0.184187	 -1.256331	 0.155009

	symmetry c1
}
set optking {
	frozen_dihedral = ("
		7 4 3 5
	")
}

ee = optimize('scf')
oeprop('DIPOLE', 'QUADRUPOLE', 'MULLIKEN_CHARGES')
f=open( 'psi4out.xyz', 'w' )
f.write( "9  " )
f.write( str(ee) + "\n" )
f.write( MOL.save_string_xyz() )
f.close()
--------------------------------------------------------------------------

    Molecular point group: c1
  Charge       = 0
  Multiplicity = 1
  Basis Set: 6-31G*
  Basis Set:
  @DF-RHF Final Energy:  -450.65459170346207
    Total Energy =                       -450.6545917034621880
    Molecular point group: c1
  Basis Set: 6-31G*
  Basis Set:
  Basis Set: 6-31G*
  Basis Set:
  @DF-RHF Final Energy:  -450.65504352048401
    Total Energy =                       -450.6550435204840142
  Basis Set: 6-31G*
  Basis Set:
  Basis Set: 6-31G*
  Basis Set:
  @DF-RHF Final Energy:  -450.65552760520330
    Total Energy =                       -450.6555276052033605
  Basis Set: 6-31G*
  Basis Set:
  Basis Set: 6-31G*
  Basis Set:
  @DF-RHF Final Energy:  -450.65555109408439
    Total Energy =                       -450.6555510940842737
  Basis Set: 6-31G*
  Basis Set:
  Basis Set: 6-31G*
  Basis Set:
  @DF-RHF Final Energy:  -450.65555586895658
    Total Energy =                       -450.6555558689564123
  Basis Set: 6-31G*
  Basis Set:
  Charge       = 0
  Multiplicity = 1
  Basis Set: 6-31G*
  Basis Set:

    Orbital Energies (a.u.)
    -----------------------

    Doubly Occupied:

       1A    -26.342807     2A    -26.340632     3A    -26.340054
       4A    -20.589456     5A    -11.501993     6A    -11.309661
       7A     -1.740377     8A     -1.638290     9A     -1.635706
      10A     -1.401396    11A     -1.042577    12A     -0.924029
      13A     -0.829313    14A     -0.827332    15A     -0.808255
      16A     -0.723491    17A     -0.712036    18A     -0.698620
      19A     -0.663582    20A     -0.658420    21A     -0.641351
      22A     -0.627146    23A     -0.611849    24A     -0.526014
      25A     -0.479645

  @DF-RHF Final Energy:  -450.65555631955408

   => Energetics <=

    Nuclear Repulsion Energy =            275.9393069849824087
    One-Electron Energy =               -1173.9616617177225635
    Two-Electron Energy =                 447.3667984131859612
    DFT Exchange-Correlation Energy =       0.0000000000000000
    Empirical Dispersion Energy =           0.0000000000000000
    PCM Polarization Energy =               0.0000000000000000
    EFP Energy =                            0.0000000000000000
    Total Energy =                       -450.6555563195541936
    Molecular point group: c1
  Basis Set: 6-31G*
  Basis Set:

  -Total Gradient:
     Atom            X                  Y                   Z
    ------   -----------------  -----------------  -----------------
       1       -0.000002773860     0.000003309001     0.000005885317
       2        0.000044171946     0.000016217762    -0.000002392307
       3       -0.001384305506    -0.002599558058    -0.001310826658
       4        0.001183119188     0.002215387226     0.001186032531
       5        0.000922959873     0.001753813201     0.000899504813
       6        0.000004002975     0.000005332310    -0.000002026345
       7       -0.000716950855    -0.001396298515    -0.000771142746
       8       -0.000031435785    -0.000006281566    -0.000045465969
       9       -0.000018787969     0.000008078637     0.000040431363

  **** Optimization is complete! (in 6 steps) ****
    Final optimized geometry and variables:
    Molecular point group: c1

    Geometry (in Angstrom), charge = 0, multiplicity = 1:

    H           -2.114674362199    -0.712535616970    -0.570381716528
    O           -2.077475606030    -0.035918214855     0.091875411028
    C           -0.976986602511     0.781854733781    -0.108833381163
    C            0.358958839975     0.035382041008    -0.006230659399
    H           -0.998453074567     1.291435459229    -1.065943501285
    H           -0.997298338835     1.530050681794     0.668664383207
    F            1.091868576935     0.222829986291    -1.096262922198
    F            1.078911025857     0.447674963903     1.022024632362
    F            0.186679998110    -1.268333384153     0.120898102923

  Mulliken Charges: (a.u.)
   Center  Symbol    Alpha    Beta     Spin     Total
       1     H     0.27363  0.27363  0.00000  0.45274
       2     O     4.35842  4.35842  0.00000 -0.71684
       3     C     3.07159  3.07159  0.00000 -0.14319
       4     C     2.45434  2.45434  0.00000  1.09132
       5     H     0.40515  0.40515  0.00000  0.18970
       6     H     0.39139  0.39139  0.00000  0.21723
       7     F     4.68509  4.68509  0.00000 -0.37017
       8     F     4.68058  4.68058  0.00000 -0.36116
       9     F     4.67982  4.67982  0.00000 -0.35963

   Total alpha = 25.00000, Total beta = 25.00000, Total charge =  0.00000
