  ==> Input File <==

--------------------------------------------------------------------------
set {
	reference rhf
	basis 6-31G*
}

set_num_threads( 4 )
memory 2 gb

molecule MOL {
0 1

H	 -2.344435	 1.232776	 -1.523953
N	 -1.356901	 1.187448	 -1.363650
C	 -0.784922	 0.015460	 -2.002704
H	 -1.217413	 1.129723	 -0.373539
C	 0.700512	 -0.055929	 -1.717176
H	 -1.241315	 -0.923571	 -1.686590
H	 -0.926650	 0.101443	 -3.075691
O	 0.874168	 -0.245412	 -0.342030
H	 1.150765	 -0.881086	 -2.268561
H	 1.178646	 0.868314	 -2.034031
C	 2.202317	 -0.244239	 0.074611
H	 2.711377	 -1.041390	 -0.449894
H	 2.692099	 0.699270	 -0.159667
H	 2.283185	 -0.418429	 1.145558

	symmetry c1
}
set optking {
	frozen_dihedral = ("
		5 8 11 13
	")
}

ee = optimize('scf')
oeprop('DIPOLE', 'QUADRUPOLE', 'MULLIKEN_CHARGES')
f=open( 'psi4out.xyz', 'w' )
f.write( "14  " )
f.write( str(ee) + "\n" )
f.write( MOL.save_string_xyz() )
f.close()
--------------------------------------------------------------------------

    Molecular point group: c1
  Charge       = 0
  Multiplicity = 1
  Basis Set: 6-31G*
  Basis Set:
  @DF-RHF Final Energy:  -248.12416329458244
    Total Energy =                       -248.1241632945825586
    Molecular point group: c1
  Basis Set: 6-31G*
  Basis Set:
  Basis Set: 6-31G*
  Basis Set:
  @DF-RHF Final Energy:  -248.12501740227412
    Total Energy =                       -248.1250174022741248
  Basis Set: 6-31G*
  Basis Set:
  Basis Set: 6-31G*
  Basis Set:
  @DF-RHF Final Energy:  -248.12526828483243
    Total Energy =                       -248.1252682848323161
  Basis Set: 6-31G*
  Basis Set:
  Basis Set: 6-31G*
  Basis Set:
  @DF-RHF Final Energy:  -248.12526948643844
    Total Energy =                       -248.1252694864385262
  Basis Set: 6-31G*
  Basis Set:
  Charge       = 0
  Multiplicity = 1
  Basis Set: 6-31G*
  Basis Set:

    Orbital Energies (a.u.)
    -----------------------

    Doubly Occupied:

       1A    -20.557515     2A    -15.528454     3A    -11.266254
       4A    -11.265651     5A    -11.240822     6A     -1.381523
       7A     -1.173617     8A     -0.999053     9A     -0.907216
      10A     -0.815225    11A     -0.683821    12A     -0.674057
      13A     -0.645414    14A     -0.610097    15A     -0.605284
      16A     -0.540711    17A     -0.530070    18A     -0.496968
      19A     -0.472774    20A     -0.417653    21A     -0.380103

  @DF-RHF Final Energy:  -248.12526990599386

   => Energetics <=

    Nuclear Repulsion Energy =            194.6804511523747294
    One-Electron Energy =                -723.2268783069993106
    Two-Electron Energy =                 280.4211572486307773
    DFT Exchange-Correlation Energy =       0.0000000000000000
    Empirical Dispersion Energy =           0.0000000000000000
    PCM Polarization Energy =               0.0000000000000000
    EFP Energy =                            0.0000000000000000
    Total Energy =                       -248.1252699059937754
    Molecular point group: c1
  Basis Set: 6-31G*
  Basis Set:

  -Total Gradient:
     Atom            X                  Y                   Z
    ------   -----------------  -----------------  -----------------
       1       -0.000000259187     0.000000963713     0.000005231348
       2       -0.000004241553    -0.000003216239     0.000000522200
       3        0.000009319697     0.000018434446    -0.000005956904
       4       -0.000003522588    -0.000003107320     0.000003722618
       5       -0.000002065828     0.000060625186     0.000002647531
       6        0.000010209587     0.000005891528     0.000003476916
       7       -0.000000032333    -0.000000044957    -0.000004180621
       8        0.000020787156    -0.000116614956    -0.000034082216
       9        0.000004724005    -0.000002031987     0.000004374135
      10       -0.000008420740    -0.000003347085     0.000003312987
      11       -0.000030309577     0.000079133557     0.000125132119
      12       -0.000005329965     0.000000203302    -0.000003454976
      13        0.000016816041    -0.000038530713    -0.000099845540
      14       -0.000007674716     0.000001641526    -0.000000899601

  **** Optimization is complete! (in 5 steps) ****
    Final optimized geometry and variables:
    Molecular point group: c1

    Geometry (in Angstrom), charge = 0, multiplicity = 1:

    H           -2.675102254931     1.101013694997    -0.458762199468
    N           -1.686944034172     1.054604553042    -0.302871386984
    C           -1.117847842064    -0.114830399741    -0.949290893081
    H           -1.543410521004     0.992750434847     0.686396590130
    C            0.368801854032    -0.188207137231    -0.670539520532
    H           -1.573198848525    -1.055023885201    -0.635219317495
    H           -1.264008877983    -0.024377309558    -2.021277165420
    O            0.547924161476    -0.382146205281     0.703202147225
    H            0.816317575653    -1.011748633483    -1.226609653323
    H            0.846097774526     0.736796825101    -0.986266444169
    C            1.877865295772    -0.383122199615     1.114250710863
    H            2.438747869985    -1.188204347663     0.642853340679
    H            2.366843953904     0.560388269558     0.880935151830
    H            1.890092448746    -0.529716075489     2.185673363154

  Mulliken Charges: (a.u.)
   Center  Symbol    Alpha    Beta     Spin     Total
       1     H     0.33282  0.33282  0.00000  0.33436
       2     N     3.92527  3.92527  0.00000 -0.85053
       3     C     3.06893  3.06893  0.00000 -0.13786
       4     H     0.32373  0.32373  0.00000  0.35254
       5     C     2.99014  2.99014  0.00000  0.01972
       6     H     0.42661  0.42661  0.00000  0.14678
       7     H     0.42044  0.42044  0.00000  0.15912
       8     O     4.30967  4.30967  0.00000 -0.61934
       9     H     0.43100  0.43100  0.00000  0.13800
      10     H     0.42254  0.42254  0.00000  0.15493
      11     C     3.07902  3.07902  0.00000 -0.15805
      12     H     0.42986  0.42986  0.00000  0.14028
      13     H     0.42749  0.42749  0.00000  0.14502
      14     H     0.41248  0.41248  0.00000  0.17503

   Total alpha = 21.00000, Total beta = 21.00000, Total charge =  0.00000
