                              Psi4 1.0.54 Driver

  ==> Input File <==

--------------------------------------------------------------------------
set {
	reference rhf
	basis cc-pvtz
}

set_num_threads( 4 )
memory 2 gb

molecule MOL {
0 1

H	 -3.258660	 -0.290394	 1.471450
C	 -3.307964	 -0.275695	 0.374072
C	 -2.653809	 0.914422	 -0.273689
O	 -3.855140	 -1.148880	 -0.205112
C	 -1.216901	 1.136108	 0.207794
H	 -2.700131	 0.790676	 -1.347875
H	 -3.256452	 1.781007	 -0.010713
C	 -0.247837	 0.040196	 -0.230469
H	 -0.872882	 2.093195	 -0.169002
H	 -1.209325	 1.218376	 1.291938
C	 1.181757	 0.280428	 0.247371
H	 -0.259600	 -0.030819	 -1.314870
H	 -0.591284	 -0.923375	 0.136958
C	 2.151032	 -0.811012	 -0.202643
H	 1.515939	 1.247397	 -0.115449
H	 1.191514	 0.341223	 1.333422
C	 3.580021	 -0.656538	 0.320835
H	 2.170545	 -0.847575	 -1.289412
H	 1.766632	 -1.772905	 0.124928
C	 4.130209	 0.766588	 0.265247
H	 4.229203	 -1.302771	 -0.261691
H	 3.628735	 -1.022145	 1.343217
H	 4.087903	 1.161131	 -0.744972
H	 3.577027	 1.441513	 0.907236
H	 5.165734	 0.790651	 0.584738

	symmetry c1
}
set optking {
	frozen_dihedral = ("
		20 17 14 18
	")
}

ee,wfn = optimize('scf', return_wfn=True)
oeprop( wfn, 'DIPOLE', 'QUADRUPOLE', 'MULLIKEN_CHARGES')
f=open( 'psi4out.xyz', 'w' )
f.write( "25  " )
f.write( str(ee) + "\n" )
f.write( MOL.save_string_xyz() )
f.close()
--------------------------------------------------------------------------

    Molecular point group: c1
  Charge       = 0
  Multiplicity = 1
  Basis Set: CC-PVTZ
  Basis Set:
  @DF-RHF Final Energy:  -387.25819494336963
    Total Energy =                       -387.2581949433701993
    Molecular point group: c1
  Basis Set: CC-PVTZ
  Basis Set:
  Basis Set: CC-PVTZ
  Basis Set:
  @DF-RHF Final Energy:  -387.13855972161667
    Total Energy =                       -387.1385597216171846
  Basis Set: CC-PVTZ
  Basis Set:
  Basis Set: CC-PVTZ
  Basis Set:
  @DF-RHF Final Energy:  -387.23645864645067
    Total Energy =                       -387.2364586464502736
  Basis Set: CC-PVTZ
  Basis Set:
  Basis Set: CC-PVTZ
  Basis Set:
  @DF-RHF Final Energy:  -387.25807264477493
    Total Energy =                       -387.2580726447745292
  Basis Set: CC-PVTZ
  Basis Set:
  @DF-RHF Final Energy:  -387.25848925605521
    Total Energy =                       -387.2584892560553271
  @DF-RHF Final Energy:  -387.25590631113488
    Total Energy =                       -387.2559063111348223
  @DF-RHF Final Energy:  -387.25858395695906
    Total Energy =                       -387.2585839569590007
  @DF-RHF Final Energy:  -387.25859528673635
    Total Energy =                       -387.2585952867360675
  @DF-RHF Final Energy:  -387.25862326851706
    Total Energy =                       -387.2586232685168852
  Basis Set: CC-PVTZ
  Basis Set:
  @DF-RHF Final Energy:  -387.25862557874694
    Total Energy =                       -387.2586255787468872
  Basis Set: CC-PVTZ
  Basis Set:
  Basis Set: CC-PVTZ
  Basis Set:
  @DF-RHF Final Energy:  -387.25862488950924
    Total Energy =                       -387.2586248895096332
  Basis Set: CC-PVTZ
  Basis Set:
  Basis Set: CC-PVTZ
  Basis Set:
  @DF-RHF Final Energy:  -387.25862664857505
    Total Energy =                       -387.2586266485750457
  Basis Set: CC-PVTZ
  Basis Set:
  Charge       = 0
  Multiplicity = 1
  Basis Set: CC-PVTZ
  Basis Set:

    Orbital Energies (a.u.)
    -----------------------

    Doubly Occupied:

       1A    -20.551401     2A    -11.321010     3A    -11.233828
       4A    -11.232869     5A    -11.221806     6A    -11.218098
       7A    -11.216394     8A    -11.215014     9A    -11.208782
      10A     -1.406439    11A     -1.105382    12A     -1.070439
      13A     -1.014202    14A     -0.943380    15A     -0.878345
      16A     -0.822630    17A     -0.788697    18A     -0.777788
      19A     -0.668189    20A     -0.663883    21A     -0.637116
      22A     -0.626386    23A     -0.602838    24A     -0.594099
      25A     -0.577389    26A     -0.551566    27A     -0.536698
      28A     -0.527410    29A     -0.511416    30A     -0.497551
      31A     -0.491919    32A     -0.480441    33A     -0.460912
      34A     -0.458118    35A     -0.444198    36A     -0.411914

  @DF-RHF Final Energy:  -387.25862667918449

   => Energetics <=

    Nuclear Repulsion Energy =            440.4635284793208143
    One-Electron Energy =               -1397.5072126470727198
    Two-Electron Energy =                 569.7850574885676451
    DFT Exchange-Correlation Energy =       0.0000000000000000
    Empirical Dispersion Energy =           0.0000000000000000
    PCM Polarization Energy =               0.0000000000000000
    EFP Energy =                            0.0000000000000000
    Total Energy =                       -387.2586266791843173
    Molecular point group: c1
  Basis Set: CC-PVTZ
  Basis Set:

  -Total Gradient:
     Atom            X                  Y                   Z
    ------   -----------------  -----------------  -----------------
       1        0.000006000550     0.000002842355    -0.000013624682
       2       -0.000028458789    -0.000021512602    -0.000011859101
       3        0.000018227332    -0.000014204315     0.000007796287
       4        0.000022821070     0.000025144764     0.000024475180
       5       -0.000008345292     0.000009304811    -0.000004088520
       6       -0.000003222642     0.000001211496     0.000002380059
       7       -0.000009398619    -0.000004031677    -0.000004803230
       8       -0.000000526519     0.000001812951    -0.000001321777
       9        0.000001169176    -0.000001118437    -0.000001548530
      10        0.000002774255     0.000001334348     0.000001040471
      11        0.000002014852     0.000002412465    -0.000003824029
      12        0.000000823984     0.000003359594     0.000001306335
      13       -0.000003650240    -0.000002934219    -0.000001950575
      14        0.000511564637     0.005394424617     0.002807376395
      15       -0.000000965047     0.000000877599    -0.000001454126
      16        0.000002637443     0.000000038253     0.000000722677
      17        0.001781199920    -0.001128855092    -0.004734493707
      18       -0.000905273396    -0.004337469470    -0.001183010115
      19       -0.000002874557    -0.000001163450    -0.000002969930
      20       -0.001392893992     0.000067395462     0.003117154022
      21       -0.000001468825     0.000000113227     0.000000631602
      22        0.000003310957    -0.000002988548     0.000000439618
      23        0.000002572469     0.000001153537    -0.000002239452
      24       -0.000001433401     0.000003046508     0.000001179207
      25        0.000003394673    -0.000000194176     0.000002685921

  **** Optimization is complete! (in 13 steps) ****
    Final optimized geometry and variables:
    Molecular point group: c1

    Geometry (in Angstrom), charge = 0, multiplicity = 1:

    H           -3.349368385397     0.185210137717     1.144580944377
    C           -3.276557403177     0.517931144016     0.100134055824
    C           -2.287549024668     1.625132974958    -0.144824081682
    O           -3.955056489833     0.017880703063    -0.728612255879
    C           -0.901136145538     1.319974554951     0.429570675216
    H           -2.244960672043     1.819760854100    -1.208624061364
    H           -2.688622474990     2.511883269552     0.341122221119
    C           -0.184045064957     0.172444179533    -0.278337418506
    H           -0.297019574787     2.218268953274     0.363117489129
    H           -0.992249614176     1.095420312121     1.489530819927
    C            1.200713930481    -0.111978736739     0.297242054639
    H           -0.094471394515     0.408430542057    -1.335434172991
    H           -0.788004708614    -0.729435108864    -0.222405575289
    C            1.919786971965    -1.244718065323    -0.428936245273
    H            1.793863548624     0.795680348992     0.252161406265
    H            1.105658775701    -0.363137044269     1.351597470995
    C            3.256175135799    -1.688740303936     0.178793026697
    H            2.064184200072    -0.989141657640    -1.475971116517
    H            1.263999525192    -2.111786732767    -0.446007815879
    C            4.205237888226    -0.561551308455     0.579287563287
    H            3.752980643187    -2.346817845404    -0.526182167969
    H            3.055010354776    -2.290843520169     1.061131740957
    H            4.417164786109     0.097811529803    -0.256959576210
    H            3.796526313885     0.041463419173     1.380404525243
    H            5.149817794627    -0.965825594674     0.924675565865

  Mulliken Charges: (a.u.)
   Center  Symbol    Alpha    Beta     Spin     Total
       1     H     0.46416  0.46416  0.00000  0.07168
       2     C     2.90483  2.90483  0.00000  0.19033
       3     C     3.08918  3.08918  0.00000 -0.17835
       4     O     4.16628  4.16628  0.00000 -0.33255
       5     C     3.11598  3.11598  0.00000 -0.23196
       6     H     0.44287  0.44287  0.00000  0.11426
       7     H     0.44048  0.44048  0.00000  0.11905
       8     C     3.09119  3.09119  0.00000 -0.18239
       9     H     0.44313  0.44313  0.00000  0.11375
      10     H     0.44993  0.44993  0.00000  0.10013
      11     C     3.09328  3.09328  0.00000 -0.18656
      12     H     0.44976  0.44976  0.00000  0.10049
      13     H     0.44760  0.44760  0.00000  0.10480
      14     C     3.09657  3.09657  0.00000 -0.19314
      15     H     0.44979  0.44979  0.00000  0.10043
      16     H     0.45325  0.45325  0.00000  0.09350
      17     C     3.08973  3.08973  0.00000 -0.17946
      18     H     0.45146  0.45146  0.00000  0.09709
      19     H     0.45009  0.45009  0.00000  0.09983
      20     C     3.15665  3.15665  0.00000 -0.31329
      21     H     0.44811  0.44811  0.00000  0.10377
      22     H     0.45409  0.45409  0.00000  0.09183
      23     H     0.45409  0.45409  0.00000  0.09183
      24     H     0.45265  0.45265  0.00000  0.09470
      25     H     0.44488  0.44488  0.00000  0.11024

   Total alpha = 36.00000, Total beta = 36.00000, Total charge = -0.00000

*** Psi4 exiting successfully. Buy a developer a beer!
