  ==> Input File <==

--------------------------------------------------------------------------
set {
	reference rhf
	basis 6-31G*
}

set_num_threads( 1 )
memory 2 gb

molecule MOL {
0 1

H	 -3.261111	 -0.295142	 1.469456
C	 -3.306842	 -0.277400	 0.373456
C	 -2.660244	 0.921717	 -0.272021
O	 -3.838538	 -1.161155	 -0.216482
C	 -1.220012	 1.144545	 0.209990
H	 -2.705793	 0.797307	 -1.347733
H	 -3.263782	 1.790044	 -0.010477
C	 -0.252658	 0.041456	 -0.226725
H	 -0.873521	 2.100229	 -0.171974
H	 -1.211708	 1.231594	 1.295398
C	 1.180775	 0.282413	 0.250794
H	 -0.266029	 -0.034465	 -1.312038
H	 -0.597733	 -0.921000	 0.146291
C	 2.148627	 -0.814315	 -0.201312
H	 1.516199	 1.249228	 -0.115937
H	 1.192670	 0.346017	 1.338083
C	 3.580890	 -0.659131	 0.322722
H	 2.166869	 -0.852443	 -1.289387
H	 1.762857	 -1.776509	 0.128956
C	 4.523260	 0.095142	 -0.616762
H	 3.989403	 -1.650377	 0.502991
H	 3.558660	 -0.160441	 1.289539
H	 4.552928	 -0.372275	 -1.597532
H	 4.221545	 1.128460	 -0.751655
H	 5.535372	 0.100986	 -0.223582

	symmetry c1
}
set optking {
	frozen_dihedral = ("
		6 3 5 8,
		6 3 2 4,
		3 5 8 12,
		12 8 11 14,
		8 11 14 18
	")
}

ee = energy('scf')
oeprop('DIPOLE', 'QUADRUPOLE', 'MULLIKEN_CHARGES')
f=open( 'psi4out.xyz', 'w' )
f.write( "25  " )
f.write( str(ee) + "\n" )
f.write( MOL.save_string_xyz() )
f.close()
--------------------------------------------------------------------------

    Molecular point group: c1

    Geometry (in Angstrom), charge = 0, multiplicity = 1:

       Center              X                  Y                   Z               Mass
    ------------   -----------------  -----------------  -----------------  -----------------
           H         -3.284315553865    -0.240058865708     1.516564849762     1.007825032070
           C         -3.330046553865    -0.222316865708     0.420564849762    12.000000000000
           C         -2.683448553865     0.976800134292    -0.224912150238    12.000000000000
           O         -3.861742553865    -1.106071865708    -0.169373150238    15.994914619560
           C         -1.243216553865     1.199628134292     0.257098849762    12.000000000000
           H         -2.728997553865     0.852390134292    -1.300624150238     1.007825032070
           H         -3.286986553865     1.845127134292     0.036631849762     1.007825032070
           C         -0.275862553865     0.096539134292    -0.179616150238    12.000000000000
           H         -0.896725553865     2.155312134292    -0.124865150238     1.007825032070
           H         -1.234912553865     1.286677134292     1.342506849762     1.007825032070
           C          1.157570446135     0.337496134292     0.297902849762    12.000000000000
           H         -0.289233553865     0.020618134292    -1.264929150238     1.007825032070
           H         -0.620937553865    -0.865916865708     0.193399849762     1.007825032070
           C          2.125422446135    -0.759231865708    -0.154203150238    12.000000000000
           H          1.492994446135     1.304311134292    -0.068828150238     1.007825032070
           H          1.169465446135     0.401100134292     1.385191849762     1.007825032070
           C          3.557685446135    -0.604047865708     0.369830849762    12.000000000000
           H          2.143664446135    -0.797359865708    -1.242278150238     1.007825032070
           H          1.739652446135    -1.721425865708     0.176064849762     1.007825032070
           C          4.500055446135     0.150225134292    -0.569653150238    12.000000000000
           H          3.966198446135    -1.595293865708     0.550099849762     1.007825032070
           H          3.535455446135    -0.105357865708     1.336647849762     1.007825032070
           H          4.529723446135    -0.317191865708    -1.550423150238     1.007825032070
           H          4.198340446135     1.183543134292    -0.704546150238     1.007825032070
           H          5.512167446135     0.156069134292    -0.176473150238     1.007825032070

  Charge       = 0
  Multiplicity = 1
  Basis Set: 6-31G*
  Basis Set:

    Orbital Energies (a.u.)
    -----------------------

    Doubly Occupied:

       1A    -20.562039     2A    -11.326155     3A    -11.235359
       4A    -11.234632     5A    -11.223812     6A    -11.220401
       7A    -11.217120     8A    -11.216138     9A    -11.210734
      10A     -1.402007    11A     -1.103825    12A     -1.069294
      13A     -1.014235    14A     -0.943004    15A     -0.872398
      16A     -0.818454    17A     -0.789216    18A     -0.785503
      19A     -0.664463    20A     -0.661532    21A     -0.631777
      22A     -0.624279    23A     -0.604246    24A     -0.593395
      25A     -0.574668    26A     -0.550910    27A     -0.533240
      28A     -0.525239    29A     -0.508830    30A     -0.497423
      31A     -0.488339    32A     -0.480393    33A     -0.467034
      34A     -0.456779    35A     -0.440091    36A     -0.409566

  @DF-RHF Final Energy:  -387.11967617887740

   => Energetics <=

    Nuclear Repulsion Energy =            437.4428850469578265
    One-Electron Energy =               -1391.2121868152355546
    Two-Electron Energy =                 566.6496255894033993
    DFT Exchange-Correlation Energy =       0.0000000000000000
    Empirical Dispersion Energy =           0.0000000000000000
    PCM Polarization Energy =               0.0000000000000000
    EFP Energy =                            0.0000000000000000
    Total Energy =                       -387.1196761788743288

  Mulliken Charges: (a.u.)
   Center  Symbol    Alpha    Beta     Spin     Total
       1     H     0.43261  0.43261  0.00000  0.13479
       2     C     2.83086  2.83086  0.00000  0.33828
       3     C     3.20809  3.20809  0.00000 -0.41619
       4     O     4.23774  4.23774  0.00000 -0.47548
       5     C     3.16660  3.16660  0.00000 -0.33319
       6     H     0.39969  0.39969  0.00000  0.20062
       7     H     0.40670  0.40670  0.00000  0.18660
       8     C     3.15544  3.15544  0.00000 -0.31089
       9     H     0.41285  0.41285  0.00000  0.17431
      10     H     0.41962  0.41962  0.00000  0.16075
      11     C     3.15324  3.15324  0.00000 -0.30647
      12     H     0.41793  0.41793  0.00000  0.16413
      13     H     0.41828  0.41828  0.00000  0.16343
      14     C     3.15444  3.15444  0.00000 -0.30888
      15     H     0.42228  0.42228  0.00000  0.15544
      16     H     0.42313  0.42313  0.00000  0.15374
      17     C     3.15465  3.15465  0.00000 -0.30929
      18     H     0.42153  0.42153  0.00000  0.15695
      19     H     0.42027  0.42027  0.00000  0.15947
      20     C     3.23969  3.23969  0.00000 -0.47939
      21     H     0.41980  0.41980  0.00000  0.16040
      22     H     0.42214  0.42214  0.00000  0.15573
      23     H     0.42120  0.42120  0.00000  0.15760
      24     H     0.42182  0.42182  0.00000  0.15635
      25     H     0.41940  0.41940  0.00000  0.16120

   Total alpha = 36.00000, Total beta = 36.00000, Total charge =  0.00000
