  ==> Input File <==

--------------------------------------------------------------------------
set {
	reference rhf
	basis cc-pvtz
}

set_num_threads( 4 )
memory 2 gb

molecule MOL {
0 1

H	 -3.144994	 -1.202467	 -0.018751
O	 -2.321472	 -0.864941	 -0.318626
C	 -2.021813	 0.336996	 0.342658
C	 -0.669613	 0.837286	 -0.127252
H	 -2.780861	 1.084746	 0.127159
H	 -2.006390	 0.184138	 1.420053
C	 0.490865	 -0.082543	 0.241244
H	 -0.708709	 0.967192	 -1.204587
H	 -0.507562	 1.822272	 0.303070
C	 0.343247	 -0.704410	 1.626920
H	 1.418305	 0.476399	 0.191279
H	 0.567965	 -0.875162	 -0.500329
C	 1.498790	 -1.629922	 1.992889
H	 0.268199	 0.086755	 2.367952
H	 -0.590853	 -1.258093	 1.677718
H	 2.443415	 -1.096497	 1.985361
H	 1.365785	 -2.053539	 2.981910
H	 1.579771	 -2.452083	 1.289370

	symmetry c1
}
set optking {
	frozen_dihedral = ("
		10 7 4 8
	")
}

ee = optimize('scf')
oeprop('DIPOLE', 'QUADRUPOLE', 'MULLIKEN_CHARGES')
f=open( 'psi4out.xyz', 'w' )
f.write( "18  " )
f.write( str(ee) + "\n" )
f.write( MOL.save_string_xyz() )
f.close()
--------------------------------------------------------------------------

    Molecular point group: c1
  Charge       = 0
  Multiplicity = 1
  Basis Set: CC-PVTZ
  Basis Set:
  @DF-RHF Final Energy:  -271.28118170113021
    Total Energy =                       -271.2811817011302082
    Molecular point group: c1
  Basis Set: CC-PVTZ
  Basis Set:
  Basis Set: CC-PVTZ
  Basis Set:
  @DF-RHF Final Energy:  -271.28238562142906
    Total Energy =                       -271.2823856214290004
  Basis Set: CC-PVTZ
  Basis Set:
  Basis Set: CC-PVTZ
  Basis Set:
  @DF-RHF Final Energy:  -271.28315854431287
    Total Energy =                       -271.2831585443126414
  Basis Set: CC-PVTZ
  Basis Set:
  Basis Set: CC-PVTZ
  Basis Set:
  @DF-RHF Final Energy:  -271.28324779221032
    Total Energy =                       -271.2832477922103180
  Basis Set: CC-PVTZ
  Basis Set:
  Basis Set: CC-PVTZ
  Basis Set:
  @DF-RHF Final Energy:  -271.28325701034225
    Total Energy =                       -271.2832570103422540
  Basis Set: CC-PVTZ
  Basis Set:
  Basis Set: CC-PVTZ
  Basis Set:
  @DF-RHF Final Energy:  -271.28325986471179
    Total Energy =                       -271.2832598647117948
  Basis Set: CC-PVTZ
  Basis Set:
  Charge       = 0
  Multiplicity = 1
  Basis Set: CC-PVTZ
  Basis Set:

    Orbital Energies (a.u.)
    -----------------------

    Doubly Occupied:

       1A    -20.547154     2A    -11.265095     3A    -11.211182
       4A    -11.207102     5A    -11.205864     6A    -11.201996
       7A     -1.364685     8A     -1.074607     9A     -1.007570
      10A     -0.914059    11A     -0.833654    12A     -0.766891
      13A     -0.708550    14A     -0.645970    15A     -0.627899
      16A     -0.585744    17A     -0.562903    18A     -0.553438
      19A     -0.539934    20A     -0.498615    21A     -0.491327
      22A     -0.463628    23A     -0.456236    24A     -0.447186
      25A     -0.432075

  @DF-RHF Final Energy:  -271.28326021567420

   => Energetics <=

    Nuclear Repulsion Energy =            255.3753290468204398
    One-Electron Energy =                -874.0904544784718837
    Two-Electron Energy =                 347.4318652159773819
    DFT Exchange-Correlation Energy =       0.0000000000000000
    Empirical Dispersion Energy =           0.0000000000000000
    PCM Polarization Energy =               0.0000000000000000
    EFP Energy =                            0.0000000000000000
    Total Energy =                       -271.2832602156740904
    Molecular point group: c1
  Basis Set: CC-PVTZ
  Basis Set:

  -Total Gradient:
     Atom            X                  Y                   Z
    ------   -----------------  -----------------  -----------------
       1        0.000002636302     0.000005874483     0.000000321211
       2        0.000017222085     0.000010184676     0.000007491250
       3       -0.000017004419    -0.000014267322    -0.000009215172
       4        0.002952962691     0.003391435192    -0.000255310249
       5        0.000000724660     0.000004862266     0.000001363896
       6        0.000007319317     0.000002485715     0.000003726556
       7        0.002018495809     0.003172848244     0.001987335619
       8       -0.003086146187    -0.003771742923    -0.000301283068
       9       -0.000001640332    -0.000003689027     0.000000240402
      10       -0.001900644006    -0.002804277458    -0.001425763659
      11        0.000004030789    -0.000000684309    -0.000000406724
      12       -0.000004736833     0.000001069038     0.000001562793
      13        0.000005508883     0.000001192989    -0.000006068546
      14       -0.000000873306     0.000003697152    -0.000006242281
      15       -0.000001809568    -0.000000501905     0.000000991191
      16        0.000004680427    -0.000000481708     0.000001783202
      17       -0.000002300010     0.000002167440    -0.000002062407
      18        0.000001573695    -0.000000172544     0.000001535985

  **** Optimization is complete! (in 7 steps) ****
    Final optimized geometry and variables:
    Molecular point group: c1

    Geometry (in Angstrom), charge = 0, multiplicity = 1:

    H           -2.719890809798    -0.750769434489    -0.694757955732
    O           -1.857472968391    -0.463831941151    -0.931350252316
    C           -1.573879918652     0.770450856216    -0.323473590590
    C           -0.178863606683     1.210094952730    -0.732308370750
    H           -2.288601654363     1.523121396659    -0.646798291038
    H           -1.653837080189     0.689908564563     0.756538312276
    C            0.957755986028     0.250147222494    -0.351669112306
    H           -0.197633255843     1.311698532762    -1.812249288585
    H           -0.003015217481     2.193391842226    -0.306490912414
    C            0.860096706928    -0.388160190905     1.032439299660
    H            1.899028755653     0.785311198061    -0.437573909121
    H            0.995105510054    -0.548609901300    -1.084664719946
    C            2.080446506848    -1.241065059050     1.364944255030
    H            0.748233028055     0.383645973060     1.790995899280
    H           -0.028343909375    -1.005775894669     1.082384736593
    H            2.987919622560    -0.646281246590     1.365357300421
    H            1.985041973280    -1.699150366873     2.342943450167
    H            2.208673133498    -2.036714995712     0.638563286357

  Mulliken Charges: (a.u.)
   Center  Symbol    Alpha    Beta     Spin     Total
       1     H     0.39533  0.39533  0.00000  0.20934
       2     O     4.20155  4.20155  0.00000 -0.40310
       3     C     2.98410  2.98410  0.00000  0.03180
       4     C     3.09947  3.09947  0.00000 -0.19894
       5     H     0.45812  0.45812  0.00000  0.08377
       6     H     0.46657  0.46657  0.00000  0.06685
       7     C     3.08514  3.08514  0.00000 -0.17027
       8     H     0.44939  0.44939  0.00000  0.10121
       9     H     0.45168  0.45168  0.00000  0.09663
      10     C     3.08918  3.08918  0.00000 -0.17835
      11     H     0.45155  0.45155  0.00000  0.09689
      12     H     0.44997  0.44997  0.00000  0.10005
      13     C     3.15143  3.15143  0.00000 -0.30287
      14     H     0.45704  0.45704  0.00000  0.08592
      15     H     0.44970  0.44970  0.00000  0.10060
      16     H     0.45586  0.45586  0.00000  0.08829
      17     H     0.44975  0.44975  0.00000  0.10051
      18     H     0.45417  0.45417  0.00000  0.09166

   Total alpha = 25.00000, Total beta = 25.00000, Total charge =  0.00000
