  ==> Input File <==

--------------------------------------------------------------------------
set {
	reference rhf
	basis cc-pvtz
}

set_num_threads( 4 )
memory 2 gb

molecule MOL {
0 1

H	 -3.436473	 1.252944	 -1.023892
O	 -3.458596	 0.315260	 -0.960865
C	 -3.176635	 -0.080824	 0.355601
C	 -1.763371	 0.265266	 0.799691
H	 -3.321825	 -1.153438	 0.379502
H	 -3.895468	 0.357385	 1.043382
C	 -0.673390	 -0.426948	 -0.013392
H	 -1.631049	 1.344913	 0.747560
H	 -1.664587	 -0.001624	 1.849167
C	 0.737842	 -0.043159	 0.423759
H	 -0.806103	 -0.190518	 -1.063345
H	 -0.797221	 -1.503753	 0.074146
C	 1.824000	 -0.743224	 -0.390623
H	 0.850588	 1.033777	 0.343840
H	 0.868587	 -0.286314	 1.476203
C	 3.255957	 -0.453067	 0.062319
H	 1.718250	 -0.470599	 -1.438164
H	 1.658105	 -1.815850	 -0.339904
C	 3.555112	 -0.827209	 1.512032
H	 3.448951	 0.607218	 -0.069305
H	 3.951199	 -0.970319	 -0.593813
H	 2.870910	 -0.328995	 2.191537
H	 4.562274	 -0.533245	 1.784891
H	 3.471102	 -1.893880	 1.681620

	symmetry c1
}
set optking {
	frozen_dihedral = ("
		20 16 13 17
	")
}

ee = optimize('scf')
oeprop('DIPOLE', 'QUADRUPOLE', 'MULLIKEN_CHARGES')
f=open( 'psi4out.xyz', 'w' )
f.write( "24  " )
f.write( str(ee) + "\n" )
f.write( MOL.save_string_xyz() )
f.close()
--------------------------------------------------------------------------

    Molecular point group: c1
  Charge       = 0
  Multiplicity = 1
  Basis Set: CC-PVTZ
  Basis Set:
  @DF-RHF Final Energy:  -349.37936831525258
    Total Energy =                       -349.3793683152522362
    Molecular point group: c1
  Basis Set: CC-PVTZ
  Basis Set:
  Basis Set: CC-PVTZ
  Basis Set:
  @DF-RHF Final Energy:  -349.38005396369277
    Total Energy =                       -349.3800539636925464
  Basis Set: CC-PVTZ
  Basis Set:
  Basis Set: CC-PVTZ
  Basis Set:
  @DF-RHF Final Energy:  -349.38035470446101
    Total Energy =                       -349.3803547044610696
  Basis Set: CC-PVTZ
  Basis Set:
  Basis Set: CC-PVTZ
  Basis Set:
  @DF-RHF Final Energy:  -349.38036408396340
    Total Energy =                       -349.3803640839632862
  Basis Set: CC-PVTZ
  Basis Set:
  Basis Set: CC-PVTZ
  Basis Set:
  @DF-RHF Final Energy:  -349.38036544929577
    Total Energy =                       -349.3803654492958231
  Basis Set: CC-PVTZ
  Basis Set:
  Charge       = 0
  Multiplicity = 1
  Basis Set: CC-PVTZ
  Basis Set:

    Orbital Energies (a.u.)
    -----------------------

    Doubly Occupied:

       1A    -20.546275     2A    -11.265500     3A    -11.215142
       4A    -11.212094     5A    -11.210126     6A    -11.209429
       7A    -11.208907     8A    -11.205332     9A     -1.364121
      10A     -1.089845    11A     -1.049377    12A     -0.986589
      13A     -0.916135    14A     -0.851747    15A     -0.801650
      16A     -0.775584    17A     -0.681725    18A     -0.655837
      19A     -0.625884    20A     -0.619862    21A     -0.598732
      22A     -0.586649    23A     -0.557820    24A     -0.541805
      25A     -0.518547    26A     -0.509403    27A     -0.498328
      28A     -0.471461    29A     -0.468661    30A     -0.460488
      31A     -0.458265    32A     -0.451099    33A     -0.420896

  @DF-RHF Final Energy:  -349.38036595727397

   => Energetics <=

    Nuclear Repulsion Energy =            384.8113778459255627
    One-Electron Energy =               -1236.3168538610564156
    Two-Electron Energy =                 502.1251100578564319
    DFT Exchange-Correlation Energy =       0.0000000000000000
    Empirical Dispersion Energy =           0.0000000000000000
    PCM Polarization Energy =               0.0000000000000000
    EFP Energy =                            0.0000000000000000
    Total Energy =                       -349.3803659572744209
    Molecular point group: c1
  Basis Set: CC-PVTZ
  Basis Set:

  -Total Gradient:
     Atom            X                  Y                   Z
    ------   -----------------  -----------------  -----------------
       1       -0.000000438650     0.000001195625    -0.000000810081
       2       -0.000002511498     0.000003606594     0.000003567732
       3        0.000004274497    -0.000010860765    -0.000003658632
       4        0.000004380601     0.000001181657     0.000001435403
       5       -0.000001124873    -0.000001562739    -0.000000067312
       6        0.000002715449     0.000000342311    -0.000000341620
       7       -0.000004731392     0.000006949504    -0.000009329553
       8        0.000002606765    -0.000000713195    -0.000002473342
       9       -0.000001173647     0.000002556731     0.000000801611
      10        0.000004813739    -0.000005654841     0.000018304476
      11       -0.000000303581     0.000000802801    -0.000001126744
      12       -0.000001091353     0.000000729532     0.000002720280
      13        0.000399962426    -0.000997293283    -0.000458224923
      14       -0.000004826937     0.000001132385    -0.000001534042
      15        0.000003961214     0.000004428069     0.000008825638
      16       -0.000382578059     0.000370358141     0.001032488243
      17       -0.000261669055     0.000788405586     0.000209630816
      18        0.000004396296    -0.000001553563    -0.000000113939
      19       -0.000006470154     0.000005845722     0.000006708750
      20        0.000253973778    -0.000166562843    -0.000813401446
      21       -0.000009558161     0.000003130703    -0.000007044781
      22       -0.000001346728    -0.000001760103     0.000009202733
      23       -0.000003792924    -0.000000256183     0.000000409822
      24        0.000000532247    -0.000004447847     0.000004030915

  **** Optimization is complete! (in 6 steps) ****
    Final optimized geometry and variables:
    Molecular point group: c1

    Geometry (in Angstrom), charge = 0, multiplicity = 1:

    H           -3.365907622672     1.571945644030    -1.235727041527
    O           -3.410964224195     0.633229825271    -1.214207694819
    C           -3.176723301189     0.174765654704     0.091246594533
    C           -1.769598666142     0.467860698934     0.589735993790
    H           -3.346705830796    -0.894134620305     0.064161310476
    H           -3.905457909881     0.600012297965     0.776747335859
    C           -0.672058915675    -0.213703680701    -0.222136450687
    H           -1.611633383487     1.545350179187     0.588876420264
    H           -1.707525866058     0.153553286162     1.628814936184
    C            0.734185950379     0.118179551000     0.270328659294
    H           -0.770042979135     0.069321501984    -1.264225400759
    H           -0.821329635325    -1.290313032529    -0.183735352686
    C            1.826746683807    -0.582085801836    -0.535929237051
    H            0.887215463711     1.194311402499     0.219284447000
    H            0.815493230127    -0.151488698873     1.318855777338
    C            3.257072567910    -0.194561967455    -0.156769908069
    H            1.677496564335    -0.350942427253    -1.586982413601
    H            1.709204153438    -1.658910336745    -0.439343217346
    C            3.658512721479    -0.537002507290     1.275635087482
    H            3.397770452379     0.869220203511    -0.329949398151
    H            3.936775208616    -0.698643851159    -0.837370382858
    H            3.084983005190     0.024006225583     2.003444165650
    H            4.705662713308    -0.313173749250     1.444536371965
    H            3.510303169690    -1.592774534772     1.479891900998

  Mulliken Charges: (a.u.)
   Center  Symbol    Alpha    Beta     Spin     Total
       1     H     0.39531  0.39531  0.00000  0.20938
       2     O     4.20370  4.20370  0.00000 -0.40739
       3     C     2.97787  2.97787  0.00000  0.04426
       4     C     3.10178  3.10178  0.00000 -0.20355
       5     H     0.45881  0.45881  0.00000  0.08238
       6     H     0.46027  0.46027  0.00000  0.07946
       7     C     3.08735  3.08735  0.00000 -0.17470
       8     H     0.45914  0.45914  0.00000  0.08172
       9     H     0.45343  0.45343  0.00000  0.09313
      10     C     3.09194  3.09194  0.00000 -0.18388
      11     H     0.44584  0.44584  0.00000  0.10832
      12     H     0.45535  0.45535  0.00000  0.08931
      13     C     3.09481  3.09481  0.00000 -0.18963
      14     H     0.45554  0.45554  0.00000  0.08892
      15     H     0.45383  0.45383  0.00000  0.09235
      16     C     3.09011  3.09011  0.00000 -0.18021
      17     H     0.44951  0.44951  0.00000  0.10097
      18     H     0.45348  0.45348  0.00000  0.09304
      19     C     3.15355  3.15355  0.00000 -0.30710
      20     H     0.45481  0.45481  0.00000  0.09038
      21     H     0.44888  0.44888  0.00000  0.10224
      22     H     0.45363  0.45363  0.00000  0.09274
      23     H     0.44632  0.44632  0.00000  0.10736
      24     H     0.45475  0.45475  0.00000  0.09051

   Total alpha = 33.00000, Total beta = 33.00000, Total charge = -0.00000
