  ==> Input File <==

--------------------------------------------------------------------------
set {
	reference rhf
	basis 6-31G*
}

set_num_threads( 4 )
memory 2 gb

molecule MOL {
0 1

O	 -2.821601	 1.309235	 -0.001213
C	 -2.668563	 0.129746	 -0.000350
C	 -3.801572	 -0.864014	 -0.000442
O	 -1.481751	 -0.454642	 0.000584
H	 -4.417280	 -0.689587	 -0.874708
H	 -3.443784	 -1.883046	 -0.000565
H	 -4.417179	 -0.689832	 0.873954
C	 -0.334255	 0.388708	 0.000906
C	 0.891947	 -0.504646	 0.000751
H	 -0.365390	 1.025305	 -0.873475
H	 -0.365484	 1.024911	 0.875569
C	 2.191998	 0.301789	 0.000897
H	 0.855148	 -1.151283	 -0.871571
H	 0.855132	 -1.151660	 0.872805
C	 3.441114	 -0.581407	 0.000108
H	 2.215074	 0.954890	 -0.869742
H	 2.215465	 0.953923	 0.872248
C	 3.254246	 -1.875906	 -0.789968
H	 3.712983	 -0.820043	 1.025884
H	 4.276392	 -0.021921	 -0.415050
H	 2.446743	 -2.474094	 -0.377508
H	 4.155769	 -2.480198	 -0.771962
H	 3.014730	 -1.669992	 -1.829314

	symmetry c1
}
set optking {
	frozen_dihedral = ("
		19 15 12 16
	")
}

ee = optimize('scf')
oeprop('DIPOLE', 'QUADRUPOLE', 'MULLIKEN_CHARGES')
f=open( 'psi4out.xyz', 'w' )
f.write( "23  " )
f.write( str(ee) + "\n" )
f.write( MOL.save_string_xyz() )
f.close()
--------------------------------------------------------------------------

    Molecular point group: c1
  Charge       = 0
  Multiplicity = 1
  Basis Set: 6-31G*
  Basis Set:
  @DF-RHF Final Energy:  -422.97239834850018
    Total Energy =                       -422.9723983485006329
    Molecular point group: c1
  Basis Set: 6-31G*
  Basis Set:
  Basis Set: 6-31G*
  Basis Set:
  @DF-RHF Final Energy:  -422.97355992978356
    Total Energy =                       -422.9735599297838462
  Basis Set: 6-31G*
  Basis Set:
  Basis Set: 6-31G*
  Basis Set:
  @DF-RHF Final Energy:  -422.97499816149673
    Total Energy =                       -422.9749981614968419
  Basis Set: 6-31G*
  Basis Set:
  Basis Set: 6-31G*
  Basis Set:
  @DF-RHF Final Energy:  -422.97512092222246
    Total Energy =                       -422.9751209222229136
  Basis Set: 6-31G*
  Basis Set:
  @DF-RHF Final Energy:  -422.97509913655631
    Total Energy =                       -422.9750991365563095
  Basis Set: 6-31G*
  Basis Set:
  @DF-RHF Final Energy:  -422.97501676916301
    Total Energy =                       -422.9750167691627212
  Basis Set: 6-31G*
  Basis Set:
  Basis Set: 6-31G*
  Basis Set:
  @DF-RHF Final Energy:  -422.97514063796046
    Total Energy =                       -422.9751406379604077
  Basis Set: 6-31G*
  Basis Set:
  Basis Set: 6-31G*
  Basis Set:
  @DF-RHF Final Energy:  -422.97514368953642
    Total Energy =                       -422.9751436895361394
  Basis Set: 6-31G*
  Basis Set:
  Charge       = 0
  Multiplicity = 1
  Basis Set: 6-31G*
  Basis Set:

    Orbital Energies (a.u.)
    -----------------------

    Doubly Occupied:

       1A    -20.602954     2A    -20.540500     3A    -11.374064
       4A    -11.281461     5A    -11.232377     6A    -11.224447
       7A    -11.223796     8A    -11.221996     9A    -11.213230
      10A     -1.467921    11A     -1.360704    12A     -1.093272
      13A     -1.040489    14A     -1.001709    15A     -0.931645
      16A     -0.857809    17A     -0.790272    18A     -0.769831
      19A     -0.691461    20A     -0.684756    21A     -0.670004
      22A     -0.639083    23A     -0.610912    24A     -0.601807
      25A     -0.574370    26A     -0.568894    27A     -0.549832
      28A     -0.538426    29A     -0.527154    30A     -0.507304
      31A     -0.498698    32A     -0.470823    33A     -0.466902
      34A     -0.462130    35A     -0.451281    36A     -0.435350

  @DF-RHF Final Energy:  -422.97514435379583

   => Energetics <=

    Nuclear Repulsion Energy =            454.7370546395424071
    One-Electron Energy =               -1477.0690667191254306
    Two-Electron Energy =                 599.3568677257873105
    DFT Exchange-Correlation Energy =       0.0000000000000000
    Empirical Dispersion Energy =           0.0000000000000000
    PCM Polarization Energy =               0.0000000000000000
    EFP Energy =                            0.0000000000000000
    Total Energy =                       -422.9751443537957130
    Molecular point group: c1
  Basis Set: 6-31G*
  Basis Set:

  -Total Gradient:
     Atom            X                  Y                   Z
    ------   -----------------  -----------------  -----------------
       1        0.000004670316    -0.000004819059     0.000018734439
       2       -0.000015655287    -0.000006746750    -0.000044553561
       3       -0.000004195188     0.000000961121     0.000017980401
       4       -0.000011659364     0.000011496543     0.000008171537
       5        0.000001382348    -0.000000376361    -0.000001567098
       6        0.000000015282     0.000000894541     0.000000199386
       7       -0.000004904011    -0.000001298533    -0.000001788610
       8        0.000004474108    -0.000005607986    -0.000006349961
       9        0.000007588609     0.000006934181     0.000018320063
      10        0.000000150677     0.000003566365     0.000003969358
      11        0.000004155958     0.000002248015    -0.000003678603
      12       -0.002204008996    -0.003777258882    -0.003618567242
      13        0.000006730274    -0.000001195208    -0.000002173630
      14       -0.000008563511     0.000001573971     0.000003067364
      15       -0.003118346270    -0.004722860318     0.000353463772
      16        0.002356369439     0.003936784788     0.002965238632
      17        0.000005032810    -0.000012626454     0.000000417270
      18       -0.000005175307     0.000006958083     0.000006338716
      19        0.002965767915     0.004562656044     0.000277076620
      20        0.000003527205    -0.000010600188    -0.000001577441
      21        0.000017062149    -0.000004569365     0.000007976228
      22        0.000011572170     0.000008681805    -0.000003938035
      23       -0.000015991326     0.000005203650     0.000003240397

  **** Optimization is complete! (in 9 steps) ****
    Final optimized geometry and variables:
    Molecular point group: c1

    Geometry (in Angstrom), charge = 0, multiplicity = 1:

    O           -2.650163015580     1.591529531085     0.146323558946
    C           -2.524671833406     0.409075772976     0.119931339035
    C           -3.680495189472    -0.558076743371     0.120150122351
    O           -1.352047300014    -0.202402103722     0.087546831839
    H           -4.307935115021    -0.350622971159    -0.738412384751
    H           -3.346778001948    -1.584854134074     0.091699390322
    H           -4.275664766201    -0.388721605877     1.009521458904
    C           -0.185145223014     0.614013725095     0.084452410045
    C            1.019459034596    -0.307621681111     0.043398984833
    H           -0.216224844527     1.268923368660    -0.776418591197
    H           -0.186464700640     1.232688445007     0.972027559282
    C            2.329539274002     0.481131972554     0.017492728226
    H            0.936677615881    -0.945558643628    -0.830041757886
    H            0.992542696689    -0.958753322590     0.913298966092
    C            3.614664905000    -0.361141749058     0.110749384864
    H            2.376052938834     1.117391760596    -0.863970548719
    H            2.332607237903     1.175680076521     0.855928312495
    C            3.627838766810    -1.651441933035    -0.707655947682
    H            3.835855974757    -0.568732563207     1.154796150451
    H            4.438808692187     0.265013515145    -0.223211501933
    H            2.898068689860    -2.369459603019    -0.349158224980
    H            4.603697527167    -2.123687439343    -0.654887313707
    H            3.413891659396    -1.455062626950    -1.754796552873

  Mulliken Charges: (a.u.)
   Center  Symbol    Alpha    Beta     Spin     Total
       1     O     4.28392  4.28392  0.00000 -0.56784
       2     C     2.61535  2.61535  0.00000  0.76930
       3     C     3.28774  3.28774  0.00000 -0.57548
       4     O     4.31287  4.31287  0.00000 -0.62574
       5     H     0.39750  0.39750  0.00000  0.20500
       6     H     0.39990  0.39990  0.00000  0.20020
       7     H     0.39750  0.39750  0.00000  0.20499
       8     C     2.99528  2.99528  0.00000  0.00945
       9     C     3.16731  3.16731  0.00000 -0.33463
      10     H     0.41063  0.41063  0.00000  0.17873
      11     H     0.41059  0.41059  0.00000  0.17881
      12     C     3.16319  3.16319  0.00000 -0.32637
      13     H     0.41140  0.41140  0.00000  0.17720
      14     H     0.41454  0.41454  0.00000  0.17093
      15     C     3.15236  3.15236  0.00000 -0.30472
      16     H     0.41970  0.41970  0.00000  0.16060
      17     H     0.41976  0.41976  0.00000  0.16049
      18     C     3.24341  3.24341  0.00000 -0.48682
      19     H     0.42049  0.42049  0.00000  0.15903
      20     H     0.41953  0.41953  0.00000  0.16094
      21     H     0.41842  0.41842  0.00000  0.16316
      22     H     0.41757  0.41757  0.00000  0.16486
      23     H     0.42105  0.42105  0.00000  0.15791

   Total alpha = 36.00000, Total beta = 36.00000, Total charge = -0.00000
