  ==> Input File <==

--------------------------------------------------------------------------
set {
	reference rhf
	basis 6-31G*
}

set_num_threads( 4 )
memory 2 gb

molecule MOL {
0 1

O	 -2.758616	 -0.230731	 0.744189
C	 -1.921153	 0.064240	 -0.045697
C	 -2.173955	 0.374041	 -1.496373
O	 -0.632575	 0.154573	 0.251549
H	 -1.617076	 -0.315350	 -2.120531
H	 -3.230015	 0.292284	 -1.705870
H	 -1.826760	 1.375521	 -1.722757
C	 0.160891	 -1.019931	 0.106212
C	 1.589627	 -0.672828	 0.480843
H	 0.089836	 -1.367806	 -0.916050
H	 -0.238459	 -1.792301	 0.749618
C	 2.246377	 0.346236	 -0.452210
H	 2.163194	 -1.597435	 0.473358
H	 1.604769	 -0.303424	 1.502885
C	 3.691736	 0.652107	 -0.061850
H	 2.219579	 -0.032311	 -1.472055
H	 1.666466	 1.263317	 -0.447249
H	 4.134505	 1.377213	 -0.737283
H	 4.305508	 -0.243868	 -0.089969
H	 3.748266	 1.059562	 0.943567

	symmetry c1
}
set optking {
	frozen_dihedral = ("
		1 2 4 8
	")
}

ee = optimize('scf')
oeprop('DIPOLE', 'QUADRUPOLE', 'MULLIKEN_CHARGES')
f=open( 'psi4out.xyz', 'w' )
f.write( "20  " )
f.write( str(ee) + "\n" )
f.write( MOL.save_string_xyz() )
f.close()
--------------------------------------------------------------------------

    Molecular point group: c1
  Charge       = 0
  Multiplicity = 1
  Basis Set: 6-31G*
  Basis Set:
  @DF-RHF Final Energy:  -383.92469756838972
    Total Energy =                       -383.9246975683895471
    Molecular point group: c1
  Basis Set: 6-31G*
  Basis Set:
  Basis Set: 6-31G*
  Basis Set:
  @DF-RHF Final Energy:  -383.92330117847342
    Total Energy =                       -383.9233011784733662
  Basis Set: 6-31G*
  Basis Set:
  Basis Set: 6-31G*
  Basis Set:
  @DF-RHF Final Energy:  -383.92576092809202
    Total Energy =                       -383.9257609280919041
  Basis Set: 6-31G*
  Basis Set:
  Basis Set: 6-31G*
  Basis Set:
  @DF-RHF Final Energy:  -383.92624801845074
    Total Energy =                       -383.9262480184507922
  Basis Set: 6-31G*
  Basis Set:
  Basis Set: 6-31G*
  Basis Set:
  @DF-RHF Final Energy:  -383.92626379819757
    Total Energy =                       -383.9262637981979651
  Basis Set: 6-31G*
  Basis Set:
  Basis Set: 6-31G*
  Basis Set:
  @DF-RHF Final Energy:  -383.92626905076452
    Total Energy =                       -383.9262690507646312
  Basis Set: 6-31G*
  Basis Set:
  Basis Set: 6-31G*
  Basis Set:
  @DF-RHF Final Energy:  -383.92627070600702
    Total Energy =                       -383.9262707060071307
  Basis Set: 6-31G*
  Basis Set:
  Charge       = 0
  Multiplicity = 1
  Basis Set: 6-31G*
  Basis Set:

    Orbital Energies (a.u.)
    -----------------------

    Doubly Occupied:

       1A    -20.583439     2A    -20.556510     3A    -11.377363
       4A    -11.293541     5A    -11.237407     6A    -11.228028
       7A    -11.222272     8A    -11.214422     9A     -1.458064
      10A     -1.366906    11A     -1.085151    12A     -1.022566
      13A     -0.989396    14A     -0.882514    15A     -0.811241
      16A     -0.777699    17A     -0.694359    18A     -0.685693
      19A     -0.650727    20A     -0.635425    21A     -0.617035
      22A     -0.592527    23A     -0.578449    24A     -0.558875
      25A     -0.547812    26A     -0.532459    27A     -0.496708
      28A     -0.487507    29A     -0.479441    30A     -0.474694
      31A     -0.448588    32A     -0.437085

  @DF-RHF Final Energy:  -383.92627108663868

   => Energetics <=

    Nuclear Repulsion Energy =            384.5008717679165215
    One-Electron Energy =               -1284.8064806174975274
    Two-Electron Energy =                 516.3793377629422139
    DFT Exchange-Correlation Energy =       0.0000000000000000
    Empirical Dispersion Energy =           0.0000000000000000
    PCM Polarization Energy =               0.0000000000000000
    EFP Energy =                            0.0000000000000000
    Total Energy =                       -383.9262710866387351
    Molecular point group: c1
  Basis Set: 6-31G*
  Basis Set:

  -Total Gradient:
     Atom            X                  Y                   Z
    ------   -----------------  -----------------  -----------------
       1       -0.000312520855     0.002842847620     0.000515685915
       2        0.000660111266    -0.003956605953    -0.001795861425
       3        0.000024098430     0.000020133206     0.000003869746
       4       -0.000741785919     0.000570262693     0.003566240354
       5       -0.000032435688    -0.000024273295     0.000002295475
       6        0.000007992832     0.000003060654    -0.000043031238
       7        0.000002324969    -0.000005189978     0.000010567405
       8        0.000416362194     0.000532997742    -0.002261794262
       9       -0.000004420773     0.000021745943    -0.000009251329
      10        0.000012005340    -0.000024349866    -0.000010948667
      11       -0.000033278129     0.000002771868     0.000003454268
      12        0.000008961436    -0.000006142974     0.000016435673
      13       -0.000026651794     0.000004935444    -0.000000193767
      14        0.000015183965     0.000008008225     0.000010474022
      15        0.000004382709     0.000006520523    -0.000008094898
      16        0.000000013335    -0.000002426961    -0.000001441775
      17       -0.000004419405     0.000005452809     0.000001630888
      18        0.000005245951     0.000000804425     0.000000820388
      19        0.000000076904     0.000000345897     0.000000584593
      20       -0.000001246767    -0.000000898024    -0.000001441370

  **** Optimization is complete! (in 8 steps) ****
    Final optimized geometry and variables:
    Molecular point group: c1

    Geometry (in Angstrom), charge = 0, multiplicity = 1:

    O           -2.753367092402    -0.184322923047     0.810136508079
    C           -1.949461834558     0.086941842910    -0.011677692904
    C           -2.274178182753     0.427249134536    -1.442182928037
    O           -0.635097727727     0.199338091100     0.285193081930
    H           -1.704689248053    -0.198273487253    -2.120840778957
    H           -3.331039409829     0.300997162734    -1.624982802775
    H           -1.986537121024     1.455542834861    -1.632869703172
    C            0.155239560236    -0.976290472071     0.179156352626
    C            1.582926416757    -0.633191154681     0.560611244944
    H            0.111820453505    -1.355066465736    -0.839038874564
    H           -0.248895633365    -1.732194166694     0.842704052641
    C            2.249018166335     0.372493214879    -0.379515348250
    H            2.152722826384    -1.560172695541     0.572083453224
    H            1.582917971519    -0.249054472095     1.576453471360
    C            3.689920551366     0.684015660701     0.022840982365
    H            2.234583314580    -0.020551735154    -1.394531037305
    H            1.667949854663     1.288303222596    -0.392760317570
    H            4.140294562524     1.398697609912    -0.658598105057
    H            4.304276876865    -0.212055034876     0.016029561728
    H            3.734178917238     1.107293549805     1.022119489861

  Mulliken Charges: (a.u.)
   Center  Symbol    Alpha    Beta     Spin     Total
       1     O     4.24919  4.24919  0.00000 -0.49837
       2     C     2.62643  2.62643  0.00000  0.74714
       3     C     3.28695  3.28695  0.00000 -0.57390
       4     O     4.31863  4.31863  0.00000 -0.63726
       5     H     0.40702  0.40702  0.00000  0.18597
       6     H     0.39680  0.39680  0.00000  0.20640
       7     H     0.39778  0.39778  0.00000  0.20444
       8     C     3.00314  3.00314  0.00000 -0.00628
       9     C     3.16281  3.16281  0.00000 -0.32562
      10     H     0.42552  0.42552  0.00000  0.14895
      11     H     0.40848  0.40848  0.00000  0.18304
      12     C     3.15532  3.15532  0.00000 -0.31063
      13     H     0.41917  0.41917  0.00000  0.16166
      14     H     0.40901  0.40901  0.00000  0.18198
      15     C     3.24061  3.24061  0.00000 -0.48123
      16     H     0.42557  0.42557  0.00000  0.14885
      17     H     0.40903  0.40903  0.00000  0.18194
      18     H     0.41746  0.41746  0.00000  0.16508
      19     H     0.42204  0.42204  0.00000  0.15593
      20     H     0.41904  0.41904  0.00000  0.16193

   Total alpha = 32.00000, Total beta = 32.00000, Total charge =  0.00000
