  ==> Input File <==

--------------------------------------------------------------------------
set {
	reference rhf
	basis 6-31G*
}

set_num_threads( 1 )
memory 2 gb

molecule MOL {
0 1

H	 -3.420663	 1.227371	 -1.044276
O	 -3.452007	 0.283848	 -0.965577
C	 -3.181085	 -0.079926	 0.364119
C	 -1.765924	 0.277073	 0.805136
H	 -3.327791	 -1.152017	 0.410903
H	 -3.905698	 0.375695	 1.036898
C	 -0.677594	 -0.417312	 -0.014550
H	 -1.637766	 1.358238	 0.744969
H	 -1.659588	 0.017670	 1.857098
C	 0.738335	 -0.034840	 0.421385
H	 -0.814977	 -0.178223	 -1.064632
H	 -0.802730	 -1.495410	 0.071702
C	 0.869236	 0.124775	 1.938446
H	 1.434164	 -0.791093	 0.065969
H	 1.026982	 0.897268	 -0.062827
C	 2.247745	 0.594097	 2.417618
H	 0.624227	 -0.819672	 2.421855
H	 0.123861	 0.840761	 2.278441
C	 3.380197	 -0.404864	 2.172601
H	 2.189853	 0.799904	 3.483724
H	 2.491550	 1.540756	 1.939497
H	 3.158111	 -1.365808	 2.629112
H	 4.311137	 -0.044625	 2.599704
H	 3.552136	 -0.573025	 1.114620

	symmetry c1
}
set optking {
	frozen_dihedral = ("
		20 16 13 17,
		17 13 10 7,
		11 7 4 3,
		1 2 3 5,
		7 4 3 2
	")
}

ee = energy('scf')
oeprop('DIPOLE', 'QUADRUPOLE', 'MULLIKEN_CHARGES')
f=open( 'psi4out.xyz', 'w' )
f.write( "24  " )
f.write( str(ee) + "\n" )
f.write( MOL.save_string_xyz() )
f.close()
--------------------------------------------------------------------------

    Molecular point group: c1

    Geometry (in Angstrom), charge = 0, multiplicity = 1:

       Center              X                  Y                   Z               Mass
    ------------   -----------------  -----------------  -----------------  -----------------
           H         -3.140654048802     1.176639554846    -1.909243481111     1.007825032070
           O         -3.171998048802     0.233116554846    -1.830544481111    15.994914619560
           C         -2.901076048802    -0.130657445154    -0.500848481111    12.000000000000
           C         -1.485915048802     0.226341554846    -0.059831481111    12.000000000000
           H         -3.047782048802    -1.202748445154    -0.454064481111     1.007825032070
           H         -3.625689048802     0.324963554846     0.171930518889     1.007825032070
           C         -0.397585048802    -0.468043445154    -0.879517481111    12.000000000000
           H         -1.357757048802     1.307506554846    -0.119998481111     1.007825032070
           H         -1.379579048802    -0.033061445154     0.992130518889     1.007825032070
           C          1.018343951198    -0.085571445154    -0.443582481111    12.000000000000
           H         -0.534968048802    -0.228954445154    -1.929599481111     1.007825032070
           H         -0.522721048802    -1.546141445154    -0.793265481111     1.007825032070
           C          1.149244951198     0.074043554846     1.073478518889    12.000000000000
           H          1.714172951198    -0.841824445154    -0.798998481111     1.007825032070
           H          1.306990951198     0.846536554846    -0.927794481111     1.007825032070
           C          2.527753951198     0.543365554846     1.552650518889    12.000000000000
           H          0.904235951198    -0.870403445154     1.556887518889     1.007825032070
           H          0.403869951198     0.790029554846     1.413473518889     1.007825032070
           C          3.660205951198    -0.455595445154     1.307633518889    12.000000000000
           H          2.469861951198     0.749172554846     2.618756518889     1.007825032070
           H          2.771558951198     1.490024554846     1.074529518889     1.007825032070
           H          3.438119951198    -1.416539445154     1.764144518889     1.007825032070
           H          4.591145951198    -0.095356445154     1.734736518889     1.007825032070
           H          3.832144951198    -0.623756445154     0.249652518889     1.007825032070

  Charge       = 0
  Multiplicity = 1
  Basis Set: 6-31G*
  Basis Set:

    Orbital Energies (a.u.)
    -----------------------

    Doubly Occupied:

       1A    -20.552854     2A    -11.266944     3A    -11.216075
       4A    -11.214696     5A    -11.212383     6A    -11.211804
       7A    -11.210883     8A    -11.207512     9A     -1.359520
      10A     -1.092326    11A     -1.045754    12A     -0.983362
      13A     -0.916523    14A     -0.855093    15A     -0.810502
      16A     -0.764075    17A     -0.678413    18A     -0.642460
      19A     -0.636990    20A     -0.619416    21A     -0.599063
      22A     -0.583340    23A     -0.555207    24A     -0.549554
      25A     -0.516578    26A     -0.510303    27A     -0.500746
      28A     -0.476876    29A     -0.474741    30A     -0.452162
      31A     -0.451071    32A     -0.436951    33A     -0.424942

  @DF-RHF Final Energy:  -349.24043195812965

   => Energetics <=

    Nuclear Repulsion Energy =            390.8246226959652176
    One-Electron Energy =               -1248.0717455246767713
    Two-Electron Energy =                 508.0066908705826449
    DFT Exchange-Correlation Energy =       0.0000000000000000
    Empirical Dispersion Energy =           0.0000000000000000
    PCM Polarization Energy =               0.0000000000000000
    EFP Energy =                            0.0000000000000000
    Total Energy =                       -349.2404319581289087

  Mulliken Charges: (a.u.)
   Center  Symbol    Alpha    Beta     Spin     Total
       1     H     0.28352  0.28352  0.00000  0.43296
       2     O     4.36886  4.36886  0.00000 -0.73772
       3     C     2.99376  2.99376  0.00000  0.01247
       4     C     3.17797  3.17797  0.00000 -0.35593
       5     H     0.41662  0.41662  0.00000  0.16677
       6     H     0.42850  0.42850  0.00000  0.14300
       7     C     3.15174  3.15174  0.00000 -0.30349
       8     H     0.42834  0.42834  0.00000  0.14332
       9     H     0.41744  0.41744  0.00000  0.16512
      10     C     3.15482  3.15482  0.00000 -0.30965
      11     H     0.40975  0.40975  0.00000  0.18050
      12     H     0.42323  0.42323  0.00000  0.15355
      13     C     3.15992  3.15992  0.00000 -0.31984
      14     H     0.41833  0.41833  0.00000  0.16333
      15     H     0.42463  0.42463  0.00000  0.15073
      16     C     3.15027  3.15027  0.00000 -0.30055
      17     H     0.42492  0.42492  0.00000  0.15017
      18     H     0.41841  0.41841  0.00000  0.16318
      19     C     3.24125  3.24125  0.00000 -0.48251
      20     H     0.42192  0.42192  0.00000  0.15616
      21     H     0.42386  0.42386  0.00000  0.15228
      22     H     0.42250  0.42250  0.00000  0.15500
      23     H     0.41960  0.41960  0.00000  0.16079
      24     H     0.41982  0.41982  0.00000  0.16036

   Total alpha = 33.00000, Total beta = 33.00000, Total charge =  0.00000
