                              Psi4 1.0.54 Driver

  ==> Input File <==

--------------------------------------------------------------------------
set {
	reference rhf
	basis cc-pvtz
}

set_num_threads( 4 )
memory 2 gb

molecule MOL {
0 1

H	 2.828711	 -0.346904	 0.001083
C	 1.876752	 0.015931	 -0.363450
C	 0.776285	 -0.474665	 0.563092
H	 1.728113	 -0.357244	 -1.367440
H	 1.906171	 1.096574	 -0.386153
N	 -0.540022	 0.017605	 0.071630
H	 0.707111	 -1.548969	 0.573035
H	 0.886169	 -0.084184	 1.560432
O	 -0.583064	 1.125702	 -0.346058
O	 -1.461608	 -0.722414	 0.157927

	symmetry c1
}
set optking {
	frozen_dihedral = ("
		9 6 3 2
	")
}

ee,wfn = optimize('scf', return_wfn=True)
oeprop( wfn, 'DIPOLE', 'QUADRUPOLE', 'MULLIKEN_CHARGES')
f=open( 'psi4out.xyz', 'w' )
f.write( "10  " )
f.write( str(ee) + "\n" )
f.write( MOL.save_string_xyz() )
f.close()
--------------------------------------------------------------------------

    Molecular point group: c1
  Charge       = 0
  Multiplicity = 1
  Basis Set: CC-PVTZ
  Basis Set:
  @DF-RHF Final Energy:  -282.81232104994149
    Total Energy =                       -282.8123210499413744
    Molecular point group: c1
  Basis Set: CC-PVTZ
  Basis Set:
  Basis Set: CC-PVTZ
  Basis Set:
  @DF-RHF Final Energy:  -282.81202228214801
    Total Energy =                       -282.8120222821480070
  Basis Set: CC-PVTZ
  Basis Set:
  Basis Set: CC-PVTZ
  Basis Set:
  @DF-RHF Final Energy:  -282.79989978252286
    Total Energy =                       -282.7998997825228571
  Basis Set: CC-PVTZ
  Basis Set:
  Basis Set: CC-PVTZ
  Basis Set:
  @DF-RHF Final Energy:  -282.80973598717662
    Total Energy =                       -282.8097359871767367
  Basis Set: CC-PVTZ
  Basis Set:
  @DF-RHF Final Energy:  -282.80498189956222
    Total Energy =                       -282.8049818995623355
  Basis Set: CC-PVTZ
  Basis Set:
  @DF-RHF Final Energy:  -282.81289054909485
    Total Energy =                       -282.8128905490949592
  Basis Set: CC-PVTZ
  Basis Set:
  Basis Set: CC-PVTZ
  Basis Set:
  @DF-RHF Final Energy:  -282.81302658987613
    Total Energy =                       -282.8130265898760172
  Basis Set: CC-PVTZ
  Basis Set:
  Basis Set: CC-PVTZ
  Basis Set:
  @DF-RHF Final Energy:  -282.81303967051701
    Total Energy =                       -282.8130396705169005
  Basis Set: CC-PVTZ
  Basis Set:
  Charge       = 0
  Multiplicity = 1
  Basis Set: CC-PVTZ
  Basis Set:

    Orbital Energies (a.u.)
    -----------------------

    Doubly Occupied:

       1A    -20.592662     2A    -20.591725     3A    -15.839219
       4A    -11.302764     5A    -11.245798     6A     -1.638419
       7A     -1.422601     8A     -1.124652     9A     -0.967008
      10A     -0.836708    11A     -0.764726    12A     -0.746283
      13A     -0.731695    14A     -0.648201    15A     -0.592146
      16A     -0.563714    17A     -0.540429    18A     -0.489746
      19A     -0.479560    20A     -0.455931

  @DF-RHF Final Energy:  -282.81304007541814

   => Energetics <=

    Nuclear Repulsion Energy =            186.5853782350273207
    One-Electron Energy =                -755.6488641113036238
    Two-Electron Energy =                 286.2504458008581310
    DFT Exchange-Correlation Energy =       0.0000000000000000
    Empirical Dispersion Energy =           0.0000000000000000
    PCM Polarization Energy =               0.0000000000000000
    EFP Energy =                            0.0000000000000000
    Total Energy =                       -282.8130400754182006
    Molecular point group: c1
  Basis Set: CC-PVTZ
  Basis Set:

  -Total Gradient:
     Atom            X                  Y                   Z
    ------   -----------------  -----------------  -----------------
       1       -0.000011703598     0.000005740774    -0.000018549202
       2       -0.000061910064     0.000118208976     0.000095641381
       3        0.000138349662    -0.000212738607    -0.000156303656
       4       -0.000000353729     0.000003515388     0.000017862723
       5       -0.000006135581    -0.000000219531     0.000003612198
       6       -0.000176300393     0.000038765387     0.000338548791
       7        0.000010214974     0.000009026528    -0.000009390213
       8        0.000013681266    -0.000005491775    -0.000009567906
       9        0.000068151772    -0.000110378664    -0.000221118422
      10        0.000026005689     0.000153571523    -0.000040735697

  **** Optimization is complete! (in 9 steps) ****
    Final optimized geometry and variables:
    Molecular point group: c1

    Geometry (in Angstrom), charge = 0, multiplicity = 1:

    H            2.611054063908    -0.021360927141     1.198913952753
    C            1.885250560530     0.243440935915     0.440371996330
    C            0.545971943466    -0.342539598528     0.834537864252
    H            2.221982889890    -0.157613039886    -0.506672421447
    H            1.835575418578     1.318289295185     0.364326399139
    N           -0.520061773177    -0.046293952369    -0.168229631862
    H            0.562147379393    -1.414369395431     0.925410972724
    H            0.176589924414     0.086370054049     1.755535130091
    O           -0.531658013054     1.033262106977    -0.656120581521
    O           -1.303770288648    -0.906496687326    -0.388583122132

  Mulliken Charges: (a.u.)
   Center  Symbol    Alpha    Beta     Spin     Total
       1     H     0.44918  0.44918  0.00000  0.10164
       2     C     3.14068  3.14068  0.00000 -0.28135
       3     C     3.04044  3.04044  0.00000 -0.08087
       4     H     0.44529  0.44529  0.00000  0.10943
       5     H     0.43658  0.43658  0.00000  0.12684
       6     N     3.27752  3.27752  0.00000  0.44496
       7     H     0.43130  0.43130  0.00000  0.13739
       8     H     0.43705  0.43705  0.00000  0.12589
       9     O     4.17232  4.17232  0.00000 -0.34464
      10     O     4.16964  4.16964  0.00000 -0.33929

   Total alpha = 20.00000, Total beta = 20.00000, Total charge =  0.00000

*** Psi4 exiting successfully. Buy a developer a beer!
