                              Psi4 1.0.54 Driver

  ==> Input File <==

--------------------------------------------------------------------------
set {
	reference rhf
	basis cc-pvtz
}

set_num_threads( 4 )
memory 2 gb

molecule MOL {
0 1

H	 -0.562840	 1.123843	 1.249295
C	 0.454130	 1.005428	 0.893051
N	 0.526300	 -0.128137	 0.000000
H	 1.086194	 0.834506	 1.755211
H	 0.754467	 1.948009	 0.430547
C	 -0.247113	 0.037112	 -1.209233
H	 1.477239	 -0.321162	 -0.228290
H	 -0.996493	 -0.743733	 -1.271440
H	 0.397975	 -0.057351	 -2.073512
H	 -0.763794	 0.997171	 -1.271673

	symmetry c1
}
set optking {
	frozen_dihedral = ("
		2 3 6 8
	")
}

ee,wfn = optimize('scf', return_wfn=True)
oeprop( wfn, 'DIPOLE', 'QUADRUPOLE', 'MULLIKEN_CHARGES')
f=open( 'psi4out.xyz', 'w' )
f.write( "10  " )
f.write( str(ee) + "\n" )
f.write( MOL.save_string_xyz() )
f.close()
--------------------------------------------------------------------------

    Molecular point group: c1
  Charge       = 0
  Multiplicity = 1
  Basis Set: CC-PVTZ
  Basis Set:
  @DF-RHF Final Energy:  -134.28747042671432
    Total Energy =                       -134.2874704267143215
    Molecular point group: c1
  Basis Set: CC-PVTZ
  Basis Set:
  Basis Set: CC-PVTZ
  Basis Set:
  @DF-RHF Final Energy:  -134.28802441163322
    Total Energy =                       -134.2880244116331596
  Basis Set: CC-PVTZ
  Basis Set:
  Basis Set: CC-PVTZ
  Basis Set:
  @DF-RHF Final Energy:  -134.28812325975173
    Total Energy =                       -134.2881232597517567
  Basis Set: CC-PVTZ
  Basis Set:
  Basis Set: CC-PVTZ
  Basis Set:
  @DF-RHF Final Energy:  -134.28812650498077
    Total Energy =                       -134.2881265049806245
  Basis Set: CC-PVTZ
  Basis Set:
  Charge       = 0
  Multiplicity = 1
  Basis Set: CC-PVTZ
  Basis Set:

    Orbital Energies (a.u.)
    -----------------------

    Doubly Occupied:

       1A    -15.529271     2A    -11.234414     3A    -11.233938
       4A     -1.196009     5A     -0.948063     6A     -0.855106
       7A     -0.660507     8A     -0.610390     9A     -0.588734
      10A     -0.545601    11A     -0.510034    12A     -0.506335
      13A     -0.358840

  @DF-RHF Final Energy:  -134.28812710163163

   => Energetics <=

    Nuclear Repulsion Energy =             84.4596837986463527
    One-Electron Energy =                -347.9411382495674161
    Two-Electron Energy =                 129.1933273492893477
    DFT Exchange-Correlation Energy =       0.0000000000000000
    Empirical Dispersion Energy =           0.0000000000000000
    PCM Polarization Energy =               0.0000000000000000
    EFP Energy =                            0.0000000000000000
    Total Energy =                       -134.2881271016317442
    Molecular point group: c1
  Basis Set: CC-PVTZ
  Basis Set:

  -Total Gradient:
     Atom            X                  Y                   Z
    ------   -----------------  -----------------  -----------------
       1        0.000004010417    -0.000006929774    -0.000009477671
       2        0.000453870136     0.000274241592    -0.000223120195
       3       -0.000483466239    -0.000490643933     0.000273541799
       4       -0.000002702908     0.000011154273     0.000013429940
       5       -0.000004272737    -0.000020934815    -0.000002304491
       6       -0.000508259817     0.000627355969     0.000273266568
       7        0.000001041745     0.000005954794    -0.000013185770
       8        0.000504422195    -0.000403444438    -0.000338329046
       9        0.000019801201     0.000002991658     0.000023079509
      10        0.000015556007     0.000000254677     0.000003099356

  **** Optimization is complete! (in 5 steps) ****
    Final optimized geometry and variables:
    Molecular point group: c1

    Geometry (in Angstrom), charge = 0, multiplicity = 1:

    H           -0.786422248395     0.795381532279     1.401485972511
    C            0.222610425922     0.672456670567     1.025637625129
    N            0.272306471317    -0.444000413429     0.109258996497
    H            0.863798679334     0.473463231430     1.875326982801
    H            0.529892902745     1.621890238174     0.583006307475
    C           -0.511280807295    -0.282045240640    -1.105719754810
    H            1.217406234633    -0.658483578410    -0.113411681872
    H           -1.267810107834    -1.054371073288    -1.190333743113
    H            0.110792473412    -0.336467653745    -1.993231675670
    H           -1.014030649641     0.679122554727    -1.127400730683

  Mulliken Charges: (a.u.)
   Center  Symbol    Alpha    Beta     Spin     Total
       1     H     0.45637  0.45637  0.00000  0.08727
       2     C     3.08283  3.08283  0.00000 -0.16566
       3     N     3.63349  3.63349  0.00000 -0.26698
       4     H     0.45329  0.45329  0.00000  0.09343
       5     H     0.47415  0.47415  0.00000  0.05171
       6     C     3.07702  3.07702  0.00000 -0.15403
       7     H     0.43991  0.43991  0.00000  0.12018
       8     H     0.45603  0.45603  0.00000  0.08794
       9     H     0.46145  0.46145  0.00000  0.07710
      10     H     0.46547  0.46547  0.00000  0.06906

   Total alpha = 13.00000, Total beta = 13.00000, Total charge = -0.00000

*** Psi4 exiting successfully. Buy a developer a beer!
