  ==> Input File <==

--------------------------------------------------------------------------
set {
	reference rhf
	basis 6-31G*
}

set_num_threads( 1 )
memory 2 gb

molecule MOL {
0 1

O	 -0.388813	 -2.000476	 -1.149351
C	 -1.379341	 -1.624189	 -0.609094
C	 -2.654946	 -2.423953	 -0.542174
O	 -1.481751	 -0.454642	 0.000584
H	 -2.447020	 -3.370713	 -0.058156
H	 -3.431575	 -1.899657	 -0.005144
H	 -2.985003	 -2.637582	 -1.551780
C	 -0.334255	 0.388708	 0.000906
C	 0.891947	 -0.504646	 0.000751
H	 -0.365390	 1.025305	 -0.873475
H	 -0.365484	 1.024911	 0.875569
C	 2.191998	 0.301789	 0.000897
H	 0.855148	 -1.151283	 -0.871571
H	 0.855132	 -1.151660	 0.872805
C	 3.441114	 -0.581407	 0.000108
H	 2.215074	 0.954890	 -0.869742
H	 2.215465	 0.953923	 0.872248
C	 4.739576	 0.224112	 -0.001102
H	 3.419457	 -1.233487	 -0.870178
H	 3.420834	 -1.233096	 0.870717
H	 4.804918	 0.861552	 -0.878265
H	 5.606527	 -0.429058	 -0.001824
H	 4.806469	 0.861674	 0.875853

	symmetry c1
}
set optking {
	frozen_dihedral = ("
		13 9 8 10,
		16 12 9 13,
		19 15 12 16,
		1 2 4 8
	")
}

ee = energy('scf')
oeprop('DIPOLE', 'QUADRUPOLE', 'MULLIKEN_CHARGES')
f=open( 'psi4out.xyz', 'w' )
f.write( "23  " )
f.write( str(ee) + "\n" )
f.write( MOL.save_string_xyz() )
f.close()
--------------------------------------------------------------------------

    Molecular point group: c1

    Geometry (in Angstrom), charge = 0, multiplicity = 1:

       Center              X                  Y                   Z               Mass
    ------------   -----------------  -----------------  -----------------  -----------------
           O         -0.939036513112    -1.251918925698    -0.889576583746    15.994914619560
           C         -1.929564513112    -0.875631925698    -0.349319583746    12.000000000000
           C         -3.205169513112    -1.675395925698    -0.282399583746    12.000000000000
           O         -2.031974513112     0.293915074302     0.260358416254    15.994914619560
           H         -2.997243513112    -2.622155925698     0.201618416254     1.007825032070
           H         -3.981798513112    -1.151099925698     0.254630416254     1.007825032070
           H         -3.535226513112    -1.889024925698    -1.292005583746     1.007825032070
           C         -0.884478513112     1.137265074302     0.260680416254    12.000000000000
           C          0.341723486888     0.243911074302     0.260525416254    12.000000000000
           H         -0.915613513112     1.773862074302    -0.613700583746     1.007825032070
           H         -0.915707513112     1.773468074302     1.135343416254     1.007825032070
           C          1.641774486888     1.050346074302     0.260671416254    12.000000000000
           H          0.304924486888    -0.402725925698    -0.611796583746     1.007825032070
           H          0.304908486888    -0.403102925698     1.132579416254     1.007825032070
           C          2.890890486888     0.167150074302     0.259882416254    12.000000000000
           H          1.664850486888     1.703447074302    -0.609967583746     1.007825032070
           H          1.665241486888     1.702480074302     1.132022416254     1.007825032070
           C          4.189352486888     0.972669074302     0.258672416254    12.000000000000
           H          2.869233486888    -0.484929925698    -0.610403583746     1.007825032070
           H          2.870610486888    -0.484538925698     1.130491416254     1.007825032070
           H          4.254694486888     1.610109074302    -0.618490583746     1.007825032070
           H          5.056303486888     0.319499074302     0.257950416254     1.007825032070
           H          4.256245486888     1.610231074302     1.135627416254     1.007825032070

  Charge       = 0
  Multiplicity = 1
  Basis Set: 6-31G*
  Basis Set:

    Orbital Energies (a.u.)
    -----------------------

    Doubly Occupied:

       1A    -20.607680     2A    -20.540864     3A    -11.385310
       4A    -11.281337     5A    -11.237030     6A    -11.207817
       7A    -11.204116     8A    -11.202723     9A    -11.183160
      10A     -1.479761    11A     -1.373286    12A     -1.080860
      13A     -1.040297    14A     -0.994699    15A     -0.926466
      16A     -0.850464    17A     -0.791938    18A     -0.769323
      19A     -0.709511    20A     -0.691608    21A     -0.662405
      22A     -0.633096    23A     -0.604442    24A     -0.589011
      25A     -0.576341    26A     -0.563500    27A     -0.556385
      28A     -0.531717    29A     -0.526317    30A     -0.521806
      31A     -0.495385    32A     -0.469556    33A     -0.460267
      34A     -0.451870    35A     -0.436122    36A     -0.379864

  @DF-RHF Final Energy:  -422.92171007805058

   => Energetics <=

    Nuclear Repulsion Energy =            471.1853590858145822
    One-Electron Energy =               -1510.1812374080825521
    Two-Electron Energy =                 616.0741682442162528
    DFT Exchange-Correlation Energy =       0.0000000000000000
    Empirical Dispersion Energy =           0.0000000000000000
    PCM Polarization Energy =               0.0000000000000000
    EFP Energy =                            0.0000000000000000
    Total Energy =                       -422.9217100780517740

  Mulliken Charges: (a.u.)
   Center  Symbol    Alpha    Beta     Spin     Total
       1     O     4.29330  4.29330  0.00000 -0.58661
       2     C     2.60243  2.60243  0.00000  0.79513
       3     C     3.28736  3.28736  0.00000 -0.57472
       4     O     4.31450  4.31450  0.00000 -0.62899
       5     H     0.39693  0.39693  0.00000  0.20614
       6     H     0.39790  0.39790  0.00000  0.20421
       7     H     0.39668  0.39668  0.00000  0.20665
       8     C     2.99449  2.99449  0.00000  0.01102
       9     C     3.20679  3.20679  0.00000 -0.41358
      10     H     0.41504  0.41504  0.00000  0.16991
      11     H     0.40888  0.40888  0.00000  0.18224
      12     C     3.15228  3.15228  0.00000 -0.30455
      13     H     0.34821  0.34821  0.00000  0.30358
      14     H     0.42519  0.42519  0.00000  0.14961
      15     C     3.14923  3.14923  0.00000 -0.29847
      16     H     0.42798  0.42798  0.00000  0.14403
      17     H     0.43294  0.43294  0.00000  0.13411
      18     C     3.23886  3.23886  0.00000 -0.47772
      19     H     0.42083  0.42083  0.00000  0.15834
      20     H     0.42390  0.42390  0.00000  0.15220
      21     H     0.42284  0.42284  0.00000  0.15432
      22     H     0.42043  0.42043  0.00000  0.15914
      23     H     0.42301  0.42301  0.00000  0.15398

   Total alpha = 36.00000, Total beta = 36.00000, Total charge =  0.00000
