                              Psi4 1.0.54 Driver

  ==> Input File <==

--------------------------------------------------------------------------
set {
	reference rhf
	basis cc-pvtz
}

set_num_threads( 4 )
memory 2 gb

molecule MOL {
0 1

H	 1.502586	 1.314026	 -0.107625
C	 0.848385	 0.440008	 0.000011
C	 -0.623497	 0.751021	 0.000090
O	 1.314196	 -0.641359	 0.104463
C	 -1.523725	 -0.474323	 -0.000013
H	 -0.813143	 1.382932	 -0.864897
H	 -0.813071	 1.382716	 0.865253
H	 -1.342980	 -1.087348	 -0.873016
H	 -2.565269	 -0.177464	 0.000070
H	 -1.342898	 -1.087564	 0.872820

	symmetry c1
}
set optking {
	frozen_dihedral = ("
		4 2 3 6
	")
}

ee,wfn = optimize('scf', return_wfn=True)
oeprop( wfn, 'DIPOLE', 'QUADRUPOLE', 'MULLIKEN_CHARGES')
f=open( 'psi4out.xyz', 'w' )
f.write( "10  " )
f.write( str(ee) + "\n" )
f.write( MOL.save_string_xyz() )
f.close()
--------------------------------------------------------------------------

    Molecular point group: c1
  Charge       = 0
  Multiplicity = 1
  Basis Set: CC-PVTZ
  Basis Set:
  @DF-RHF Final Energy:  -192.02475487256186
    Total Energy =                       -192.0247548725620561
    Molecular point group: c1
  Basis Set: CC-PVTZ
  Basis Set:
  Basis Set: CC-PVTZ
  Basis Set:
  @DF-RHF Final Energy:  -192.02449781033283
    Total Energy =                       -192.0244978103328322
  Basis Set: CC-PVTZ
  Basis Set:
  Basis Set: CC-PVTZ
  Basis Set:
  @DF-RHF Final Energy:  -192.02477543969832
    Total Energy =                       -192.0247754396983169
  Basis Set: CC-PVTZ
  Basis Set:
  Charge       = 0
  Multiplicity = 1
  Basis Set: CC-PVTZ
  Basis Set:

    Orbital Energies (a.u.)
    -----------------------

    Doubly Occupied:

       1A    -20.553656     2A    -11.323380     3A    -11.239777
       4A    -11.218173     5A     -1.409218     6A     -1.061935
       7A     -0.911840     8A     -0.774100     9A     -0.685983
      10A     -0.636844    11A     -0.633623    12A     -0.544174
      13A     -0.535629    14A     -0.520406    15A     -0.495376
      16A     -0.416992

  @DF-RHF Final Energy:  -192.02478018794631

   => Energetics <=

    Nuclear Repulsion Energy =            119.3683602353929558
    One-Electron Energy =                -496.8640694458846951
    Two-Electron Energy =                 185.4709290225454765
    DFT Exchange-Correlation Energy =       0.0000000000000000
    Empirical Dispersion Energy =           0.0000000000000000
    PCM Polarization Energy =               0.0000000000000000
    EFP Energy =                            0.0000000000000000
    Total Energy =                       -192.0247801879462486
    Molecular point group: c1
  Basis Set: CC-PVTZ
  Basis Set:

  -Total Gradient:
     Atom            X                  Y                   Z
    ------   -----------------  -----------------  -----------------
       1        0.000022571296     0.000067058279     0.000002884003
       2        0.000013175960    -0.000112739058    -0.000959368162
       3       -0.000111874178    -0.000591985563    -0.000092068553
       4       -0.000062340079     0.000152530356     0.000712258780
       5       -0.000009761359    -0.000028936031    -0.000032125064
       6        0.000116865504     0.000514893265     0.000386956080
       7        0.000030335372    -0.000006819098    -0.000011341537
       8       -0.000007781270    -0.000020822066    -0.000009742166
       9       -0.000001418082     0.000001440833     0.000004516875
      10        0.000010226837     0.000025379082    -0.000001970256

  **** Optimization is complete! (in 4 steps) ****
    Final optimized geometry and variables:
    Molecular point group: c1

    Geometry (in Angstrom), charge = 0, multiplicity = 1:

    H            1.503223538471     1.316020957327    -0.095108472055
    C            0.848226767254     0.439387217982    -0.017106922140
    C           -0.623843860926     0.748796049706    -0.036499163483
    O            1.313385648689    -0.642248569224     0.087050781491
    C           -1.523677847992    -0.476651237164    -0.038794462630
    H           -0.809318523215     1.386119500326    -0.897670423840
    H           -0.817203189012     1.377994083880     0.830417842798
    H           -1.339791895724    -1.090705654031    -0.910795814672
    H           -2.565267777155    -0.180096046357    -0.043394221109
    H           -1.345543218566    -1.088471969675     0.835189513738

  Mulliken Charges: (a.u.)
   Center  Symbol    Alpha    Beta     Spin     Total
       1     H     0.45360  0.45360  0.00000  0.09280
       2     C     2.91607  2.91607  0.00000  0.16785
       3     C     3.08378  3.08378  0.00000 -0.16755
       4     O     4.16474  4.16474  0.00000 -0.32947
       5     C     3.14055  3.14055  0.00000 -0.28111
       6     H     0.44847  0.44847  0.00000  0.10305
       7     H     0.44842  0.44842  0.00000  0.10317
       8     H     0.44843  0.44843  0.00000  0.10314
       9     H     0.44944  0.44944  0.00000  0.10112
      10     H     0.44650  0.44650  0.00000  0.10699

   Total alpha = 16.00000, Total beta = 16.00000, Total charge = -0.00000

*** Psi4 exiting successfully. Buy a developer a beer!
