  ==> Input File <==

--------------------------------------------------------------------------
set {
	reference rhf
	basis 6-31G*
}

set_num_threads( 4 )
memory 2 gb

molecule MOL {
0 1

O	 1.361707	 2.141489	 -0.024529
C	 0.272263	 2.612548	 -0.090364
C	 -1.021903	 1.836017	 -0.090804
O	 0.049305	 3.918340	 -0.169948
C	 -0.823008	 0.326187	 0.001381
H	 -1.622374	 2.205291	 0.736110
H	 -1.563114	 2.107514	 -0.993079
C	 -2.149452	 -0.435131	 -0.000098
H	 -0.264985	 0.093422	 0.902835
H	 -0.206662	 -0.004675	 -0.828653
C	 -3.368779	 0.488503	 -0.000883
H	 -2.193746	 -1.087250	 -0.871175
H	 -2.195311	 -1.087803	 0.870418
C	 -4.693822	 -0.272754	 -0.001129
H	 -3.325798	 1.139422	 -0.871284
H	 -3.326423	 1.139959	 0.869145
H	 -4.781274	 -0.907928	 -0.878124
H	 -5.538651	 0.408946	 -0.001420
H	 -4.781694	 -0.907783	 0.875984
C	 1.184348	 4.764855	 -0.176710
H	 1.755229	 4.642322	 0.732470
H	 0.801585	 5.771172	 -0.245220
H	 1.816593	 4.546098	 -1.025190

	symmetry c1
}
set optking {
	frozen_dihedral = ("
		9 5 8 12
	")
}

ee = optimize('scf')
oeprop('DIPOLE', 'QUADRUPOLE', 'MULLIKEN_CHARGES')
f=open( 'psi4out.xyz', 'w' )
f.write( "23  " )
f.write( str(ee) + "\n" )
f.write( MOL.save_string_xyz() )
f.close()
--------------------------------------------------------------------------

    Molecular point group: c1
  Charge       = 0
  Multiplicity = 1
  Basis Set: 6-31G*
  Basis Set:
  @DF-RHF Final Energy:  -422.96091741444133
    Total Energy =                       -422.9609174144417238
    Molecular point group: c1
  Basis Set: 6-31G*
  Basis Set:
  Basis Set: 6-31G*
  Basis Set:
  @DF-RHF Final Energy:  -422.96070596901467
    Total Energy =                       -422.9607059690143842
  Basis Set: 6-31G*
  Basis Set:
  Basis Set: 6-31G*
  Basis Set:
  @DF-RHF Final Energy:  -422.96551413943405
    Total Energy =                       -422.9655141394339353
  Basis Set: 6-31G*
  Basis Set:
  Basis Set: 6-31G*
  Basis Set:
  @DF-RHF Final Energy:  -422.96629706740458
    Total Energy =                       -422.9662970674044118
  Basis Set: 6-31G*
  Basis Set:
  @DF-RHF Final Energy:  -422.96629574290603
    Total Energy =                       -422.9662957429065955
  Basis Set: 6-31G*
  Basis Set:
  @DF-RHF Final Energy:  -422.96488238990770
    Total Energy =                       -422.9648823899074159
  Basis Set: 6-31G*
  Basis Set:
  Basis Set: 6-31G*
  Basis Set:
  @DF-RHF Final Energy:  -422.96643960781063
    Total Energy =                       -422.9664396078098889
  Basis Set: 6-31G*
  Basis Set:
  Basis Set: 6-31G*
  Basis Set:
  @DF-RHF Final Energy:  -422.96644338501784
    Total Energy =                       -422.9664433850175556
  Basis Set: 6-31G*
  Basis Set:
  Charge       = 0
  Multiplicity = 1
  Basis Set: 6-31G*
  Basis Set:

    Orbital Energies (a.u.)
    -----------------------

    Doubly Occupied:

       1A    -20.603340     2A    -20.545311     3A    -11.372043
       4A    -11.280685     5A    -11.235174     6A    -11.219736
       7A    -11.219264     8A    -11.217876     9A    -11.211313
      10A     -1.469111    11A     -1.362580    12A     -1.090149
      13A     -1.042049    14A     -0.985941    15A     -0.932672
      16A     -0.854210    17A     -0.792538    18A     -0.758868
      19A     -0.698913    20A     -0.683362    21A     -0.670561
      22A     -0.648965    23A     -0.608506    24A     -0.601268
      25A     -0.577975    26A     -0.559260    27A     -0.550083
      28A     -0.524699    29A     -0.522344    30A     -0.512601
      31A     -0.496030    32A     -0.467153    33A     -0.457836
      34A     -0.457365    35A     -0.448647    36A     -0.437697

  @DF-RHF Final Energy:  -422.96644335299936

   => Energetics <=

    Nuclear Repulsion Energy =            458.0291028272812355
    One-Electron Energy =               -1483.7588329383747805
    Two-Electron Energy =                 602.7632867580942957
    DFT Exchange-Correlation Energy =       0.0000000000000000
    Empirical Dispersion Energy =           0.0000000000000000
    PCM Polarization Energy =               0.0000000000000000
    EFP Energy =                            0.0000000000000000
    Total Energy =                       -422.9664433529991356
    Molecular point group: c1
  Basis Set: 6-31G*
  Basis Set:

  -Total Gradient:
     Atom            X                  Y                   Z
    ------   -----------------  -----------------  -----------------
       1        0.000000373388     0.000008600227    -0.000006661988
       2       -0.000008666155    -0.000005405875     0.000022245217
       3        0.000003656195     0.000002876366    -0.000016671390
       4        0.000013477337     0.000002908350    -0.000013907455
       5       -0.001140646320     0.001812462139     0.001658607088
       6        0.000021305587     0.000004614711    -0.000004190013
       7       -0.000011425638    -0.000000039525     0.000002449862
       8       -0.000999892303     0.001708080687    -0.001801632607
       9        0.001111274854    -0.001798093752    -0.001137147434
      10        0.000001372581     0.000004262192     0.000006061950
      11       -0.000007071427    -0.000008712955     0.000056912377
      12        0.001027864500    -0.001752802365     0.001261103165
      13        0.000005901123     0.000010742931     0.000001729591
      14       -0.000004861970     0.000006759166    -0.000022773058
      15        0.000015920791     0.000016097592    -0.000001798058
      16       -0.000029104529    -0.000024097504    -0.000003707971
      17       -0.000000134968    -0.000005719817     0.000001435307
      18       -0.000005874407    -0.000000759588    -0.000007887509
      19        0.000004009495     0.000008773669    -0.000001904741
      20        0.000000159615     0.000007432402     0.000015618920
      21        0.000002309780     0.000003097006    -0.000002931136
      22        0.000001519514     0.000000846344    -0.000002636395
      23       -0.000001467044    -0.000001922395    -0.000002313723

  **** Optimization is complete! (in 9 steps) ****
    Final optimized geometry and variables:
    Molecular point group: c1

    Geometry (in Angstrom), charge = 0, multiplicity = 1:

    O            2.376782458454     0.373034443783     0.078740912444
    C            1.319501176643     0.906186727284    -0.025912373567
    C           -0.021433658300     0.211988337239    -0.053586179668
    O            1.178271758793     2.221522052600    -0.135328437917
    C            0.102172587622    -1.306070262854     0.069449596969
    H           -0.616549366031     0.640613039211     0.745841915154
    H           -0.510354695755     0.504268453738    -0.977513336485
    C           -1.225339731682    -2.112759183645     0.042018205800
    H            0.650907969392    -1.538209449839     0.974667755622
    H            0.741206038309    -1.651969751505    -0.735088978326
    C           -2.541124318817    -1.328501789233     0.089805645355
    H           -1.232291595297    -2.749733168087    -0.838455544240
    H           -1.220881566360    -2.800511812982     0.883738541386
    C           -3.757516748682    -2.254175331540     0.067689365050
    H           -2.603920780785    -0.643557550286    -0.751353651769
    H           -2.578456644863    -0.717648417799     0.988283080031
    H           -3.773328822350    -2.859109313129    -0.834449630391
    H           -4.682597712802    -1.687151692201     0.102142113237
    H           -3.751612782370    -2.930312037338     0.917840984030
    C            2.362130415822     2.998155415866    -0.123314510220
    H            2.898109887078     2.859918149362     0.804663228579
    H            2.043057527591     4.024093443230    -0.221540800849
    H            3.004271425002     2.725113075569    -0.948324319547

  Mulliken Charges: (a.u.)
   Center  Symbol    Alpha    Beta     Spin     Total
       1     O     4.28590  4.28590  0.00000 -0.57180
       2     C     2.60449  2.60449  0.00000  0.79102
       3     C     3.21087  3.21087  0.00000 -0.42175
       4     O     4.30773  4.30773  0.00000 -0.61546
       5     C     3.15822  3.15822  0.00000 -0.31643
       6     H     0.39934  0.39934  0.00000  0.20131
       7     H     0.39990  0.39990  0.00000  0.20021
       8     C     3.15659  3.15659  0.00000 -0.31317
       9     H     0.40900  0.40900  0.00000  0.18201
      10     H     0.40934  0.40934  0.00000  0.18132
      11     C     3.15624  3.15624  0.00000 -0.31247
      12     H     0.41956  0.41956  0.00000  0.16088
      13     H     0.41926  0.41926  0.00000  0.16148
      14     C     3.23909  3.23909  0.00000 -0.47818
      15     H     0.42241  0.42241  0.00000  0.15519
      16     H     0.42252  0.42252  0.00000  0.15496
      17     H     0.42097  0.42097  0.00000  0.15805
      18     H     0.41859  0.41859  0.00000  0.16282
      19     H     0.42090  0.42090  0.00000  0.15820
      20     C     3.09233  3.09233  0.00000 -0.18467
      21     H     0.40914  0.40914  0.00000  0.18173
      22     H     0.40849  0.40849  0.00000  0.18303
      23     H     0.40913  0.40913  0.00000  0.18173

   Total alpha = 36.00000, Total beta = 36.00000, Total charge =  0.00000
