  ==> Input File <==

--------------------------------------------------------------------------
set {
	reference rhf
	basis 6-31G*
}

set_num_threads( 4 )
memory 2 gb

molecule MOL {
0 1

H	 2.652209	 0.763231	 0.000000
O	 2.263154	 -0.100023	 0.000000
C	 0.912879	 -0.015685	 0.000000
C	 0.300862	 0.444974	 -1.158365
C	 0.146169	 -0.368416	 1.098554
H	 0.913680	 0.713186	 -1.998797
C	 -1.075703	 0.548597	 -1.206745
H	 0.621659	 -0.725677	 1.996772
C	 -1.235396	 -0.259353	 1.036114
H	 -1.544900	 0.905888	 -2.106124
C	 -1.855221	 0.198067	 -0.112033
H	 -1.823319	 -0.535260	 1.893384
H	 -2.925638	 0.281368	 -0.157122

	symmetry c1
}
set optking {
	frozen_dihedral = ("
		4 3 2 1
	")
}

ee = optimize('scf')
oeprop('DIPOLE', 'QUADRUPOLE', 'MULLIKEN_CHARGES')
f=open( 'psi4out.xyz', 'w' )
f.write( "13  " )
f.write( str(ee) + "\n" )
f.write( MOL.save_string_xyz() )
f.close()
--------------------------------------------------------------------------

    Molecular point group: c1
  Charge       = 0
  Multiplicity = 1
  Basis Set: 6-31G*
  Basis Set:
  @DF-RHF Final Energy:  -305.55262137476325
    Total Energy =                       -305.5526213747629640
    Molecular point group: c1
  Basis Set: 6-31G*
  Basis Set:
  Basis Set: 6-31G*
  Basis Set:
  @DF-RHF Final Energy:  -305.55381042268152
    Total Energy =                       -305.5538104226818064
  Basis Set: 6-31G*
  Basis Set:
  Basis Set: 6-31G*
  Basis Set:
  @DF-RHF Final Energy:  -305.55388785012678
    Total Energy =                       -305.5538878501268414
  Basis Set: 6-31G*
  Basis Set:
  Basis Set: 6-31G*
  Basis Set:
  @DF-RHF Final Energy:  -305.55389629286589
    Total Energy =                       -305.5538962928661704
  Basis Set: 6-31G*
  Basis Set:
  Charge       = 0
  Multiplicity = 1
  Basis Set: 6-31G*
  Basis Set:

    Orbital Energies (a.u.)
    -----------------------

    Doubly Occupied:

       1A    -20.577941     2A    -11.289550     3A    -11.235057
       4A    -11.234237     5A    -11.227549     6A    -11.227105
       7A    -11.225379     8A     -1.393086     9A     -1.147497
      10A     -1.017951    11A     -1.003536    12A     -0.836362
      13A     -0.822985    14A     -0.732232    15A     -0.680183
      16A     -0.645584    17A     -0.626241    18A     -0.591555
      19A     -0.588479    20A     -0.524282    21A     -0.513475
      22A     -0.491897    23A     -0.467889    24A     -0.336631
      25A     -0.322244

  @DF-RHF Final Energy:  -305.55389781885350

   => Energetics <=

    Nuclear Repulsion Energy =            272.6809689968543466
    One-Electron Energy =                -954.9518782447414651
    Two-Electron Energy =                 376.7170114290339029
    DFT Exchange-Correlation Energy =       0.0000000000000000
    Empirical Dispersion Energy =           0.0000000000000000
    PCM Polarization Energy =               0.0000000000000000
    EFP Energy =                            0.0000000000000000
    Total Energy =                       -305.5538978188532724
    Molecular point group: c1
  Basis Set: 6-31G*
  Basis Set:

  -Total Gradient:
     Atom            X                  Y                   Z
    ------   -----------------  -----------------  -----------------
       1       -0.000058826242     0.000053422652     0.001488606570
       2        0.000158444581    -0.000597520091    -0.002041087942
       3       -0.000119322330     0.001504958407     0.001085424687
       4       -0.000047315761    -0.001007754765    -0.000442461507
       5        0.000167329833    -0.000002301181    -0.000032423170
       6       -0.000043592469    -0.000009914810     0.000021681341
       7        0.000051104986     0.000041092036    -0.000007465387
       8        0.000048223076    -0.000001096961    -0.000014499219
       9       -0.000132670300     0.000077287414    -0.000064692455
      10       -0.000048519504    -0.000008187997     0.000000991347
      11        0.000008273186    -0.000067609410     0.000080313408
      12        0.000019028427     0.000001615048    -0.000016665564
      13       -0.000002157490     0.000016009659    -0.000057722106

  **** Optimization is complete! (in 5 steps) ****
    Final optimized geometry and variables:
    Molecular point group: c1

    Geometry (in Angstrom), charge = 0, multiplicity = 1:

    H            2.683578723526     0.654112841457     0.082381161001
    O            2.266255623987    -0.196680763095     0.091783857054
    C            0.905217869089    -0.057561194205     0.036481573649
    C            0.287885690447     0.386751840555    -1.121947039642
    C            0.148033922426    -0.422763211806     1.136085599551
    H            0.889206904792     0.643927877117    -1.975586888929
    C           -1.093011298778     0.484126918811    -1.169228201437
    H            0.648009370410    -0.776927271889     2.018640062318
    C           -1.233512496143    -0.331917792277     1.077757408773
    H           -1.570430969049     0.831911350086    -2.067985460665
    C           -1.858898770433     0.125176971225    -0.071178252889
    H           -1.820332266351    -0.616955120070     1.932691324930
    H           -2.930737881650     0.196760522440    -0.112907553268

  Mulliken Charges: (a.u.)
   Center  Symbol    Alpha    Beta     Spin     Total
       1     H     0.27173  0.27173  0.00000  0.45654
       2     O     4.38685  4.38685  0.00000 -0.77370
       3     C     2.81720  2.81720  0.00000  0.36560
       4     C     3.12290  3.12290  0.00000 -0.24580
       5     C     3.11709  3.11709  0.00000 -0.23419
       6     H     0.39688  0.39688  0.00000  0.20624
       7     C     3.09615  3.09615  0.00000 -0.19231
       8     H     0.39283  0.39283  0.00000  0.21434
       9     C     3.09643  3.09643  0.00000 -0.19285
      10     H     0.39816  0.39816  0.00000  0.20368
      11     C     3.10614  3.10614  0.00000 -0.21227
      12     H     0.39801  0.39801  0.00000  0.20398
      13     H     0.39963  0.39963  0.00000  0.20073

   Total alpha = 25.00000, Total beta = 25.00000, Total charge =  0.00000
