                              Psi4 1.0.54 Driver

  ==> Input File <==

--------------------------------------------------------------------------
set {
	reference rhf
	basis cc-pvtz
}

set_num_threads( 4 )
memory 2 gb

molecule MOL {
0 1

O	 -2.081319	 -0.951530	 -0.502732
N	 -1.613558	 0.006676	 0.014756
C	 -0.329345	 -0.171618	 0.743966
O	 -2.068523	 1.100482	 -0.024385
C	 0.739424	 -0.673242	 -0.218943
H	 -0.527648	 -0.882945	 1.528254
H	 -0.080643	 0.793987	 1.151379
C	 2.077791	 -0.869047	 0.488588
H	 0.409658	 -1.609458	 -0.654043
H	 0.848344	 0.041072	 -1.026798
C	 3.167942	 -1.364302	 -0.455220
H	 1.955444	 -1.577176	 1.302849
H	 2.388522	 0.068963	 0.939133
H	 2.899780	 -2.318139	 -0.895653
H	 3.334443	 -0.660780	 -1.263335
H	 4.105924	 -1.493611	 0.070738

	symmetry c1
}
set optking {
	frozen_dihedral = ("
		5 3 2 1
	")
}

ee,wfn = optimize('scf', return_wfn=True)
oeprop( wfn, 'DIPOLE', 'QUADRUPOLE', 'MULLIKEN_CHARGES')
f=open( 'psi4out.xyz', 'w' )
f.write( "16  " )
f.write( str(ee) + "\n" )
f.write( MOL.save_string_xyz() )
f.close()
--------------------------------------------------------------------------

    Molecular point group: c1
  Charge       = 0
  Multiplicity = 1
  Basis Set: CC-PVTZ
  Basis Set:
  @DF-RHF Final Energy:  -360.90901905822295
    Total Energy =                       -360.9090190582229525
    Molecular point group: c1
  Basis Set: CC-PVTZ
  Basis Set:
  Basis Set: CC-PVTZ
  Basis Set:
  @DF-RHF Final Energy:  -360.90361781313146
    Total Energy =                       -360.9036178131316888
  Basis Set: CC-PVTZ
  Basis Set:
  Basis Set: CC-PVTZ
  Basis Set:
  @DF-RHF Final Energy:  -360.90889390591076
    Total Energy =                       -360.9088939059106451
  Basis Set: CC-PVTZ
  Basis Set:
  Basis Set: CC-PVTZ
  Basis Set:
  @DF-RHF Final Energy:  -360.90912287776018
    Total Energy =                       -360.9091228777601827
  Basis Set: CC-PVTZ
  Basis Set:
  @DF-RHF Final Energy:  -360.90852321441366
    Total Energy =                       -360.9085232144137763
  Basis Set: CC-PVTZ
  Basis Set:
  @DF-RHF Final Energy:  -360.90922555541675
    Total Energy =                       -360.9092255554165263
  Basis Set: CC-PVTZ
  Basis Set:
  Basis Set: CC-PVTZ
  Basis Set:
  @DF-RHF Final Energy:  -360.90922745509118
    Total Energy =                       -360.9092274550914681
  Basis Set: CC-PVTZ
  Basis Set:
  Basis Set: CC-PVTZ
  Basis Set:
  @DF-RHF Final Energy:  -360.90922857229998
    Total Energy =                       -360.9092285723000373
  Basis Set: CC-PVTZ
  Basis Set:
  Charge       = 0
  Multiplicity = 1
  Basis Set: CC-PVTZ
  Basis Set:

    Orbital Energies (a.u.)
    -----------------------

    Doubly Occupied:

       1A    -20.591844     2A    -20.588293     3A    -15.836720
       4A    -11.296762     5A    -11.248361     6A    -11.241119
       7A    -11.225322     8A     -1.635705     9A     -1.419886
      10A     -1.135625    11A     -1.059659    12A     -0.948829
      13A     -0.843484    14A     -0.826964    15A     -0.758866
      16A     -0.740755    17A     -0.728985    18A     -0.676391
      19A     -0.615446    20A     -0.606706    21A     -0.567091
      22A     -0.540251    23A     -0.517828    24A     -0.503507
      25A     -0.495850    26A     -0.486345    27A     -0.469656
      28A     -0.453070

  @DF-RHF Final Energy:  -360.90922861174579

   => Energetics <=

    Nuclear Repulsion Energy =            312.7830970551570999
    One-Electron Energy =               -1111.2660013364397855
    Two-Electron Energy =                 437.5736756695372378
    DFT Exchange-Correlation Energy =       0.0000000000000000
    Empirical Dispersion Energy =           0.0000000000000000
    PCM Polarization Energy =               0.0000000000000000
    EFP Energy =                            0.0000000000000000
    Total Energy =                       -360.9092286117454478
    Molecular point group: c1
  Basis Set: CC-PVTZ
  Basis Set:

  -Total Gradient:
     Atom            X                  Y                   Z
    ------   -----------------  -----------------  -----------------
       1        0.000279862551     0.000090505608    -0.000456865480
       2       -0.000425131616    -0.000268930242     0.000642137987
       3        0.000249645617     0.000568803687    -0.000286884716
       4        0.000019365538    -0.000001747696     0.000014244629
       5       -0.000111853238    -0.000375533938     0.000081908699
       6       -0.000000899733    -0.000001108753    -0.000002497130
       7       -0.000007838211     0.000002395614     0.000004021298
       8       -0.000003683601    -0.000012874988     0.000006328637
       9        0.000001712341     0.000000481943     0.000002315013
      10       -0.000001034421    -0.000004608135    -0.000004415827
      11        0.000001707643     0.000007554832    -0.000003382446
      12        0.000002469361    -0.000004315210     0.000004415374
      13       -0.000003543499    -0.000003132420    -0.000001380154
      14       -0.000000182614    -0.000000320854     0.000003310576
      15       -0.000000050662    -0.000000816615    -0.000003236513
      16       -0.000000545451     0.000003647170    -0.000000019949

  **** Optimization is complete! (in 9 steps) ****
    Final optimized geometry and variables:
    Molecular point group: c1

    Geometry (in Angstrom), charge = 0, multiplicity = 1:

    O           -2.046194413032    -0.534993664822    -0.491182981971
    N           -1.563809582516     0.421637076228     0.017053192292
    C           -0.265241704255     0.232908724178     0.722646241063
    O           -2.029693390038     1.510615167678     0.008518660291
    C            0.805156892939    -0.275609294201    -0.230853975372
    H           -0.468369394546    -0.483748197026     1.504771393850
    H           -0.020485232207     1.189833557551     1.149413660840
    C            2.142059236368    -0.454067399759     0.484683398496
    H            0.481185920201    -1.214554439536    -0.658779512884
    H            0.916967570442     0.430144710277    -1.047638482511
    C            3.237694049608    -0.959384222325    -0.447401226969
    H            2.019203111251    -1.151182134107     1.308628080395
    H            2.448914474999     0.490676927591     0.923684437071
    H            2.973664878559    -1.919670157806    -0.876058368468
    H            3.405986708220    -0.266581422531    -1.264435832432
    H            4.173868897123    -1.078958620240     0.084105958289

  Mulliken Charges: (a.u.)
   Center  Symbol    Alpha    Beta     Spin     Total
       1     O     4.17460  4.17460  0.00000 -0.34920
       2     N     3.27655  3.27655  0.00000  0.44690
       3     C     3.04186  3.04186  0.00000 -0.08372
       4     O     4.16934  4.16934  0.00000 -0.33868
       5     C     3.10102  3.10102  0.00000 -0.20204
       6     H     0.43642  0.43642  0.00000  0.12717
       7     H     0.43202  0.43202  0.00000  0.13597
       8     C     3.09373  3.09373  0.00000 -0.18746
       9     H     0.43305  0.43305  0.00000  0.13390
      10     H     0.44291  0.44291  0.00000  0.11418
      11     C     3.14811  3.14811  0.00000 -0.29621
      12     H     0.45095  0.45095  0.00000  0.09811
      13     H     0.45051  0.45051  0.00000  0.09899
      14     H     0.45152  0.45152  0.00000  0.09696
      15     H     0.45207  0.45207  0.00000  0.09586
      16     H     0.44535  0.44535  0.00000  0.10930

   Total alpha = 28.00000, Total beta = 28.00000, Total charge = -0.00000

*** Psi4 exiting successfully. Buy a developer a beer!
