  ==> Input File <==

--------------------------------------------------------------------------
set {
	reference rhf
	basis 6-31G*
}

set_num_threads( 1 )
memory 2 gb

molecule MOL {
0 1

H	 -2.796798	 -2.009327	 0.940646
C	 -3.044516	 -1.328810	 0.116538
C	 -2.742809	 0.124901	 0.377898
O	 -3.515111	 -1.754032	 -0.888189
C	 -1.298856	 0.351272	 0.846952
H	 -2.962199	 0.687055	 -0.522412
H	 -3.428501	 0.459064	 1.155597
C	 -0.252658	 0.041456	 -0.226725
H	 -1.197612	 1.385749	 1.161422
H	 -1.107322	 -0.253988	 1.731674
C	 1.180775	 0.282413	 0.250794
H	 -0.450993	 0.653680	 -1.104046
H	 -0.353003	 -0.992170	 -0.552437
C	 2.148627	 -0.814315	 -0.201312
H	 1.516199	 1.249228	 -0.115937
H	 1.192670	 0.346017	 1.338083
C	 3.580890	 -0.659131	 0.322722
H	 2.166869	 -0.852443	 -1.289387
H	 1.762857	 -1.776509	 0.128956
C	 4.324889	 0.564933	 -0.213704
H	 4.142010	 -1.551473	 0.056605
H	 3.564836	 -0.624694	 1.410140
H	 4.342616	 0.565491	 -1.300421
H	 3.866655	 1.493402	 0.110242
H	 5.353900	 0.572371	 0.132816

	symmetry c1
}
set optking {
	frozen_dihedral = ("
		6 3 5 8,
		6 3 2 4,
		3 5 8 12,
		8 11 14 18,
		20 17 14 18
	")
}

ee = energy('scf')
oeprop('DIPOLE', 'QUADRUPOLE', 'MULLIKEN_CHARGES')
f=open( 'psi4out.xyz', 'w' )
f.write( "25  " )
f.write( str(ee) + "\n" )
f.write( MOL.save_string_xyz() )
f.close()
--------------------------------------------------------------------------

    Molecular point group: c1

    Geometry (in Angstrom), charge = 0, multiplicity = 1:

       Center              X                  Y                   Z               Mass
    ------------   -----------------  -----------------  -----------------  -----------------
           H         -2.845709550780    -1.650627775187     0.906469727695     1.007825032070
           C         -3.093427550780    -0.970110775187     0.082361727695    12.000000000000
           C         -2.791720550780     0.483600224813     0.343721727695    12.000000000000
           O         -3.564022550780    -1.395332775187    -0.922365272305    15.994914619560
           C         -1.347767550780     0.709971224813     0.812775727695    12.000000000000
           H         -3.011110550780     1.045754224813    -0.556588272305     1.007825032070
           H         -3.477412550780     0.817763224813     1.121420727695     1.007825032070
           C         -0.301569550780     0.400155224813    -0.260901272305    12.000000000000
           H         -1.246523550780     1.744448224813     1.127245727695     1.007825032070
           H         -1.156233550780     0.104711224813     1.697497727695     1.007825032070
           C          1.131863449220     0.641112224813     0.216617727695    12.000000000000
           H         -0.499904550780     1.012379224813    -1.138222272305     1.007825032070
           H         -0.401914550780    -0.633470775187    -0.586613272305     1.007825032070
           C          2.099715449220    -0.455615775187    -0.235488272305    12.000000000000
           H          1.467287449220     1.607927224813    -0.150113272305     1.007825032070
           H          1.143758449220     0.704716224813     1.303906727695     1.007825032070
           C          3.531978449220    -0.300431775187     0.288545727695    12.000000000000
           H          2.117957449220    -0.493743775187    -1.323563272305     1.007825032070
           H          1.713945449220    -1.417809775187     0.094779727695     1.007825032070
           C          4.275977449220     0.923632224813    -0.247880272305    12.000000000000
           H          4.093098449220    -1.192773775187     0.022428727695     1.007825032070
           H          3.515924449220    -0.265994775187     1.375963727695     1.007825032070
           H          4.293704449220     0.924190224813    -1.334597272305     1.007825032070
           H          3.817743449220     1.852101224813     0.076065727695     1.007825032070
           H          5.304988449220     0.931070224813     0.098639727695     1.007825032070

  Charge       = 0
  Multiplicity = 1
  Basis Set: 6-31G*
  Basis Set:

    Orbital Energies (a.u.)
    -----------------------

    Doubly Occupied:

       1A    -20.561906     2A    -11.326068     3A    -11.235601
       4A    -11.234319     5A    -11.222623     6A    -11.218636
       7A    -11.217959     8A    -11.217378     9A    -11.210498
      10A     -1.401879    11A     -1.104173    12A     -1.069514
      13A     -1.013194    14A     -0.942019    15A     -0.875916
      16A     -0.820417    17A     -0.787868    18A     -0.782541
      19A     -0.664909    20A     -0.659035    21A     -0.631578
      22A     -0.625693    23A     -0.602203    24A     -0.591044
      25A     -0.581961    26A     -0.550873    27A     -0.534624
      28A     -0.525079    29A     -0.508553    30A     -0.496398
      31A     -0.490232    32A     -0.479398    33A     -0.462541
      34A     -0.456824    35A     -0.440923    36A     -0.409450

  @DF-RHF Final Energy:  -387.11756481397742

   => Energetics <=

    Nuclear Repulsion Energy =            440.4370367850308412
    One-Electron Energy =               -1397.2017104017154452
    Two-Electron Energy =                 569.6471088027034284
    DFT Exchange-Correlation Energy =       0.0000000000000000
    Empirical Dispersion Energy =           0.0000000000000000
    PCM Polarization Energy =               0.0000000000000000
    EFP Energy =                            0.0000000000000000
    Total Energy =                       -387.1175648139811756

  Mulliken Charges: (a.u.)
   Center  Symbol    Alpha    Beta     Spin     Total
       1     H     0.43275  0.43275  0.00000  0.13450
       2     C     2.83060  2.83060  0.00000  0.33880
       3     C     3.20873  3.20873  0.00000 -0.41747
       4     O     4.23781  4.23781  0.00000 -0.47563
       5     C     3.16858  3.16858  0.00000 -0.33716
       6     H     0.39972  0.39972  0.00000  0.20056
       7     H     0.40684  0.40684  0.00000  0.18633
       8     C     3.15657  3.15657  0.00000 -0.31314
       9     H     0.41233  0.41233  0.00000  0.17534
      10     H     0.41937  0.41937  0.00000  0.16126
      11     C     3.15626  3.15626  0.00000 -0.31252
      12     H     0.41609  0.41609  0.00000  0.16783
      13     H     0.41655  0.41655  0.00000  0.16690
      14     C     3.15522  3.15522  0.00000 -0.31044
      15     H     0.41749  0.41749  0.00000  0.16501
      16     H     0.42251  0.42251  0.00000  0.15498
      17     C     3.15310  3.15310  0.00000 -0.30619
      18     H     0.42174  0.42174  0.00000  0.15652
      19     H     0.42181  0.42181  0.00000  0.15639
      20     C     3.24134  3.24134  0.00000 -0.48267
      21     H     0.42015  0.42015  0.00000  0.15971
      22     H     0.42352  0.42352  0.00000  0.15295
      23     H     0.42163  0.42163  0.00000  0.15675
      24     H     0.42055  0.42055  0.00000  0.15890
      25     H     0.41875  0.41875  0.00000  0.16250

   Total alpha = 36.00000, Total beta = 36.00000, Total charge =  0.00000
