  ==> Input File <==

--------------------------------------------------------------------------
set {
	reference rhf
	basis cc-pvtz
}

set_num_threads( 4 )
memory 2 gb

molecule MOL {
0 1

H	 1.080577	 0.698051	 1.598322
C	 1.152317	 0.358788	 0.555925
C	 0.062554	 0.862911	 -0.350953
O	 2.043142	 -0.342696	 0.221999
C	 -1.339253	 0.577611	 0.196911
H	 0.201825	 0.427690	 -1.332115
H	 0.200689	 1.938298	 -0.437766
C	 -1.813142	 -0.849710	 -0.061612
H	 -2.032833	 1.276441	 -0.256032
H	 -1.357249	 0.782269	 1.263793
H	 -1.839268	 -1.063526	 -1.124230
H	 -2.810118	 -1.001930	 0.334000
H	 -1.159274	 -1.579980	 0.402282

	symmetry c1
}
set optking {
	frozen_dihedral = ("
		6 3 5 9
	")
}

ee = optimize('scf')
oeprop('DIPOLE', 'QUADRUPOLE', 'MULLIKEN_CHARGES')
f=open( 'psi4out.xyz', 'w' )
f.write( "13  " )
f.write( str(ee) + "\n" )
f.write( MOL.save_string_xyz() )
f.close()
--------------------------------------------------------------------------

    Molecular point group: c1
  Charge       = 0
  Multiplicity = 1
  Basis Set: CC-PVTZ
  Basis Set:
  @DF-RHF Final Energy:  -231.07006474283861
    Total Energy =                       -231.0700647428386674
    Molecular point group: c1
  Basis Set: CC-PVTZ
  Basis Set:
  Basis Set: CC-PVTZ
  Basis Set:
  @DF-RHF Final Energy:  -231.07016280744179
    Total Energy =                       -231.0701628074419318
  Basis Set: CC-PVTZ
  Basis Set:
  Basis Set: CC-PVTZ
  Basis Set:
  @DF-RHF Final Energy:  -231.06944334224528
    Total Energy =                       -231.0694433422453073
  Basis Set: CC-PVTZ
  Basis Set:
  Basis Set: CC-PVTZ
  Basis Set:
  @DF-RHF Final Energy:  -231.07019259539604
    Total Energy =                       -231.0701925953962075
  Basis Set: CC-PVTZ
  Basis Set:
  Basis Set: CC-PVTZ
  Basis Set:
  @DF-RHF Final Energy:  -231.07019801004077
    Total Energy =                       -231.0701980100409401
  Basis Set: CC-PVTZ
  Basis Set:
  Basis Set: CC-PVTZ
  Basis Set:
  @DF-RHF Final Energy:  -231.07019943217395
    Total Energy =                       -231.0701994321740074
  Basis Set: CC-PVTZ
  Basis Set:
  Charge       = 0
  Multiplicity = 1
  Basis Set: CC-PVTZ
  Basis Set:

    Orbital Energies (a.u.)
    -----------------------

    Doubly Occupied:

       1A    -20.552883     2A    -11.321876     3A    -11.236945
       4A    -11.234785     5A    -11.219155     6A     -1.407808
       7A     -1.087512     8A     -0.974450     9A     -0.846031
      10A     -0.791536    11A     -0.669679    12A     -0.652203
      13A     -0.628453    14A     -0.592614    15A     -0.560829
      16A     -0.538973    17A     -0.505097    18A     -0.495371
      19A     -0.483582    20A     -0.413114

  @DF-RHF Final Energy:  -231.07019995962196

   => Energetics <=

    Nuclear Repulsion Energy =            173.7840482736485228
    One-Electron Energy =                -657.2826995261777938
    Two-Electron Energy =                 252.4284512929074253
    DFT Exchange-Correlation Energy =       0.0000000000000000
    Empirical Dispersion Energy =           0.0000000000000000
    PCM Polarization Energy =               0.0000000000000000
    EFP Energy =                            0.0000000000000000
    Total Energy =                       -231.0701999596218457
    Molecular point group: c1
  Basis Set: CC-PVTZ
  Basis Set:

  -Total Gradient:
     Atom            X                  Y                   Z
    ------   -----------------  -----------------  -----------------
       1       -0.000003293123    -0.000019215809     0.000000515574
       2        0.000013396352    -0.000019691433     0.000032519712
       3       -0.000990193116     0.002875918763    -0.000872831063
       4        0.000013021464     0.000027559461    -0.000004303624
       5       -0.000189886693    -0.002360411706    -0.001893075880
       6        0.000804866386    -0.002011933811     0.001009840749
       7        0.000009232068    -0.000001135765    -0.000025000549
       8       -0.000011595566     0.000014433097    -0.000005943417
       9        0.000351693004     0.001510388250     0.001753186429
      10        0.000001867142    -0.000000813112     0.000007205428
      11        0.000000653008    -0.000002429950     0.000000053920
      12        0.000001957767    -0.000008161511    -0.000002775051
      13       -0.000001718689    -0.000004506476     0.000000607773

  **** Optimization is complete! (in 7 steps) ****
    Final optimized geometry and variables:
    Molecular point group: c1

    Geometry (in Angstrom), charge = 0, multiplicity = 1:

    H            1.068502216072     0.596788696304     1.484167378761
    C            1.123204939327     0.249491131799     0.443548215171
    C            0.048867566100     0.789154363320    -0.463340789111
    O            1.982365445150    -0.491196961178     0.111387575590
    C           -1.357798163655     0.494081580066     0.072564712414
    H            0.198948470583     0.357893410047    -1.444552382171
    H            0.199464941873     1.863466414316    -0.527864573541
    C           -1.806386237176    -0.943591139597    -0.166325866333
    H           -2.059111170513     1.186012071944    -0.378617187319
    H           -1.384060392620     0.710745393493     1.137675347279
    H           -1.847729728851    -1.165799128103    -1.226617867543
    H           -2.792106518584    -1.114857035509     0.249288776324
    H           -1.125750942315    -1.653338252197     0.290783635645

  Mulliken Charges: (a.u.)
   Center  Symbol    Alpha    Beta     Spin     Total
       1     H     0.46585  0.46585  0.00000  0.06830
       2     C     2.90549  2.90549  0.00000  0.18902
       3     C     3.08567  3.08567  0.00000 -0.17135
       4     O     4.16414  4.16414  0.00000 -0.32827
       5     C     3.10176  3.10176  0.00000 -0.20353
       6     H     0.44460  0.44460  0.00000  0.11080
       7     H     0.44208  0.44208  0.00000  0.11585
       8     C     3.14367  3.14367  0.00000 -0.28734
       9     H     0.44386  0.44386  0.00000  0.11228
      10     H     0.45352  0.45352  0.00000  0.09295
      11     H     0.45194  0.45194  0.00000  0.09613
      12     H     0.44683  0.44683  0.00000  0.10633
      13     H     0.45059  0.45059  0.00000  0.09883

   Total alpha = 20.00000, Total beta = 20.00000, Total charge = -0.00000
