                              Psi4 1.0.54 Driver

  ==> Input File <==

--------------------------------------------------------------------------
set {
	reference rhf
	basis cc-pvtz
}

set_num_threads( 4 )
memory 2 gb

molecule MOL {
0 1

O	 -2.071633	 -1.227563	 -0.223463
C	 -1.652164	 -0.152425	 0.058082
C	 -0.327811	 0.006324	 0.778296
C	 -2.402515	 1.108629	 -0.298924
C	 0.843231	 -0.001575	 -0.211665
H	 -0.319484	 0.928173	 1.350354
H	 -0.227804	 -0.823091	 1.466705
C	 1.823830	 1.142912	 0.026670
H	 0.465214	 0.057914	 -1.229142
H	 1.361741	 -0.950567	 -0.128440
C	 2.996808	 1.131754	 -0.947580
H	 1.297909	 2.090418	 -0.051835
H	 2.198806	 1.084687	 1.044286
H	 2.655423	 1.224004	 -1.973241
H	 3.560946	 0.208711	 -0.869424
H	 3.676292	 1.952645	 -0.750499
H	 -3.240910	 0.874416	 -0.936711
H	 -1.747554	 1.818823	 -0.790984
H	 -2.760419	 1.579708	 0.610998

	symmetry c1
}
set optking {
	frozen_dihedral = ("
		9 5 3 2
	")
}

ee,wfn = optimize('scf', return_wfn=True)
oeprop( wfn, 'DIPOLE', 'QUADRUPOLE', 'MULLIKEN_CHARGES')
f=open( 'psi4out.xyz', 'w' )
f.write( "19  " )
f.write( str(ee) + "\n" )
f.write( MOL.save_string_xyz() )
f.close()
--------------------------------------------------------------------------

    Molecular point group: c1
  Charge       = 0
  Multiplicity = 1
  Basis Set: CC-PVTZ
  Basis Set:
  @DF-RHF Final Energy:  -309.17203881982687
    Total Energy =                       -309.1720388198268665
    Molecular point group: c1
  Basis Set: CC-PVTZ
  Basis Set:
  Basis Set: CC-PVTZ
  Basis Set:
  @DF-RHF Final Energy:  -309.17224405807042
    Total Energy =                       -309.1722440580704188
  Basis Set: CC-PVTZ
  Basis Set:
  Basis Set: CC-PVTZ
  Basis Set:
  @DF-RHF Final Energy:  -309.17256395442939
    Total Energy =                       -309.1725639544294495
  Basis Set: CC-PVTZ
  Basis Set:
  Basis Set: CC-PVTZ
  Basis Set:
  @DF-RHF Final Energy:  -309.17266089995275
    Total Energy =                       -309.1726608999526889
  Basis Set: CC-PVTZ
  Basis Set:
  @DF-RHF Final Energy:  -309.17270795698505
    Total Energy =                       -309.1727079569848797
  @DF-RHF Final Energy:  -309.17271903951229
    Total Energy =                       -309.1727190395121738
  @DF-RHF Final Energy:  -309.17272475737752
    Total Energy =                       -309.1727247573775799
  Basis Set: CC-PVTZ
  Basis Set:
  @DF-RHF Final Energy:  -309.17272905880321
    Total Energy =                       -309.1727290588030996
  Basis Set: CC-PVTZ
  Basis Set:
  Basis Set: CC-PVTZ
  Basis Set:
  @DF-RHF Final Energy:  -309.17273217362754
    Total Energy =                       -309.1727321736274803
  Basis Set: CC-PVTZ
  Basis Set:
  Basis Set: CC-PVTZ
  Basis Set:
  @DF-RHF Final Energy:  -309.17273494134048
    Total Energy =                       -309.1727349413406500
  Basis Set: CC-PVTZ
  Basis Set:
  Charge       = 0
  Multiplicity = 1
  Basis Set: CC-PVTZ
  Basis Set:

    Orbital Energies (a.u.)
    -----------------------

    Doubly Occupied:

       1A    -20.536501     2A    -11.319174     3A    -11.231017
       4A    -11.228000     5A    -11.226857     6A    -11.226091
       7A    -11.215281     8A     -1.396452     9A     -1.093568
      10A     -1.031027    11A     -0.983614    12A     -0.894354
      13A     -0.811182    14A     -0.735606    15A     -0.661599
      16A     -0.648976    17A     -0.623522    18A     -0.615128
      19A     -0.586012    20A     -0.577237    21A     -0.553051
      22A     -0.538111    23A     -0.516236    24A     -0.505633
      25A     -0.483772    26A     -0.476251    27A     -0.469916
      28A     -0.399183

  @DF-RHF Final Energy:  -309.17273504599348

   => Energetics <=

    Nuclear Repulsion Energy =            303.1414208668005585
    One-Electron Energy =               -1019.4616059017496354
    Two-Electron Energy =                 407.1474499889558274
    DFT Exchange-Correlation Energy =       0.0000000000000000
    Empirical Dispersion Energy =           0.0000000000000000
    PCM Polarization Energy =               0.0000000000000000
    EFP Energy =                            0.0000000000000000
    Total Energy =                       -309.1727350459932495
    Molecular point group: c1
  Basis Set: CC-PVTZ
  Basis Set:

  -Total Gradient:
     Atom            X                  Y                   Z
    ------   -----------------  -----------------  -----------------
       1       -0.000005271475    -0.000014537274     0.000002856611
       2       -0.000242380437     0.001803978995    -0.000034859952
       3        0.000364928014    -0.003051703830    -0.000053525785
       4       -0.000012422064    -0.000001104110     0.000004604886
       5       -0.000157837464     0.003734521961     0.000357023836
       6       -0.000005134467     0.000001587285     0.000004681428
       7       -0.000001699286     0.000000030312     0.000004337720
       8        0.000004030046     0.000003436836    -0.000002108586
       9        0.000049733733    -0.002479300042    -0.000283114128
      10        0.000000711137     0.000001082365    -0.000001730268
      11       -0.000001336556    -0.000001740607     0.000002865316
      12       -0.000000717295    -0.000000778160    -0.000000579548
      13       -0.000001248580     0.000000452207     0.000000692687
      14       -0.000000011767     0.000000024962     0.000000240104
      15        0.000000095390     0.000000350111    -0.000000755429
      16        0.000001084018    -0.000000516052    -0.000000469307
      17        0.000003749630     0.000001737490     0.000002628415
      18        0.000003465339    -0.000002768943     0.000000484827
      19        0.000000262080     0.000005246492    -0.000003272827

  **** Optimization is complete! (in 11 steps) ****
    Final optimized geometry and variables:
    Molecular point group: c1

    Geometry (in Angstrom), charge = 0, multiplicity = 1:

    O           -2.021291553813    -1.617690892179     0.067794207679
    C           -1.533752836229    -0.542126017144     0.196473910671
    C           -0.202010024608    -0.349643117655     0.889711126132
    C           -2.216694709481     0.700191690733    -0.328973236126
    C            0.957709167635    -0.210592168156    -0.125761381245
    H           -0.256814797267     0.543799708374     1.503365906671
    H           -0.040198138695    -1.193925927778     1.543628874375
    C            1.909235321437     0.940826959645     0.183743187952
    H            0.567208062298    -0.102806155095    -1.133389497112
    H            1.514216220996    -1.140677807191    -0.140592574871
    C            3.074682540486     1.029897383337    -0.794743685953
    H            1.356245535806     1.876292259781     0.174713293973
    H            2.291939423058     0.824052015121     1.193836618851
    H            2.722950191738     1.176214592434    -1.810559212291
    H            3.668489858812     0.122369995614    -0.779333366998
    H            3.729206912582     1.857850334865    -0.548944228713
    H           -3.025704890937     0.426432433699    -0.988671429049
    H           -1.517647701715     1.347625287491    -0.844647048683
    H           -2.615226876533     1.260189190767     0.511155679854

  Mulliken Charges: (a.u.)
   Center  Symbol    Alpha    Beta     Spin     Total
       1     O     4.17637  4.17637  0.00000 -0.35274
       2     C     2.85663  2.85663  0.00000  0.28675
       3     C     3.09928  3.09928  0.00000 -0.19856
       4     C     3.15707  3.15707  0.00000 -0.31415
       5     C     3.10503  3.10503  0.00000 -0.21006
       6     H     0.45073  0.45073  0.00000  0.09854
       7     H     0.43672  0.43672  0.00000  0.12655
       8     C     3.08571  3.08571  0.00000 -0.17142
       9     H     0.44855  0.44855  0.00000  0.10290
      10     H     0.44015  0.44015  0.00000  0.11971
      11     C     3.14977  3.14977  0.00000 -0.29954
      12     H     0.45477  0.45477  0.00000  0.09045
      13     H     0.45091  0.45091  0.00000  0.09818
      14     H     0.45430  0.45430  0.00000  0.09140
      15     H     0.45306  0.45306  0.00000  0.09388
      16     H     0.44720  0.44720  0.00000  0.10560
      17     H     0.43542  0.43542  0.00000  0.12916
      18     H     0.45094  0.45094  0.00000  0.09812
      19     H     0.44739  0.44739  0.00000  0.10523

   Total alpha = 28.00000, Total beta = 28.00000, Total charge = -0.00000

*** Psi4 exiting successfully. Buy a developer a beer!
