  ==> Input File <==

--------------------------------------------------------------------------
set {
	reference rhf
	basis 6-31G*
}

set_num_threads( 4 )
memory 2 gb

molecule MOL {
0 1

H	 -3.710464	 -0.805197	 0.296550
O	 -3.517110	 -0.026191	 -0.205115
C	 -2.306886	 0.532354	 0.237577
C	 -1.177863	 -0.397191	 -0.171080
H	 -2.156308	 1.517575	 -0.201710
H	 -2.315015	 0.655684	 1.319734
C	 0.198102	 0.111031	 0.262842
H	 -1.208843	 -0.518759	 -1.250427
H	 -1.368741	 -1.376554	 0.258909
C	 1.331804	 -0.827780	 -0.158768
H	 0.361943	 1.100838	 -0.156218
H	 0.217265	 0.229072	 1.345532
C	 2.723619	 -0.410569	 0.329459
H	 1.342964	 -0.912588	 -1.244120
H	 1.116806	 -1.824343	 0.220779
C	 3.243875	 0.895854	 -0.272975
H	 3.424222	 -1.207124	 0.091250
H	 2.714788	 -0.329854	 1.414619
H	 3.251977	 0.848779	 -1.358681
H	 2.637085	 1.747371	 0.016682
H	 4.259473	 1.094070	 0.055697

	symmetry c1
}
set optking {
	frozen_dihedral = ("
		1 2 3 5
	")
}

ee = optimize('scf')
oeprop('DIPOLE', 'QUADRUPOLE', 'MULLIKEN_CHARGES')
f=open( 'psi4out.xyz', 'w' )
f.write( "21  " )
f.write( str(ee) + "\n" )
f.write( MOL.save_string_xyz() )
f.close()
--------------------------------------------------------------------------

    Molecular point group: c1
  Charge       = 0
  Multiplicity = 1
  Basis Set: 6-31G*
  Basis Set:
  @DF-RHF Final Energy:  -310.21090937798465
    Total Energy =                       -310.2109093779844216
    Molecular point group: c1
  Basis Set: 6-31G*
  Basis Set:
  Basis Set: 6-31G*
  Basis Set:
  @DF-RHF Final Energy:  -310.21242740784561
    Total Energy =                       -310.2124274078456665
  Basis Set: 6-31G*
  Basis Set:
  Basis Set: 6-31G*
  Basis Set:
  @DF-RHF Final Energy:  -310.21276805576440
    Total Energy =                       -310.2127680557642293
  Basis Set: 6-31G*
  Basis Set:
  Basis Set: 6-31G*
  Basis Set:
  @DF-RHF Final Energy:  -310.21277185489504
    Total Energy =                       -310.2127718548950384
  Basis Set: 6-31G*
  Basis Set:
  Basis Set: 6-31G*
  Basis Set:
  @DF-RHF Final Energy:  -310.21276796275265
    Total Energy =                       -310.2127679627528778
  Basis Set: 6-31G*
  Basis Set:
  Basis Set: 6-31G*
  Basis Set:
  @DF-RHF Final Energy:  -310.21277282420436
    Total Energy =                       -310.2127728242043077
  Basis Set: 6-31G*
  Basis Set:
  Charge       = 0
  Multiplicity = 1
  Basis Set: 6-31G*
  Basis Set:

    Orbital Energies (a.u.)
    -----------------------

    Doubly Occupied:

       1A    -20.552245     2A    -11.266902     3A    -11.219026
       4A    -11.217431     5A    -11.216632     6A    -11.215716
       7A    -11.209709     8A     -1.359065     9A     -1.088966
      10A     -1.034754    11A     -0.955288    12A     -0.879265
      13A     -0.818239    14A     -0.781040    15A     -0.693368
      16A     -0.648247    17A     -0.620332    18A     -0.607444
      19A     -0.593670    20A     -0.575836    21A     -0.539885
      22A     -0.533144    23A     -0.504382    24A     -0.493077
      25A     -0.480497    26A     -0.465051    27A     -0.459762
      28A     -0.458185    29A     -0.421161

  @DF-RHF Final Energy:  -310.21277277733941

   => Energetics <=

    Nuclear Repulsion Energy =            312.1988623192179375
    One-Electron Energy =               -1039.0066343413018330
    Two-Electron Energy =                 416.5949992447442582
    DFT Exchange-Correlation Energy =       0.0000000000000000
    Empirical Dispersion Energy =           0.0000000000000000
    PCM Polarization Energy =               0.0000000000000000
    EFP Energy =                            0.0000000000000000
    Total Energy =                       -310.2127727773396373
    Molecular point group: c1
  Basis Set: 6-31G*
  Basis Set:

  -Total Gradient:
     Atom            X                  Y                   Z
    ------   -----------------  -----------------  -----------------
       1       -0.000262165639     0.000300655133     0.000376372980
       2        0.000229019913    -0.000356425780    -0.000388098546
       3        0.000201876266    -0.000143947070    -0.000385189378
       4        0.000024888543     0.000009355975     0.000002880942
       5       -0.000191483047     0.000203493562     0.000385265728
       6        0.000008676580     0.000000289776    -0.000004947071
       7        0.000006232698    -0.000008061816     0.000008293765
       8       -0.000001487469    -0.000002852210     0.000002371631
       9       -0.000000843156     0.000002916708     0.000006097675
      10        0.000010829077    -0.000005123222    -0.000009192539
      11       -0.000000915059     0.000003635684     0.000004138628
      12       -0.000005217415    -0.000005414559     0.000007781586
      13       -0.000008494983     0.000008588645    -0.000005024103
      14       -0.000003143513    -0.000004991864    -0.000003577834
      15        0.000006599291     0.000000585469     0.000004809737
      16        0.000000287034    -0.000001376749    -0.000001360069
      17       -0.000007057974    -0.000002247172    -0.000002347674
      18       -0.000002921318     0.000000440582     0.000001230335
      19       -0.000001346852     0.000000643248    -0.000000342108
      20       -0.000004747025     0.000000218838     0.000001789533
      21        0.000001414055    -0.000000383178    -0.000000953217

  **** Optimization is complete! (in 7 steps) ****
    Final optimized geometry and variables:
    Molecular point group: c1

    Geometry (in Angstrom), charge = 0, multiplicity = 1:

    H           -3.799411338032    -0.723316505128     0.269646654903
    O           -3.561967223574     0.060067459749    -0.206315874680
    C           -2.310056446273     0.514277886814     0.238721944675
    C           -1.172162612814    -0.411307539757    -0.173439282758
    H           -2.176552064269     1.494163509642    -0.202525351244
    H           -2.313659042859     0.648781089952     1.319688285856
    C            0.201682011602     0.102424189625     0.261583478010
    H           -1.203301093853    -0.532665438293    -1.252843970538
    H           -1.344664343968    -1.398463958670     0.254838080322
    C            1.342770831583    -0.827442475771    -0.159779313523
    H            0.357118001014     1.093488396690    -0.157182527626
    H            0.219073242680     0.221185304102     1.344237296851
    C            2.731468363164    -0.396799501986     0.325731147933
    H            1.353140692867    -0.914164978704    -1.244945592875
    H            1.137522018970    -1.825387909820     0.222113970197
    C            3.238909533886     0.913055405800    -0.280101422370
    H            3.438656371975    -1.187605416808     0.087960971675
    H            2.723406454174    -0.314116882177     1.410746203451
    H            3.245429232091     0.864051637802    -1.365693262500
    H            2.625340217660     1.759764300741     0.009209452530
    H            4.253289910292     1.120620314689     0.046352897446

  Mulliken Charges: (a.u.)
   Center  Symbol    Alpha    Beta     Spin     Total
       1     H     0.28311  0.28311  0.00000  0.43379
       2     O     4.37071  4.37071  0.00000 -0.74142
       3     C     2.98967  2.98967  0.00000  0.02065
       4     C     3.16546  3.16546  0.00000 -0.33092
       5     H     0.41672  0.41672  0.00000  0.16656
       6     H     0.43198  0.43198  0.00000  0.13605
       7     C     3.16183  3.16183  0.00000 -0.32365
       8     H     0.41378  0.41378  0.00000  0.17243
       9     H     0.42858  0.42858  0.00000  0.14284
      10     C     3.15163  3.15163  0.00000 -0.30327
      11     H     0.41941  0.41941  0.00000  0.16118
      12     H     0.42388  0.42388  0.00000  0.15225
      13     C     3.15259  3.15259  0.00000 -0.30517
      14     H     0.42256  0.42256  0.00000  0.15487
      15     H     0.42218  0.42218  0.00000  0.15563
      16     C     3.24140  3.24140  0.00000 -0.48279
      17     H     0.42043  0.42043  0.00000  0.15914
      18     H     0.42343  0.42343  0.00000  0.15313
      19     H     0.42169  0.42169  0.00000  0.15662
      20     H     0.42013  0.42013  0.00000  0.15975
      21     H     0.41883  0.41883  0.00000  0.16233

   Total alpha = 29.00000, Total beta = 29.00000, Total charge =  0.00000
