                              Psi4 1.0.54 Driver

  ==> Input File <==

--------------------------------------------------------------------------
set {
	reference rhf
	basis cc-pvtz
}

set_num_threads( 4 )
memory 2 gb

molecule MOL {
0 1

H	 -2.816458	 -0.841657	 -0.064679
N	 -1.878861	 -0.711874	 0.250184
C	 -1.341419	 0.551458	 -0.220231
H	 -1.333674	 -1.468530	 -0.105118
C	 0.082190	 0.731516	 0.254705
H	 -1.357065	 0.652078	 -1.304747
H	 -1.939897	 1.357530	 0.189797
O	 0.711655	 -0.513939	 0.272653
H	 0.611938	 1.408746	 -0.413801
H	 0.082639	 1.166794	 1.251430
C	 2.012603	 -0.494987	 0.758858
H	 2.395698	 -1.504604	 0.722849
H	 2.653717	 0.143426	 0.154625
H	 2.047926	 -0.143093	 1.787200

	symmetry c1
}
set optking {
	frozen_dihedral = ("
		8 5 3 6
	")
}

ee,wfn = optimize('scf', return_wfn=True)
oeprop( wfn, 'DIPOLE', 'QUADRUPOLE', 'MULLIKEN_CHARGES')
f=open( 'psi4out.xyz', 'w' )
f.write( "14  " )
f.write( str(ee) + "\n" )
f.write( MOL.save_string_xyz() )
f.close()
--------------------------------------------------------------------------

    Molecular point group: c1
  Charge       = 0
  Multiplicity = 1
  Basis Set: CC-PVTZ
  Basis Set:
  @DF-RHF Final Energy:  -248.22008295162701
    Total Energy =                       -248.2200829516271483
    Molecular point group: c1
  Basis Set: CC-PVTZ
  Basis Set:
  Basis Set: CC-PVTZ
  Basis Set:
  @DF-RHF Final Energy:  -248.04977928418486
    Total Energy =                       -248.0497792841846945
  Basis Set: CC-PVTZ
  Basis Set:
  Basis Set: CC-PVTZ
  Basis Set:
  @DF-RHF Final Energy:  -248.16469991802919
    Total Energy =                       -248.1646999180289299
  Basis Set: CC-PVTZ
  Basis Set:
  Basis Set: CC-PVTZ
  Basis Set:
  @DF-RHF Final Energy:  -248.21597944299435
    Total Energy =                       -248.2159794429942394
  Basis Set: CC-PVTZ
  Basis Set:
  @DF-RHF Final Energy:  -248.21970930996994
    Total Energy =                       -248.2197093099699146
  Basis Set: CC-PVTZ
  Basis Set:
  @DF-RHF Final Energy:  -248.22121335148884
    Total Energy =                       -248.2212133514889274
  Basis Set: CC-PVTZ
  Basis Set:
  Basis Set: CC-PVTZ
  Basis Set:
  @DF-RHF Final Energy:  -248.22138982700179
    Total Energy =                       -248.2213898270018717
  Basis Set: CC-PVTZ
  Basis Set:
  Basis Set: CC-PVTZ
  Basis Set:
  @DF-RHF Final Energy:  -248.22139710789722
    Total Energy =                       -248.2213971078971895
  Basis Set: CC-PVTZ
  Basis Set:
  Charge       = 0
  Multiplicity = 1
  Basis Set: CC-PVTZ
  Basis Set:

    Orbital Energies (a.u.)
    -----------------------

    Doubly Occupied:

       1A    -20.550576     2A    -15.521390     3A    -11.266045
       4A    -11.263809     5A    -11.240518     6A     -1.385323
       7A     -1.174329     8A     -0.998781     9A     -0.910125
      10A     -0.813961    11A     -0.684945    12A     -0.678056
      13A     -0.647906    14A     -0.611015    15A     -0.605519
      16A     -0.549475    17A     -0.525512    18A     -0.494505
      19A     -0.474359    20A     -0.422020    21A     -0.377526

  @DF-RHF Final Energy:  -248.22139761804632

   => Energetics <=

    Nuclear Repulsion Energy =            195.1682194166059219
    One-Electron Energy =                -724.3878513960590908
    Two-Electron Energy =                 280.9982343614066167
    DFT Exchange-Correlation Energy =       0.0000000000000000
    Empirical Dispersion Energy =           0.0000000000000000
    PCM Polarization Energy =               0.0000000000000000
    EFP Energy =                            0.0000000000000000
    Total Energy =                       -248.2213976180465806
    Molecular point group: c1
  Basis Set: CC-PVTZ
  Basis Set:

  -Total Gradient:
     Atom            X                  Y                   Z
    ------   -----------------  -----------------  -----------------
       1        0.000010174857    -0.000002918125     0.000004185659
       2        0.000029838029     0.000018921761    -0.000019755619
       3        0.005712140674    -0.008154682257    -0.004246598712
       4       -0.000015600139    -0.000012581862     0.000003823400
       5       -0.000648857572     0.007291950443    -0.005313962147
       6       -0.004691361770     0.005426785423     0.004664152398
       7        0.000006026333     0.000018187713     0.000003866277
       8       -0.000346473938    -0.004596664217     0.004880190169
       9       -0.000013804635    -0.000002189526    -0.000001356403
      10       -0.000003957918     0.000007143408     0.000017961867
      11       -0.000047722658     0.000007097714     0.000004145547
      12       -0.000013527725    -0.000002113943    -0.000004227834
      13        0.000009915374     0.000001375374     0.000000150838
      14        0.000013211088    -0.000000311905     0.000007424561

  **** Optimization is complete! (in 9 steps) ****
    Final optimized geometry and variables:
    Molecular point group: c1

    Geometry (in Angstrom), charge = 0, multiplicity = 1:

    H           -2.230632225307    -1.648733823350    -0.835992519165
    N           -1.410683644491    -1.298575561066    -0.389941044555
    C           -1.480902259173     0.135851933215    -0.230178374768
    H           -0.619476329039    -1.553990845277    -0.939240270924
    C           -0.208264423459     0.699836573292     0.388730448733
    H           -1.728463734130     0.699631503797    -1.130387642040
    H           -2.288215301647     0.360405484788     0.461044552093
    O            0.906638735921     0.046684606225    -0.134073871115
    H           -0.151063543227     1.770676308183     0.204680573265
    H           -0.231552252386     0.547834219271     1.466301997711
    C            2.117985328743     0.460487755087     0.403461017102
    H            2.902868246939    -0.117034046166    -0.063074492271
    H            2.300296094661     1.515989698966     0.213001019884
    H            2.151886892296     0.293817925502     1.477700274774

  Mulliken Charges: (a.u.)
   Center  Symbol    Alpha    Beta     Spin     Total
       1     H     0.43043  0.43043  0.00000  0.13915
       2     N     3.69083  3.69083  0.00000 -0.38167
       3     C     3.02352  3.02352  0.00000 -0.04703
       4     H     0.42010  0.42010  0.00000  0.15980
       5     C     2.95934  2.95934  0.00000  0.08132
       6     H     0.47008  0.47008  0.00000  0.05983
       7     H     0.46231  0.46231  0.00000  0.07537
       8     O     4.17828  4.17828  0.00000 -0.35657
       9     H     0.47187  0.47187  0.00000  0.05626
      10     H     0.47399  0.47399  0.00000  0.05201
      11     C     3.02990  3.02990  0.00000 -0.05981
      12     H     0.44747  0.44747  0.00000  0.10506
      13     H     0.47135  0.47135  0.00000  0.05729
      14     H     0.47051  0.47051  0.00000  0.05897

   Total alpha = 21.00000, Total beta = 21.00000, Total charge =  0.00000

*** Psi4 exiting successfully. Buy a developer a beer!
