                              Psi4 1.0.54 Driver

  ==> Input File <==

--------------------------------------------------------------------------
set {
	reference rhf
	basis cc-pvtz
}

set_num_threads( 4 )
memory 2 gb

molecule MOL {
0 1

O	 3.219313	 0.959291	 -0.614106
C	 2.698710	 0.058177	 -0.050237
C	 1.246364	 -0.005813	 0.348416
O	 3.344101	 -1.038700	 0.312317
C	 0.453207	 1.232821	 -0.049003
H	 0.839270	 -0.907818	 -0.092281
H	 1.216683	 -0.160521	 1.422434
C	 -0.998367	 1.217982	 0.432195
H	 0.481498	 1.345443	 -1.127236
H	 0.951413	 2.105557	 0.354893
C	 -1.882951	 0.151251	 -0.211235
H	 -1.429490	 2.193659	 0.228843
H	 -1.019755	 1.099323	 1.513279
C	 -2.631714	 -0.699220	 0.811428
H	 -2.600848	 0.633937	 -0.870408
H	 -1.284335	 -0.502543	 -0.838728
C	 -3.514090	 -1.772332	 0.180066
H	 -3.245059	 -0.053324	 1.435099
H	 -1.914958	 -1.172788	 1.478406
C	 -4.260141	 -2.616530	 1.207935
H	 -4.230948	 -1.300631	 -0.486516
H	 -2.902095	 -2.420460	 -0.441423
H	 -4.876195	 -3.367719	 0.727128
H	 -4.908623	 -2.001447	 1.822958
H	 -3.569260	 -3.129274	 1.868983
C	 4.720529	 -1.114346	 0.001449
H	 4.874321	 -1.055557	 -1.065852
H	 5.057824	 -2.067950	 0.373977
H	 5.264321	 -0.313596	 0.480350

	symmetry c1
}
set optking {
	frozen_dihedral = ("
		15 11 8 5
	")
}

ee,wfn = optimize('scf', return_wfn=True)
oeprop( wfn, 'DIPOLE', 'QUADRUPOLE', 'MULLIKEN_CHARGES')
f=open( 'psi4out.xyz', 'w' )
f.write( "29  " )
f.write( str(ee) + "\n" )
f.write( MOL.save_string_xyz() )
f.close()
--------------------------------------------------------------------------

    Molecular point group: c1
  Charge       = 0
  Multiplicity = 1
  Basis Set: CC-PVTZ
  Basis Set:
  @DF-RHF Final Energy:  -501.21957808644424
    Total Energy =                       -501.2195780864444714
    Molecular point group: c1
  Basis Set: CC-PVTZ
  Basis Set:
  Basis Set: CC-PVTZ
  Basis Set:
  @DF-RHF Final Energy:  -501.21983152427720
    Total Energy =                       -501.2198315242768558
  Basis Set: CC-PVTZ
  Basis Set:
  Basis Set: CC-PVTZ
  Basis Set:
  @DF-RHF Final Energy:  -501.21993796456513
    Total Energy =                       -501.2199379645652471
  Basis Set: CC-PVTZ
  Basis Set:
  Basis Set: CC-PVTZ
  Basis Set:
  @DF-RHF Final Energy:  -501.22001039854274
    Total Energy =                       -501.2200103985430815
  Basis Set: CC-PVTZ
  Basis Set:
  Basis Set: CC-PVTZ
  Basis Set:
  @DF-RHF Final Energy:  -501.22001615024158
    Total Energy =                       -501.2200161502419178
  Basis Set: CC-PVTZ
  Basis Set:
  Basis Set: CC-PVTZ
  Basis Set:
  @DF-RHF Final Energy:  -501.22001248165282
    Total Energy =                       -501.2200124816531570
  Basis Set: CC-PVTZ
  Basis Set:
  Basis Set: CC-PVTZ
  Basis Set:
  @DF-RHF Final Energy:  -501.22001796567190
    Total Energy =                       -501.2200179656730370
  Basis Set: CC-PVTZ
  Basis Set:
  Charge       = 0
  Multiplicity = 1
  Basis Set: CC-PVTZ
  Basis Set:

    Orbital Energies (a.u.)
    -----------------------

    Doubly Occupied:

       1A    -20.596222     2A    -20.534045     3A    -11.364494
       4A    -11.278429     5A    -11.233323     6A    -11.217321
       7A    -11.215282     8A    -11.214248     9A    -11.213776
      10A    -11.213148    11A    -11.207634    12A     -1.472099
      13A     -1.365699    14A     -1.098631    15A     -1.068047
      16A     -1.019494    17A     -0.977979    18A     -0.930028
      19A     -0.861739    20A     -0.801589    21A     -0.790662
      22A     -0.766543    23A     -0.703917    24A     -0.685755
      25A     -0.675959    26A     -0.648828    27A     -0.629961
      28A     -0.606446    29A     -0.597613    30A     -0.577735
      31A     -0.565970    32A     -0.558563    33A     -0.536020
      34A     -0.528574    35A     -0.513714    36A     -0.508050
      37A     -0.503662    38A     -0.476535    39A     -0.473872
      40A     -0.463200    41A     -0.459471    42A     -0.457412
      43A     -0.440659    44A     -0.438072

  @DF-RHF Final Energy:  -501.22001797159623

   => Energetics <=

    Nuclear Repulsion Energy =            618.7737821737530339
    One-Electron Energy =               -1909.0067502969545785
    Two-Electron Energy =                 789.0129501516055370
    DFT Exchange-Correlation Energy =       0.0000000000000000
    Empirical Dispersion Energy =           0.0000000000000000
    PCM Polarization Energy =               0.0000000000000000
    EFP Energy =                            0.0000000000000000
    Total Energy =                       -501.2200179715960076
    Molecular point group: c1
  Basis Set: CC-PVTZ
  Basis Set:

  -Total Gradient:
     Atom            X                  Y                   Z
    ------   -----------------  -----------------  -----------------
       1       -0.000016066253    -0.000025034594     0.000013882834
       2        0.000000560787     0.000021686495     0.000020834504
       3       -0.000015790469     0.000001509572    -0.000025939439
       4       -0.000004203974     0.000011861506    -0.000016317019
       5        0.000279695672    -0.000712953348     0.000756528534
       6        0.000005685195     0.000009901900     0.000010038903
       7        0.000006912110     0.000007862138    -0.000007653240
       8       -0.000626498644     0.001033890063    -0.000799868567
       9        0.000005947356    -0.000003506522    -0.000006547199
      10       -0.000008891277    -0.000007469821    -0.000001807064
      11        0.001248749479    -0.000370306934    -0.001060325543
      12       -0.000000674399    -0.000001266886     0.000004142073
      13       -0.000004130593    -0.000004678331    -0.000001201509
      14        0.000007791488    -0.000015053995     0.000012561715
      15       -0.000915805462     0.000061948069     0.001099525790
      16        0.000006257095     0.000003957915     0.000000632126
      17        0.000004538102     0.000006623855    -0.000003257607
      18        0.000002156588    -0.000002901670     0.000007087849
      19       -0.000001286483    -0.000007547484    -0.000002137572
      20       -0.000007354784     0.000009253526     0.000005172852
      21       -0.000001986854    -0.000002893601    -0.000002273050
      22        0.000003507234     0.000002371890     0.000002120500
      23        0.000000490988     0.000002866294    -0.000001712287
      24       -0.000000649242    -0.000001879297     0.000002833905
      25        0.000001146202     0.000002454600    -0.000004064528
      26        0.000027134109    -0.000014553229    -0.000007189637
      27        0.000003747111    -0.000000777374     0.000014300037
      28        0.000007255971     0.000005701543    -0.000005209189
      29       -0.000008237048    -0.000011066281    -0.000004158176

  **** Optimization is complete! (in 8 steps) ****
    Final optimized geometry and variables:
    Molecular point group: c1

    Geometry (in Angstrom), charge = 0, multiplicity = 1:

    O            2.914080653526     1.274564119445    -0.936869395914
    C            2.431324082222     0.420848676503    -0.274299965849
    C            1.008620142905     0.395972779994     0.222994815030
    O            3.098350739897    -0.649788541752     0.125522368928
    C            0.192382727988     1.609821317992    -0.201948666431
    H            0.568177947001    -0.531360242701    -0.125039496489
    H            1.049660761623     0.315387308549     1.304443596644
    C           -1.254046606831     1.564171987309     0.294516601820
    H            0.210160383385     1.696437389575    -1.282559494894
    H            0.675856901157     2.502043326540     0.177559003994
    C           -2.138252678966     0.496909245812    -0.384364927113
    H           -1.695783135712     2.542995727566     0.148564989188
    H           -1.247761382162     1.401056943596     1.368904361590
    C           -2.884979184591    -0.400423524620     0.600884460358
    H           -2.867820637859     0.987131647801    -1.020879392778
    H           -1.539272388932    -0.124810768796    -1.042363002233
    C           -3.785401859751    -1.429540844068    -0.075415414782
    H           -3.483998388263     0.218871303213     1.264602228633
    H           -2.166072692079    -0.914214810791     1.235436198665
    C           -4.526024410435    -2.322171409451     0.914893830251
    H           -4.506216397045    -0.915891667126    -0.705702255380
    H           -3.187823388035    -2.047912728195    -0.739961704311
    H           -5.156077410952    -3.039866801566     0.402174077217
    H           -5.159914543417    -1.735873780551     1.571847225653
    H           -3.831615819912    -2.877169311599     1.536979785291
    C            4.451265786145    -0.756203626386    -0.268757834933
    H            4.534299893587    -0.777534488535    -1.345258390081
    H            4.811725520450    -1.681463876811     0.150594214781
    H            5.026079617448     0.074728496188     0.112482078223

  Mulliken Charges: (a.u.)
   Center  Symbol    Alpha    Beta     Spin     Total
       1     O     4.19667  4.19667  0.00000 -0.39333
       2     C     2.80454  2.80454  0.00000  0.39092
       3     C     3.10187  3.10187  0.00000 -0.20375
       4     O     4.14749  4.14749  0.00000 -0.29497
       5     C     3.08970  3.08970  0.00000 -0.17940
       6     H     0.43983  0.43983  0.00000  0.12034
       7     H     0.43938  0.43938  0.00000  0.12124
       8     C     3.10825  3.10825  0.00000 -0.21649
       9     H     0.44517  0.44517  0.00000  0.10965
      10     H     0.44157  0.44157  0.00000  0.11686
      11     C     3.10563  3.10563  0.00000 -0.21127
      12     H     0.44107  0.44107  0.00000  0.11786
      13     H     0.45490  0.45490  0.00000  0.09021
      14     C     3.08558  3.08558  0.00000 -0.17116
      15     H     0.44417  0.44417  0.00000  0.11165
      16     H     0.45210  0.45210  0.00000  0.09580
      17     C     3.08466  3.08466  0.00000 -0.16931
      18     H     0.45279  0.45279  0.00000  0.09441
      19     H     0.45536  0.45536  0.00000  0.08929
      20     C     3.15008  3.15008  0.00000 -0.30016
      21     H     0.45410  0.45410  0.00000  0.09181
      22     H     0.45472  0.45472  0.00000  0.09057
      23     H     0.44821  0.44821  0.00000  0.10357
      24     H     0.45502  0.45502  0.00000  0.08995
      25     H     0.45524  0.45524  0.00000  0.08951
      26     C     3.03809  3.03809  0.00000 -0.07617
      27     H     0.45434  0.45434  0.00000  0.09133
      28     H     0.44525  0.44525  0.00000  0.10949
      29     H     0.45423  0.45423  0.00000  0.09155

   Total alpha = 44.00000, Total beta = 44.00000, Total charge = -0.00000

*** Psi4 exiting successfully. Buy a developer a beer!
