                              Psi4 1.0.54 Driver

  ==> Input File <==

--------------------------------------------------------------------------
set {
	reference rhf
	basis cc-pvtz
}

set_num_threads( 4 )
memory 2 gb

molecule MOL {
0 1

H	 0.250317	 -1.048115	 -1.435363
C	 0.390193	 0.033974	 -1.563251
C	 0.062554	 0.862911	 -0.350953
O	 0.778662	 0.462604	 -2.594039
C	 -1.339253	 0.577611	 0.196911
H	 0.184850	 1.907974	 -0.604690
H	 0.800859	 0.612749	 0.407598
C	 -1.813142	 -0.849710	 -0.061612
H	 -2.032833	 1.276441	 -0.256032
H	 -1.357249	 0.782269	 1.263793
H	 -1.839268	 -1.063526	 -1.124230
H	 -2.810118	 -1.001930	 0.334000
H	 -1.159274	 -1.579980	 0.402282

	symmetry c1
}
set optking {
	frozen_dihedral = ("
		6 3 5 9
	")
}

ee,wfn = optimize('scf', return_wfn=True)
oeprop( wfn, 'DIPOLE', 'QUADRUPOLE', 'MULLIKEN_CHARGES')
f=open( 'psi4out.xyz', 'w' )
f.write( "13  " )
f.write( str(ee) + "\n" )
f.write( MOL.save_string_xyz() )
f.close()
--------------------------------------------------------------------------

    Molecular point group: c1
  Charge       = 0
  Multiplicity = 1
  Basis Set: CC-PVTZ
  Basis Set:
  @DF-RHF Final Energy:  -231.06292754280602
    Total Energy =                       -231.0629275428060510
    Molecular point group: c1
  Basis Set: CC-PVTZ
  Basis Set:
  Basis Set: CC-PVTZ
  Basis Set:
  @DF-RHF Final Energy:  -231.06069358854523
    Total Energy =                       -231.0606935885453481
  Basis Set: CC-PVTZ
  Basis Set:
  Basis Set: CC-PVTZ
  Basis Set:
  @DF-RHF Final Energy:  -231.06526866362688
    Total Energy =                       -231.0652686636267674
  Basis Set: CC-PVTZ
  Basis Set:
  Basis Set: CC-PVTZ
  Basis Set:
  @DF-RHF Final Energy:  -231.06190218124635
    Total Energy =                       -231.0619021812463814
  Basis Set: CC-PVTZ
  Basis Set:
  @DF-RHF Final Energy:  -231.06576975919242
    Total Energy =                       -231.0657697591923352
  @DF-RHF Final Energy:  -231.06595916178546
    Total Energy =                       -231.0659591617855426
  Basis Set: CC-PVTZ
  Basis Set:
  @DF-RHF Final Energy:  -231.06599312719445
    Total Energy =                       -231.0659931271941900
  Basis Set: CC-PVTZ
  Basis Set:
  Basis Set: CC-PVTZ
  Basis Set:
  @DF-RHF Final Energy:  -231.06601801185886
    Total Energy =                       -231.0660180118588016
  Basis Set: CC-PVTZ
  Basis Set:
  Basis Set: CC-PVTZ
  Basis Set:
  @DF-RHF Final Energy:  -231.06602459152302
    Total Energy =                       -231.0660245915230462
  Basis Set: CC-PVTZ
  Basis Set:
  Charge       = 0
  Multiplicity = 1
  Basis Set: CC-PVTZ
  Basis Set:

    Orbital Energies (a.u.)
    -----------------------

    Doubly Occupied:

       1A    -20.551532     2A    -11.320200     3A    -11.237048
       4A    -11.234221     5A    -11.223589     6A     -1.406038
       7A     -1.084493     8A     -0.974361     9A     -0.858517
      10A     -0.776321    11A     -0.682274    12A     -0.642524
      13A     -0.617344    14A     -0.605044    15A     -0.563312
      16A     -0.535416    17A     -0.515115    18A     -0.490019
      19A     -0.481797    20A     -0.410163

  @DF-RHF Final Energy:  -231.06602499574819

   => Energetics <=

    Nuclear Repulsion Energy =            174.3039251915103591
    One-Electron Energy =                -658.3212460672316411
    Two-Electron Energy =                 252.9512958799729745
    DFT Exchange-Correlation Energy =       0.0000000000000000
    Empirical Dispersion Energy =           0.0000000000000000
    PCM Polarization Energy =               0.0000000000000000
    EFP Energy =                            0.0000000000000000
    Total Energy =                       -231.0660249957483074
    Molecular point group: c1
  Basis Set: CC-PVTZ
  Basis Set:

  -Total Gradient:
     Atom            X                  Y                   Z
    ------   -----------------  -----------------  -----------------
       1       -0.000002358977     0.000010027630    -0.000009824153
       2        0.000002200880    -0.000032937190     0.000039369764
       3        0.002566939030    -0.000218789849     0.006644783910
       4       -0.000000904289     0.000013043878    -0.000011461205
       5       -0.001860022495    -0.002229612294    -0.006474911901
       6       -0.001835999926     0.000542858060    -0.004584974615
       7        0.000012171749    -0.000003505205    -0.000007749688
       8       -0.000003164296     0.000010970038     0.000016696192
       9        0.001129693788     0.001918843746     0.004379990249
      10       -0.000009575267    -0.000015208954     0.000003440154
      11        0.000003769714     0.000006933325    -0.000002581256
      12       -0.000007584811    -0.000000449043     0.000004986205
      13        0.000004834899    -0.000002174143     0.000002236341

  **** Optimization is complete! (in 10 steps) ****
    Final optimized geometry and variables:
    Molecular point group: c1

    Geometry (in Angstrom), charge = 0, multiplicity = 1:

    H            0.934000218870    -1.040747619116    -0.993831318844
    C            0.812825804335     0.027183498178    -0.781797189861
    C            0.600800592460     0.396374703639     0.664861560555
    O            0.856485124864     0.810884964575    -1.667169066484
    C           -0.808525010576     0.045804900379     1.187884278376
    H            0.760260921517     1.464114856747     0.725718956492
    H            1.355094403648    -0.118818171235     1.251533420615
    C           -1.418315790647    -1.249765210159     0.660623234786
    H           -1.468782963158     0.882775755749     0.993740479696
    H           -0.745997534391    -0.016063839965     2.269129615255
    H           -1.600883555005    -1.208714858031    -0.406937156814
    H           -2.368375380682    -1.438147545213     1.145064371359
    H           -0.775551981682    -2.101617207546     0.857234777550

  Mulliken Charges: (a.u.)
   Center  Symbol    Alpha    Beta     Spin     Total
       1     H     0.46172  0.46172  0.00000  0.07657
       2     C     2.90562  2.90562  0.00000  0.18876
       3     C     3.09072  3.09072  0.00000 -0.18143
       4     O     4.16581  4.16581  0.00000 -0.33162
       5     C     3.08980  3.08980  0.00000 -0.17960
       6     H     0.44025  0.44025  0.00000  0.11950
       7     H     0.44916  0.44916  0.00000  0.10169
       8     C     3.15830  3.15830  0.00000 -0.31661
       9     H     0.44510  0.44510  0.00000  0.10979
      10     H     0.44976  0.44976  0.00000  0.10048
      11     H     0.44920  0.44920  0.00000  0.10160
      12     H     0.44266  0.44266  0.00000  0.11468
      13     H     0.45191  0.45191  0.00000  0.09619

   Total alpha = 20.00000, Total beta = 20.00000, Total charge = -0.00000

*** Psi4 exiting successfully. Buy a developer a beer!
