                              Psi4 1.0.54 Driver

  ==> Input File <==

--------------------------------------------------------------------------
set {
	reference rhf
	basis cc-pvtz
}

set_num_threads( 4 )
memory 2 gb

molecule MOL {
0 1

H	 -0.667902	 4.397656	 1.085351
O	 0.010297	 3.803414	 0.822448
C	 -0.487159	 2.492331	 0.777530
C	 0.633302	 1.565810	 0.350624
H	 -0.862845	 2.194048	 1.754086
H	 -1.313795	 2.422729	 0.073500
C	 0.196029	 0.106276	 0.266738
H	 1.452220	 1.669301	 1.055523
H	 1.007125	 1.899304	 -0.612161
C	 1.330220	 -0.826136	 -0.155230
H	 -0.197912	 -0.203331	 1.229893
H	 -0.622901	 0.013461	 -0.443418
C	 2.719700	 -0.407669	 0.328325
H	 1.339388	 -0.911200	 -1.239363
H	 1.119001	 -1.821953	 0.224128
C	 3.241564	 0.893452	 -0.276737
H	 3.418299	 -1.204729	 0.093035
H	 2.711776	 -0.323368	 1.411960
H	 3.254204	 0.841071	 -1.360784
H	 2.634460	 1.745075	 0.005842
H	 4.254264	 1.092401	 0.054971

	symmetry c1
}
set optking {
	frozen_dihedral = ("
		4 7 10 14
	")
}

ee,wfn = optimize('scf', return_wfn=True)
oeprop( wfn, 'DIPOLE', 'QUADRUPOLE', 'MULLIKEN_CHARGES')
f=open( 'psi4out.xyz', 'w' )
f.write( "21  " )
f.write( str(ee) + "\n" )
f.write( MOL.save_string_xyz() )
f.close()
--------------------------------------------------------------------------

    Molecular point group: c1
  Charge       = 0
  Multiplicity = 1
  Basis Set: CC-PVTZ
  Basis Set:
  @DF-RHF Final Energy:  -310.30283739572354
    Total Energy =                       -310.3028373957238273
    Molecular point group: c1
  Basis Set: CC-PVTZ
  Basis Set:
  Basis Set: CC-PVTZ
  Basis Set:
  @DF-RHF Final Energy:  -310.31910629116231
    Total Energy =                       -310.3191062911624272
  Basis Set: CC-PVTZ
  Basis Set:
  Basis Set: CC-PVTZ
  Basis Set:
  @DF-RHF Final Energy:  -310.32306372579529
    Total Energy =                       -310.3230637257953504
  Basis Set: CC-PVTZ
  Basis Set:
  Basis Set: CC-PVTZ
  Basis Set:
  @DF-RHF Final Energy:  -310.32437426650358
    Total Energy =                       -310.3243742665035256
  Basis Set: CC-PVTZ
  Basis Set:
  @DF-RHF Final Energy:  -310.32490021360599
    Total Energy =                       -310.3249002136060426
  @DF-RHF Final Energy:  -310.32512246880032
    Total Energy =                       -310.3251224688001457
  Basis Set: CC-PVTZ
  Basis Set:
  @DF-RHF Final Energy:  -310.32517657987711
    Total Energy =                       -310.3251765798776205
  Basis Set: CC-PVTZ
  Basis Set:
  Basis Set: CC-PVTZ
  Basis Set:
  @DF-RHF Final Energy:  -310.32518201554859
    Total Energy =                       -310.3251820155483074
  Basis Set: CC-PVTZ
  Basis Set:
  Basis Set: CC-PVTZ
  Basis Set:
  @DF-RHF Final Energy:  -310.32518354092480
    Total Energy =                       -310.3251835409247974
  Basis Set: CC-PVTZ
  Basis Set:
  Charge       = 0
  Multiplicity = 1
  Basis Set: CC-PVTZ
  Basis Set:

    Orbital Energies (a.u.)
    -----------------------

    Doubly Occupied:

       1A    -20.545555     2A    -11.264986     3A    -11.214626
       4A    -11.212599     5A    -11.211821     6A    -11.208627
       7A    -11.202315     8A     -1.363386     9A     -1.084264
      10A     -1.030393    11A     -0.958875    12A     -0.874259
      13A     -0.816348    14A     -0.770209    15A     -0.693593
      16A     -0.660630    17A     -0.625114    18A     -0.607799
      19A     -0.583444    20A     -0.569614    21A     -0.540542
      22A     -0.524644    23A     -0.505604    24A     -0.490847
      25A     -0.485052    26A     -0.452579    27A     -0.448170
      28A     -0.443159    29A     -0.437537

  @DF-RHF Final Energy:  -310.32518383455277

   => Energetics <=

    Nuclear Repulsion Energy =            319.7989067255610394
    One-Electron Energy =               -1054.5949945327733985
    Two-Electron Energy =                 424.4709039726592437
    DFT Exchange-Correlation Energy =       0.0000000000000000
    Empirical Dispersion Energy =           0.0000000000000000
    PCM Polarization Energy =               0.0000000000000000
    EFP Energy =                            0.0000000000000000
    Total Energy =                       -310.3251838345531723
    Molecular point group: c1
  Basis Set: CC-PVTZ
  Basis Set:

  -Total Gradient:
     Atom            X                  Y                   Z
    ------   -----------------  -----------------  -----------------
       1       -0.000002544082     0.000009376491     0.000004238088
       2       -0.000009430336     0.000003959102    -0.000004700424
       3        0.000017046861     0.000004482722     0.000016181302
       4        0.001018844848    -0.000588244371     0.004238698315
       5       -0.000009457449    -0.000003973961     0.000002049840
       6        0.000009163942     0.000000803178     0.000002015064
       7       -0.002311145619    -0.000275878841    -0.006152370538
       8       -0.000021518928     0.000001818265    -0.000003147112
       9        0.000004773984     0.000002387363     0.000000255081
      10        0.004760436558     0.005543577512     0.001698840000
      11        0.000000759564    -0.000001605050     0.000003460362
      12        0.000009575704    -0.000000464531    -0.000005501717
      13        0.000008490438     0.000024735478     0.000009779770
      14       -0.003451033847    -0.004699594088     0.000205623400
      15        0.000001981887     0.000000615046     0.000003895373
      16       -0.000014596945    -0.000001607248    -0.000014576609
      17       -0.000014845686    -0.000009878784    -0.000003692439
      18       -0.000008812174    -0.000010198866     0.000006400492
      19        0.000006888850     0.000003546056    -0.000007761319
      20        0.000004693747    -0.000007586214    -0.000001838874
      21        0.000000728679     0.000003730743     0.000002151944

  **** Optimization is complete! (in 10 steps) ****
    Final optimized geometry and variables:
    Molecular point group: c1

    Geometry (in Angstrom), charge = 0, multiplicity = 1:

    H           -2.229031632399     3.119151678537     0.861431011689
    O           -1.469998874348     2.634045408117     0.595588698085
    C           -1.784051338543     1.271573827263     0.478308597349
    C           -0.535792723232     0.524986659714     0.050621815625
    H           -2.142430162875     0.880541574628     1.428286066035
    H           -2.574046072529     1.124926528737    -0.255151539020
    C           -0.789920412293    -0.974023954379    -0.089373839664
    H            0.237910213464     0.715179283798     0.784048438600
    H           -0.194416927596     0.949162563081    -0.887696145012
    C            0.400175784665    -1.865667419925    -0.493266507159
    H           -1.160528596240    -1.330718870988     0.869057777626
    H           -1.595161094209    -1.140606015446    -0.798474376405
    C            1.783279307008    -1.535402690570     0.080721300083
    H            0.448900646051    -1.946727493743    -1.575970075534
    H            0.142131236639    -2.869551104706    -0.168409011708
    C            2.598570231390    -0.516796921085    -0.714109401557
    H            2.354661626587    -2.457264369689     0.120664756874
    H            1.683785196827    -1.205829567866     1.110986647327
    H            2.745464801020    -0.858065260126    -1.733604819504
    H            2.123153343785     0.453319085187    -0.757433091558
    H            3.578232865834    -0.382160167074    -0.269001890616

  Mulliken Charges: (a.u.)
   Center  Symbol    Alpha    Beta     Spin     Total
       1     H     0.39749  0.39749  0.00000  0.20503
       2     O     4.19469  4.19469  0.00000 -0.38938
       3     C     2.96537  2.96537  0.00000  0.06926
       4     C     3.09444  3.09444  0.00000 -0.18888
       5     H     0.47462  0.47462  0.00000  0.05076
       6     H     0.47357  0.47357  0.00000  0.05287
       7     C     3.10219  3.10219  0.00000 -0.20438
       8     H     0.44702  0.44702  0.00000  0.10596
       9     H     0.44934  0.44934  0.00000  0.10132
      10     C     3.09619  3.09619  0.00000 -0.19239
      11     H     0.45526  0.45526  0.00000  0.08948
      12     H     0.44991  0.44991  0.00000  0.10017
      13     C     3.10132  3.10132  0.00000 -0.20263
      14     H     0.45324  0.45324  0.00000  0.09353
      15     H     0.44762  0.44762  0.00000  0.10476
      16     C     3.14883  3.14883  0.00000 -0.29766
      17     H     0.44496  0.44496  0.00000  0.11008
      18     H     0.45138  0.45138  0.00000  0.09724
      19     H     0.45540  0.45540  0.00000  0.08921
      20     H     0.44871  0.44871  0.00000  0.10257
      21     H     0.44845  0.44845  0.00000  0.10310

   Total alpha = 29.00000, Total beta = 29.00000, Total charge =  0.00000

*** Psi4 exiting successfully. Buy a developer a beer!
