  ==> Input File <==

--------------------------------------------------------------------------
set {
	reference rhf
	basis 6-31G*
}

set_num_threads( 4 )
memory 2 gb

molecule MOL {
0 1

H	 1.953160	 -0.880155	 1.223130
C	 1.948321	 -0.221690	 0.346088
C	 0.692068	 0.589600	 0.160137
O	 2.890269	 -0.184526	 -0.377432
C	 -0.558097	 -0.297372	 0.091132
H	 0.803019	 1.186927	 -0.737287
H	 0.606467	 1.268113	 1.008148
C	 -1.850991	 0.512573	 -0.019058
H	 -0.476753	 -0.965681	 -0.762987
H	 -0.604799	 -0.930658	 0.975228
C	 -3.096943	 -0.368295	 -0.099594
H	 -1.800724	 1.150330	 -0.898172
H	 -1.931651	 1.177355	 0.838044
H	 -3.060452	 -1.020287	 -0.967456
H	 -3.996858	 0.233488	 -0.175704
H	 -3.191959	 -0.995686	 0.782074

	symmetry c1
}
set optking {
	frozen_dihedral = ("
		6 3 5 9
	")
}

ee = optimize('scf')
oeprop('DIPOLE', 'QUADRUPOLE', 'MULLIKEN_CHARGES')
f=open( 'psi4out.xyz', 'w' )
f.write( "16  " )
f.write( str(ee) + "\n" )
f.write( MOL.save_string_xyz() )
f.close()
--------------------------------------------------------------------------

    Molecular point group: c1
  Charge       = 0
  Multiplicity = 1
  Basis Set: 6-31G*
  Basis Set:
  @DF-RHF Final Energy:  -270.01992394110323
    Total Energy =                       -270.0199239411028884
    Molecular point group: c1
  Basis Set: 6-31G*
  Basis Set:
  Basis Set: 6-31G*
  Basis Set:
  @DF-RHF Final Energy:  -270.01986033496257
    Total Energy =                       -270.0198603349623454
  Basis Set: 6-31G*
  Basis Set:
  Basis Set: 6-31G*
  Basis Set:
  @DF-RHF Final Energy:  -270.01992464429225
    Total Energy =                       -270.0199246442923595
  Basis Set: 6-31G*
  Basis Set:
  Charge       = 0
  Multiplicity = 1
  Basis Set: 6-31G*
  Basis Set:

    Orbital Energies (a.u.)
    -----------------------

    Doubly Occupied:

       1A    -20.562488     2A    -11.326548     3A    -11.236673
       4A    -11.235264     5A    -11.229396     6A    -11.218496
       7A     -1.402289     8A     -1.096616     9A     -1.018956
      10A     -0.906009    11A     -0.812166    12A     -0.793623
      13A     -0.677985    14A     -0.647500    15A     -0.630216
      16A     -0.602995    17A     -0.581890    18A     -0.550587
      19A     -0.527930    20A     -0.508684    21A     -0.487913
      22A     -0.482014    23A     -0.478660    24A     -0.409044

  @DF-RHF Final Energy:  -270.01992467828188

   => Energetics <=

    Nuclear Repulsion Energy =            228.8348181378662503
    One-Electron Energy =                -818.8616022710734796
    Two-Electron Energy =                 320.0068594549253476
    DFT Exchange-Correlation Energy =       0.0000000000000000
    Empirical Dispersion Energy =           0.0000000000000000
    PCM Polarization Energy =               0.0000000000000000
    EFP Energy =                            0.0000000000000000
    Total Energy =                       -270.0199246782818818
    Molecular point group: c1
  Basis Set: 6-31G*
  Basis Set:

  -Total Gradient:
     Atom            X                  Y                   Z
    ------   -----------------  -----------------  -----------------
       1       -0.000002124178    -0.000008909987    -0.000005784296
       2        0.000013365896     0.000022196961     0.000012070758
       3       -0.000157174791     0.000180338110     0.000068737473
       4       -0.000005661530    -0.000003989353     0.000001617471
       5        0.000131183826    -0.000182016348     0.000115163346
       6        0.000096980159    -0.000135555255    -0.000078561121
       7        0.000007710445    -0.000000731223     0.000001424615
       8        0.000001465257    -0.000002621452    -0.000012867229
       9       -0.000078605737     0.000127893458    -0.000106186056
      10        0.000000535543    -0.000001637906     0.000000026143
      11       -0.000003614009     0.000001381532     0.000010583743
      12       -0.000001263291     0.000000711177    -0.000003185576
      13       -0.000002563948     0.000002050100    -0.000003798478
      14        0.000000354120     0.000004759717     0.000000738313
      15       -0.000001290931    -0.000000270143     0.000003401193
      16        0.000000703166    -0.000003599388    -0.000003380298

  **** Optimization is complete! (in 4 steps) ****
    Final optimized geometry and variables:
    Molecular point group: c1

    Geometry (in Angstrom), charge = 0, multiplicity = 1:

    H            1.953429660908    -0.879420310076     1.210244906218
    C            1.947877297263    -0.219617722330     0.334338736587
    C            0.691512025671     0.591834986817     0.150368585626
    O            2.888141727707    -0.183437453251    -0.391423488859
    C           -0.558291234571    -0.295475947620     0.080529291528
    H            0.802364574385     1.189289808830    -0.746915256360
    H            0.606786680109     1.269310666943     0.999243850084
    C           -1.851150524874     0.514339306120    -0.030908260227
    H           -0.476138429459    -0.963413037087    -0.773820871080
    H           -0.605892181843    -0.928454425310     0.964761458611
    C           -3.096838423944    -0.366775170914    -0.111099424102
    H           -1.800498105666     1.151155475874    -0.910728847406
    H           -1.932331198519     1.180222895313     0.825339515626
    H           -3.060056852447    -1.019841194643    -0.978121192243
    H           -3.996700300665     0.234932851537    -0.188283130611
    H           -3.192290608038    -0.993263821651     0.771140027875

  Mulliken Charges: (a.u.)
   Center  Symbol    Alpha    Beta     Spin     Total
       1     H     0.43207  0.43207  0.00000  0.13585
       2     C     2.82985  2.82985  0.00000  0.34029
       3     C     3.20797  3.20797  0.00000 -0.41594
       4     O     4.23710  4.23710  0.00000 -0.47420
       5     C     3.16436  3.16436  0.00000 -0.32873
       6     H     0.39925  0.39925  0.00000  0.20150
       7     H     0.40982  0.40982  0.00000  0.18037
       8     C     3.15155  3.15155  0.00000 -0.30310
       9     H     0.41272  0.41272  0.00000  0.17456
      10     H     0.41934  0.41934  0.00000  0.16132
      11     C     3.24049  3.24049  0.00000 -0.48098
      12     H     0.41836  0.41836  0.00000  0.16329
      13     H     0.42090  0.42090  0.00000  0.15820
      14     H     0.41926  0.41926  0.00000  0.16148
      15     H     0.41640  0.41640  0.00000  0.16720
      16     H     0.42055  0.42055  0.00000  0.15889

   Total alpha = 24.00000, Total beta = 24.00000, Total charge =  0.00000
