  ==> Input File <==

--------------------------------------------------------------------------
set {
	reference rhf
	basis 6-31G*
}

set_num_threads( 4 )
memory 2 gb

molecule MOL {
0 1

H	 -3.161837	 0.500524	 -0.000234
C	 -2.367097	 -0.232926	 -0.000000
O	 -1.158440	 0.455814	 -0.000122
H	 -2.468853	 -0.861886	 -0.882833
H	 -2.468942	 -0.861421	 0.883154
C	 -0.029776	 -0.365156	 0.000148
C	 0.382020	 -0.632840	 -1.437013
H	 -0.247972	 -1.303134	 0.512482
H	 0.784286	 0.116031	 0.543904
C	 1.616067	 -1.528706	 -1.534148
H	 -0.455053	 -1.090233	 -1.955436
H	 0.570051	 0.318960	 -1.924270
H	 1.440475	 -2.496745	 -1.073181
H	 1.887653	 -1.702723	 -2.569911
H	 2.472827	 -1.077830	 -1.041120

	symmetry c1
}
set optking {
	frozen_dihedral = ("
		8 6 3 2
	")
}

ee = optimize('scf')
oeprop('DIPOLE', 'QUADRUPOLE', 'MULLIKEN_CHARGES')
f=open( 'psi4out.xyz', 'w' )
f.write( "15  " )
f.write( str(ee) + "\n" )
f.write( MOL.save_string_xyz() )
f.close()
--------------------------------------------------------------------------

    Molecular point group: c1
  Charge       = 0
  Multiplicity = 1
  Basis Set: 6-31G*
  Basis Set:
  @DF-RHF Final Energy:  -232.13525196706277
    Total Energy =                       -232.1352519670629135
    Molecular point group: c1
  Basis Set: 6-31G*
  Basis Set:
  Basis Set: 6-31G*
  Basis Set:
  @DF-RHF Final Energy:  -232.13614263245577
    Total Energy =                       -232.1361426324558579
  Basis Set: 6-31G*
  Basis Set:
  Basis Set: 6-31G*
  Basis Set:
  @DF-RHF Final Energy:  -232.13649691801027
    Total Energy =                       -232.1364969180103799
  Basis Set: 6-31G*
  Basis Set:
  Basis Set: 6-31G*
  Basis Set:
  @DF-RHF Final Energy:  -232.13650207892260
    Total Energy =                       -232.1365020789226037
  Basis Set: 6-31G*
  Basis Set:
  Charge       = 0
  Multiplicity = 1
  Basis Set: 6-31G*
  Basis Set:

    Orbital Energies (a.u.)
    -----------------------

    Doubly Occupied:

       1A    -20.551411     2A    -11.266146     3A    -11.264268
       4A    -11.215336     5A    -11.214137     6A     -1.374427
       7A     -1.055999     8A     -0.957867     9A     -0.881510
      10A     -0.806904    11A     -0.669405    12A     -0.654857
      13A     -0.636184    14A     -0.599001    15A     -0.568062
      16A     -0.534651    17A     -0.514541    18A     -0.496706
      19A     -0.483078    20A     -0.459550    21A     -0.404603

  @DF-RHF Final Energy:  -232.13650234799638

   => Energetics <=

    Nuclear Repulsion Energy =            190.9702168486178948
    One-Electron Energy =                -692.9961543172527172
    Two-Electron Energy =                 269.8894351206383249
    DFT Exchange-Correlation Energy =       0.0000000000000000
    Empirical Dispersion Energy =           0.0000000000000000
    PCM Polarization Energy =               0.0000000000000000
    EFP Energy =                            0.0000000000000000
    Total Energy =                       -232.1365023479964975
    Molecular point group: c1
  Basis Set: 6-31G*
  Basis Set:

  -Total Gradient:
     Atom            X                  Y                   Z
    ------   -----------------  -----------------  -----------------
       1       -0.000010764120    -0.000011185942     0.000000722579
       2        0.000017207092     0.000004415412     0.000916865730
       3       -0.000146177197    -0.000090023058    -0.001587179594
       4       -0.000002039451    -0.000005482255     0.000001467996
       5        0.000003221367     0.000001193960    -0.000002211478
       6        0.000484834281     0.000586930957     0.001656699096
       7       -0.000013743845    -0.000021520879     0.000041458339
       8       -0.000364779000    -0.000450666429    -0.000995704105
       9        0.000013200340    -0.000010203348    -0.000001992648
      10        0.000018521884     0.000018625682    -0.000026943155
      11       -0.000007467815    -0.000000057737     0.000004949157
      12       -0.000000678029    -0.000005848217    -0.000004651270
      13       -0.000006380839     0.000000983353    -0.000005976863
      14        0.000018172489    -0.000007567429    -0.000002552032
      15       -0.000003127156    -0.000009594074     0.000005048248

  **** Optimization is complete! (in 5 steps) ****
    Final optimized geometry and variables:
    Molecular point group: c1

    Geometry (in Angstrom), charge = 0, multiplicity = 1:

    H           -2.833859595854     1.022381486993     0.654012322120
    C           -2.066027682068     0.261054251363     0.629822455777
    O           -0.835118477281     0.911768730170     0.596255752389
    H           -2.225314778225    -0.363200877241    -0.246557957977
    H           -2.161422975921    -0.360677735711     1.517804230014
    C            0.288652740332     0.077239679022     0.544974453692
    C            0.743463245972    -0.185227614577    -0.886576221482
    H            0.083985037505    -0.866222976440     1.049351820313
    H            1.077039488288     0.578319606380     1.095548465372
    C            1.998203180085    -1.055961484169    -0.946446645525
    H           -0.060618149679    -0.662036830852    -1.440970462983
    H            0.927796313993     0.771047851041    -1.366699050907
    H            1.826464108906    -2.030186121863    -0.496774990375
    H            2.311807071528    -1.218499164925    -1.972214522701
    H            2.826406239485    -0.590738550436    -0.419127623854

  Mulliken Charges: (a.u.)
   Center  Symbol    Alpha    Beta     Spin     Total
       1     H     0.41233  0.41233  0.00000  0.17534
       2     C     3.08026  3.08026  0.00000 -0.16052
       3     O     4.30745  4.30745  0.00000 -0.61490
       4     H     0.43092  0.43092  0.00000  0.13816
       5     H     0.42935  0.42935  0.00000  0.14130
       6     C     2.98755  2.98755  0.00000  0.02491
       7     C     3.16130  3.16130  0.00000 -0.32260
       8     H     0.43279  0.43279  0.00000  0.13441
       9     H     0.41760  0.41760  0.00000  0.16480
      10     C     3.24823  3.24823  0.00000 -0.49647
      11     H     0.42141  0.42141  0.00000  0.15718
      12     H     0.41397  0.41397  0.00000  0.17206
      13     H     0.42134  0.42134  0.00000  0.15732
      14     H     0.41558  0.41558  0.00000  0.16884
      15     H     0.41991  0.41991  0.00000  0.16017

   Total alpha = 21.00000, Total beta = 21.00000, Total charge =  0.00000
