  ==> Input File <==

--------------------------------------------------------------------------
set {
	reference rhf
	basis 6-31G*
}

set_num_threads( 4 )
memory 2 gb

molecule MOL {
0 1

H	 -3.420663	 1.227371	 -1.044276
O	 -3.452007	 0.283848	 -0.965577
C	 -3.181085	 -0.079926	 0.364119
C	 -1.765924	 0.277073	 0.805136
H	 -3.327791	 -1.152017	 0.410903
H	 -3.905698	 0.375695	 1.036898
C	 -0.677594	 -0.417312	 -0.014550
H	 -1.637766	 1.358238	 0.744969
H	 -1.659588	 0.017670	 1.857098
C	 0.738335	 -0.034840	 0.421385
H	 -0.814977	 -0.178223	 -1.064632
H	 -0.802730	 -1.495410	 0.071702
C	 1.092119	 -0.560029	 1.815336
H	 1.448092	 -0.414359	 -0.309798
H	 0.839909	 1.049679	 0.411073
C	 2.468599	 -0.127700	 2.333554
H	 1.034590	 -1.647405	 1.815204
H	 0.335787	 -0.217324	 2.518423
C	 3.651326	 -0.693740	 1.545416
H	 2.559785	 -0.440893	 3.370803
H	 2.525548	 0.959004	 2.339476
H	 3.613805	 -1.779375	 1.511852
H	 4.592662	 -0.410825	 2.006592
H	 3.669099	 -0.331530	 0.522845

	symmetry c1
}
set optking {
	frozen_dihedral = ("
		13 10 7 11
	")
}

ee = optimize('scf')
oeprop('DIPOLE', 'QUADRUPOLE', 'MULLIKEN_CHARGES')
f=open( 'psi4out.xyz', 'w' )
f.write( "24  " )
f.write( str(ee) + "\n" )
f.write( MOL.save_string_xyz() )
f.close()
--------------------------------------------------------------------------

    Molecular point group: c1
  Charge       = 0
  Multiplicity = 1
  Basis Set: 6-31G*
  Basis Set:
  @DF-RHF Final Energy:  -349.24525749463993
    Total Energy =                       -349.2452574946398158
    Molecular point group: c1
  Basis Set: 6-31G*
  Basis Set:
  Basis Set: 6-31G*
  Basis Set:
  @DF-RHF Final Energy:  -349.24562440315236
    Total Energy =                       -349.2456244031523056
  Basis Set: 6-31G*
  Basis Set:
  Basis Set: 6-31G*
  Basis Set:
  @DF-RHF Final Energy:  -349.24587412341469
    Total Energy =                       -349.2458741234148647
  Basis Set: 6-31G*
  Basis Set:
  Basis Set: 6-31G*
  Basis Set:
  @DF-RHF Final Energy:  -349.24588639236612
    Total Energy =                       -349.2458863923660601
  Basis Set: 6-31G*
  Basis Set:
  Basis Set: 6-31G*
  Basis Set:
  @DF-RHF Final Energy:  -349.24588869773504
    Total Energy =                       -349.2458886977350971
  Basis Set: 6-31G*
  Basis Set:
  Charge       = 0
  Multiplicity = 1
  Basis Set: 6-31G*
  Basis Set:

    Orbital Energies (a.u.)
    -----------------------

    Doubly Occupied:

       1A    -20.553632     2A    -11.267742     3A    -11.217004
       4A    -11.214961     5A    -11.212813     6A    -11.212230
       7A    -11.211156     8A    -11.207474     9A     -1.360226
      10A     -1.088690    11A     -1.047045    12A     -0.984542
      13A     -0.916476    14A     -0.853457    15A     -0.805386
      16A     -0.770489    17A     -0.679678    18A     -0.641348
      19A     -0.631947    20A     -0.619120    21A     -0.599124
      22A     -0.584982    23A     -0.559967    24A     -0.544856
      25A     -0.517274    26A     -0.508392    27A     -0.497458
      28A     -0.479997    29A     -0.468953    30A     -0.456979
      31A     -0.455405    32A     -0.437669    33A     -0.424054

  @DF-RHF Final Energy:  -349.24588859110105

   => Energetics <=

    Nuclear Repulsion Energy =            387.1810655457267671
    One-Electron Energy =               -1240.7928530470674104
    Two-Electron Energy =                 504.3658989102397641
    DFT Exchange-Correlation Energy =       0.0000000000000000
    Empirical Dispersion Energy =           0.0000000000000000
    PCM Polarization Energy =               0.0000000000000000
    EFP Energy =                            0.0000000000000000
    Total Energy =                       -349.2458885911008224
    Molecular point group: c1
  Basis Set: 6-31G*
  Basis Set:

  -Total Gradient:
     Atom            X                  Y                   Z
    ------   -----------------  -----------------  -----------------
       1       -0.000001388411     0.000002862008    -0.000002646429
       2       -0.000033885324     0.000017838912    -0.000008895832
       3        0.000039091841    -0.000048597366    -0.000033183145
       4       -0.000001896858     0.000006146491     0.000095643164
       5       -0.000018797450    -0.000007450702     0.000006470017
       6        0.000018914306     0.000006371558    -0.000013471387
       7       -0.000087764464     0.000332930243     0.000018033920
       8        0.000011115022    -0.000003619994    -0.000004115844
       9       -0.000012698557     0.000019853543     0.000023507193
      10       -0.000117273744     0.000225584621     0.000122028328
      11        0.000172700688    -0.000327218219    -0.000093182188
      12        0.000014070109     0.000014278659     0.000004813064
      13        0.000070088707    -0.000269639861    -0.000070351831
      14       -0.000035440564    -0.000006441095     0.000004240066
      15       -0.000024022904     0.000003755601    -0.000013667528
      16       -0.000000265247     0.000037462923    -0.000031486830
      17       -0.000021537926    -0.000010365773     0.000025027582
      18       -0.000012689891     0.000014113088    -0.000025099036
      19        0.000021298900     0.000004609321    -0.000010283120
      20       -0.000006653954    -0.000020966851    -0.000027139983
      21        0.000012136799     0.000012563315     0.000035135859
      22        0.000001916154     0.000005676814     0.000007131169
      23        0.000011796326    -0.000001836403    -0.000014757199
      24        0.000001186446    -0.000007910834     0.000006249991

  **** Optimization is complete! (in 6 steps) ****
    Final optimized geometry and variables:
    Molecular point group: c1

    Geometry (in Angstrom), charge = 0, multiplicity = 1:

    H           -3.177451027193     1.436587433506    -1.820119989649
    O           -3.211043578904     0.490232937012    -1.794881198466
    C           -3.023419372593     0.054813954307    -0.472373476476
    C           -1.640073662547     0.385888693599     0.078380491856
    H           -3.170346227941    -1.018024474246    -0.492848288970
    H           -3.790438133156     0.474155912773     0.176425226881
    C           -0.505716749634    -0.271398351237    -0.711689487437
    H           -1.507938495951     1.468548916825     0.075790790693
    H           -1.611937799345     0.078612221714     1.120688192349
    C            0.904797509623     0.137147897069    -0.269846618889
    H           -0.630074563692    -0.026140064329    -1.761158149727
    H           -0.604150717481    -1.353689591047    -0.640934201482
    C            1.306010082243    -0.365992193203     1.120534225360
    H            1.608692144072    -0.241215944950    -1.005439620031
    H            0.990959670252     1.222832779459    -0.298282945559
    C            2.716603184872     0.044373963722     1.561608007249
    H            1.225468707101    -1.452017081117     1.144889209570
    H            0.600429783481     0.007219589666     1.858014540424
    C            3.848906184715    -0.577080046226     0.741627045623
    H            2.846652932216    -0.239538844439     2.603111678831
    H            2.801381060749     1.128905846499     1.531211995297
    H            3.781931862924    -1.661763398230     0.744010676744
    H            4.815968275091    -0.306075586263     1.154197313673
    H            3.833237126553    -0.246977542874    -0.291534309279

  Mulliken Charges: (a.u.)
   Center  Symbol    Alpha    Beta     Spin     Total
       1     H     0.28335  0.28335  0.00000  0.43330
       2     O     4.36833  4.36833  0.00000 -0.73667
       3     C     2.99601  2.99601  0.00000  0.00798
       4     C     3.17043  3.17043  0.00000 -0.34087
       5     H     0.41624  0.41624  0.00000  0.16753
       6     H     0.42807  0.42807  0.00000  0.14386
       7     C     3.15456  3.15456  0.00000 -0.30912
       8     H     0.42880  0.42880  0.00000  0.14240
       9     H     0.42056  0.42056  0.00000  0.15889
      10     C     3.15558  3.15558  0.00000 -0.31115
      11     H     0.40915  0.40915  0.00000  0.18170
      12     H     0.42390  0.42390  0.00000  0.15221
      13     C     3.15413  3.15413  0.00000 -0.30826
      14     H     0.41874  0.41874  0.00000  0.16252
      15     H     0.42591  0.42591  0.00000  0.14819
      16     C     3.15191  3.15191  0.00000 -0.30383
      17     H     0.42463  0.42463  0.00000  0.15073
      18     H     0.42181  0.42181  0.00000  0.15637
      19     C     3.24120  3.24120  0.00000 -0.48241
      20     H     0.42142  0.42142  0.00000  0.15716
      21     H     0.42377  0.42377  0.00000  0.15245
      22     H     0.42218  0.42218  0.00000  0.15564
      23     H     0.41949  0.41949  0.00000  0.16103
      24     H     0.41982  0.41982  0.00000  0.16036

   Total alpha = 33.00000, Total beta = 33.00000, Total charge = -0.00000
