  ==> Input File <==

--------------------------------------------------------------------------
set {
	reference rhf
	basis cc-pvtz
}

set_num_threads( 4 )
memory 2 gb

molecule MOL {
0 1

H	 -3.484446	 -0.266839	 0.773767
O	 -3.104611	 -0.225977	 -0.085542
C	 -1.772515	 -0.082671	 -0.024055
C	 -1.093149	 -0.009586	 1.185721
C	 -1.080807	 -0.008258	 -1.221630
H	 -1.636746	 -0.068065	 2.110658
C	 0.273613	 0.137449	 1.191684
H	 -1.623869	 -0.066680	 -2.143417
C	 0.287700	 0.138965	 -1.198353
H	 0.809401	 0.195089	 2.118354
C	 0.981121	 0.213562	 0.000000
H	 0.825348	 0.196804	 -2.126850
C	 2.447402	 0.371303	 0.000000
O	 3.227427	 -0.521847	 0.000000
H	 2.796538	 1.409525	 0.000000

	symmetry c1
}
set optking {
	frozen_dihedral = ("
		7 11 13 14
	")
}

ee = optimize('scf')
oeprop('DIPOLE', 'QUADRUPOLE', 'MULLIKEN_CHARGES')
f=open( 'psi4out.xyz', 'w' )
f.write( "15  " )
f.write( str(ee) + "\n" )
f.write( MOL.save_string_xyz() )
f.close()
--------------------------------------------------------------------------

    Molecular point group: c1
  Charge       = 0
  Multiplicity = 1
  Basis Set: CC-PVTZ
  Basis Set:
  @DF-RHF Final Energy:  -418.42638888864718
    Total Energy =                       -418.4263888886473524
    Molecular point group: c1
  Basis Set: CC-PVTZ
  Basis Set:
  Basis Set: CC-PVTZ
  Basis Set:
  @DF-RHF Final Energy:  -418.42705577717180
    Total Energy =                       -418.4270557771718586
  Basis Set: CC-PVTZ
  Basis Set:
  Basis Set: CC-PVTZ
  Basis Set:
  @DF-RHF Final Energy:  -418.42708447238948
    Total Energy =                       -418.4270844723894243
  Basis Set: CC-PVTZ
  Basis Set:
  Basis Set: CC-PVTZ
  Basis Set:
  @DF-RHF Final Energy:  -418.42703593123406
    Total Energy =                       -418.4270359312342862
  Basis Set: CC-PVTZ
  Basis Set:
  Basis Set: CC-PVTZ
  Basis Set:
  @DF-RHF Final Energy:  -418.42709219789873
    Total Energy =                       -418.4270921978989008
  Basis Set: CC-PVTZ
  Basis Set:
  Charge       = 0
  Multiplicity = 1
  Basis Set: CC-PVTZ
  Basis Set:

    Orbital Energies (a.u.)
    -----------------------

    Doubly Occupied:

       1A    -20.596116     2A    -20.562058     3A    -11.330956
       4A    -11.310966     5A    -11.252572     6A    -11.250777
       7A    -11.242474     8A    -11.240389     9A    -11.234949
      10A     -1.427752    11A     -1.415968    12A     -1.172424
      13A     -1.041150    14A     -1.038482    15A     -0.890074
      16A     -0.863103    17A     -0.803852    18A     -0.756483
      19A     -0.710782    20A     -0.680284    21A     -0.659766
      22A     -0.631016    23A     -0.607539    24A     -0.607101
      25A     -0.594745    26A     -0.565113    27A     -0.533996
      28A     -0.505056    29A     -0.499090    30A     -0.425495
      31A     -0.358378    32A     -0.328117

  @DF-RHF Final Energy:  -418.42709275488528

   => Energetics <=

    Nuclear Repulsion Energy =            401.0664200544234745
    One-Electron Energy =               -1364.7129832697332859
    Two-Electron Energy =                 545.2194704604245317
    DFT Exchange-Correlation Energy =       0.0000000000000000
    Empirical Dispersion Energy =           0.0000000000000000
    PCM Polarization Energy =               0.0000000000000000
    EFP Energy =                            0.0000000000000000
    Total Energy =                       -418.4270927548852796
    Molecular point group: c1
  Basis Set: CC-PVTZ
  Basis Set:

  -Total Gradient:
     Atom            X                  Y                   Z
    ------   -----------------  -----------------  -----------------
       1        0.000006783438     0.000006705723     0.000001571462
       2       -0.000026000822    -0.000028176359     0.000008265080
       3        0.000039267037     0.000045969123    -0.000138168519
       4        0.000064434451     0.000008690672     0.000051440394
       5       -0.000159298547    -0.000023169541     0.000075504038
       6        0.000001218069     0.000001656112    -0.000000514789
       7       -0.000054808728     0.000145008817     0.000066887691
       8        0.000017409881     0.000007098999    -0.000009586564
       9        0.000152393915    -0.000021516280     0.000089316710
      10       -0.000009160453     0.000006923051    -0.000006529230
      11       -0.000030645377    -0.000236327998    -0.000287837855
      12       -0.000018863860     0.000003644767    -0.000003840507
      13        0.000075936633     0.000052356895     0.000440249994
      14       -0.000040783559     0.000035514223    -0.000263540402
      15       -0.000017882074    -0.000004378206    -0.000023217502

  **** Optimization is complete! (in 6 steps) ****
    Final optimized geometry and variables:
    Molecular point group: c1

    Geometry (in Angstrom), charge = 0, multiplicity = 1:

    H           -3.496782783621    -0.267088715942     0.785077811917
    O           -3.118745826701    -0.215306394552    -0.074191276809
    C           -1.781415431910    -0.071642405120    -0.008964193163
    C           -1.099215380016     0.001604005253     1.190834387065
    C           -1.085994188151     0.003765198246    -1.204194346950
    H           -1.634067574994    -0.058921241460     2.120916110044
    C            0.275046919060     0.149150972265     1.193059733116
    H           -1.626678758969    -0.057259084246    -2.127708657791
    C            0.282990712221     0.151166342009    -1.189558373346
    H            0.794333363546     0.199580074211     2.131650759573
    C            0.978291713331     0.220752467008     0.007460238446
    H            0.813528607018     0.203908079341    -2.121775913765
    C            2.468277965391     0.388907660744     0.013511395937
    O            3.236206937753    -0.508522691013     0.022533405421
    H            2.833225217878     1.421631895632     0.006101913229

  Mulliken Charges: (a.u.)
   Center  Symbol    Alpha    Beta     Spin     Total
       1     H     0.38666  0.38666  0.00000  0.22669
       2     O     4.17064  4.17064  0.00000 -0.34127
       3     C     2.85740  2.85740  0.00000  0.28521
       4     C     3.12379  3.12379  0.00000 -0.24759
       5     C     3.09891  3.09891  0.00000 -0.19782
       6     H     0.43229  0.43229  0.00000  0.13543
       7     C     3.08740  3.08740  0.00000 -0.17480
       8     H     0.41714  0.41714  0.00000  0.16571
       9     C     3.07817  3.07817  0.00000 -0.15633
      10     H     0.42138  0.42138  0.00000  0.15724
      11     C     2.95451  2.95451  0.00000  0.09098
      12     H     0.42160  0.42160  0.00000  0.15680
      13     C     2.93580  2.93580  0.00000  0.12839
      14     O     4.15524  4.15524  0.00000 -0.31048
      15     H     0.45907  0.45907  0.00000  0.08186

   Total alpha = 32.00000, Total beta = 32.00000, Total charge = -0.00000
