  ==> Input File <==

--------------------------------------------------------------------------
set {
	reference rhf
	basis cc-pvtz
}

set_num_threads( 4 )
memory 2 gb

molecule MOL {
0 1

H	 -2.698799	 -0.000846	 0.036018
C	 -1.694291	 -0.000483	 0.434279
O	 -0.828718	 -0.000608	 -0.655022
H	 -1.576855	 0.881100	 1.056504
H	 -1.576401	 -0.881658	 1.057001
C	 0.557892	 0.000078	 -0.420099
C	 1.363481	 -0.343191	 -1.668083
C	 1.038747	 1.285405	 0.243951
H	 0.689006	 -0.807132	 0.289717
H	 0.972070	 -1.238688	 -2.134925
H	 2.397908	 -0.523762	 -1.399566
H	 1.350901	 0.458342	 -2.397445
H	 0.422195	 1.519297	 1.103138
H	 2.061418	 1.164097	 0.581889
H	 1.017443	 2.130154	 -0.434640

	symmetry c1
}
set optking {
	frozen_dihedral = ("
		9 6 3 2
	")
}

ee = optimize('scf')
oeprop('DIPOLE', 'QUADRUPOLE', 'MULLIKEN_CHARGES')
f=open( 'psi4out.xyz', 'w' )
f.write( "15  " )
f.write( str(ee) + "\n" )
f.write( MOL.save_string_xyz() )
f.close()
--------------------------------------------------------------------------

    Molecular point group: c1
  Charge       = 0
  Multiplicity = 1
  Basis Set: CC-PVTZ
  Basis Set:
  @DF-RHF Final Energy:  -232.22540250654876
    Total Energy =                       -232.2254025065485621
    Molecular point group: c1
  Basis Set: CC-PVTZ
  Basis Set:
  Basis Set: CC-PVTZ
  Basis Set:
  @DF-RHF Final Energy:  -232.22914705238449
    Total Energy =                       -232.2291470523846897
  Basis Set: CC-PVTZ
  Basis Set:
  Basis Set: CC-PVTZ
  Basis Set:
  @DF-RHF Final Energy:  -232.22974350122956
    Total Energy =                       -232.2297435012294500
  Basis Set: CC-PVTZ
  Basis Set:
  Basis Set: CC-PVTZ
  Basis Set:
  @DF-RHF Final Energy:  -232.22993439053266
    Total Energy =                       -232.2299343905327191
  Basis Set: CC-PVTZ
  Basis Set:
  Basis Set: CC-PVTZ
  Basis Set:
  @DF-RHF Final Energy:  -232.22995476781250
    Total Energy =                       -232.2299547678123872
  Basis Set: CC-PVTZ
  Basis Set:
  Basis Set: CC-PVTZ
  Basis Set:
  @DF-RHF Final Energy:  -232.22995655837713
    Total Energy =                       -232.2299565583770686
  Basis Set: CC-PVTZ
  Basis Set:
  Charge       = 0
  Multiplicity = 1
  Basis Set: CC-PVTZ
  Basis Set:

    Orbital Energies (a.u.)
    -----------------------

    Doubly Occupied:

       1A    -20.544389     2A    -11.272893     3A    -11.260493
       4A    -11.208045     5A    -11.204361     6A     -1.378426
       7A     -1.053775     8A     -0.943487     9A     -0.915464
      10A     -0.792995    11A     -0.675408    12A     -0.639788
      13A     -0.638359    14A     -0.590584    15A     -0.550652
      16A     -0.542433    17A     -0.528920    18A     -0.498607
      19A     -0.492095    20A     -0.455119    21A     -0.411686

  @DF-RHF Final Energy:  -232.22995675342523

   => Energetics <=

    Nuclear Repulsion Energy =            197.7814495050123185
    One-Electron Energy =                -706.8268607851655361
    Two-Electron Energy =                 276.8154545267280469
    DFT Exchange-Correlation Energy =       0.0000000000000000
    Empirical Dispersion Energy =           0.0000000000000000
    PCM Polarization Energy =               0.0000000000000000
    EFP Energy =                            0.0000000000000000
    Total Energy =                       -232.2299567534251423
    Molecular point group: c1
  Basis Set: CC-PVTZ
  Basis Set:

  -Total Gradient:
     Atom            X                  Y                   Z
    ------   -----------------  -----------------  -----------------
       1        0.000005012622    -0.000000233575    -0.000001479177
       2        0.000020266869     0.000515595947     0.000035821413
       3       -0.000002048726    -0.000827381736    -0.000160560150
       4       -0.000000695415     0.000005046521     0.000002007715
       5       -0.000007053024     0.000000080340     0.000004049922
       6       -0.000121579562     0.000659119035     0.000607898804
       7        0.000021559182     0.000014109289    -0.000004085294
       8        0.000004830793     0.000009816710    -0.000003879346
       9        0.000097475961    -0.000395635733    -0.000466596553
      10       -0.000001680825     0.000010502374     0.000011665257
      11       -0.000004821521     0.000002772371    -0.000003700308
      12       -0.000000363640     0.000001724184    -0.000015972068
      13       -0.000006910839    -0.000002187650     0.000001970830
      14       -0.000006081097    -0.000000188113     0.000000922073
      15        0.000002089220     0.000006860036    -0.000008063118

  **** Optimization is complete! (in 7 steps) ****
    Final optimized geometry and variables:
    Molecular point group: c1

    Geometry (in Angstrom), charge = 0, multiplicity = 1:

    H           -2.758232088774    -0.277262185990     0.336348941298
    C           -1.770473379145    -0.160982961535     0.759067529974
    O           -0.864070244355    -0.157755340326    -0.293972205898
    H           -1.749232111249     0.763717773690     1.327276979705
    H           -1.586165525353    -0.988909182860     1.440769888612
    C            0.495947220099    -0.222299730943     0.042607460106
    C            1.245477692414    -0.537661776312    -1.239327506011
    C            0.994503555816     1.065972436120     0.686609795162
    H            0.642814695260    -1.045843030537     0.741801116258
    H            0.875635488229    -1.457266301443    -1.673864343780
    H            2.306340923825    -0.647326143281    -1.046740371882
    H            1.106943603538     0.258410046328    -1.961584150230
    H            0.497743835821     1.268201847813     1.626975515723
    H            2.057448841072     0.996435534012     0.886847407410
    H            0.824615807162     1.906710212111     0.023429581508

  Mulliken Charges: (a.u.)
   Center  Symbol    Alpha    Beta     Spin     Total
       1     H     0.44443  0.44443  0.00000  0.11113
       2     C     3.03837  3.03837  0.00000 -0.07674
       3     O     4.18196  4.18196  0.00000 -0.36392
       4     H     0.46913  0.46913  0.00000  0.06174
       5     H     0.47212  0.47212  0.00000  0.05575
       6     C     2.92151  2.92151  0.00000  0.15699
       7     C     3.14084  3.14084  0.00000 -0.28167
       8     C     3.15311  3.15311  0.00000 -0.30621
       9     H     0.46662  0.46662  0.00000  0.06675
      10     H     0.44720  0.44720  0.00000  0.10560
      11     H     0.45867  0.45867  0.00000  0.08266
      12     H     0.45285  0.45285  0.00000  0.09430
      13     H     0.45153  0.45153  0.00000  0.09694
      14     H     0.45080  0.45080  0.00000  0.09839
      15     H     0.45086  0.45086  0.00000  0.09828

   Total alpha = 21.00000, Total beta = 21.00000, Total charge = -0.00000
