  ==> Input File <==

--------------------------------------------------------------------------
set {
	reference rhf
	basis 6-31G*
}

set_num_threads( 4 )
memory 2 gb

molecule MOL {
0 1

O	 -0.291628	 1.323815	 -0.000732
C	 -0.449655	 0.146360	 0.000961
C	 -1.783294	 -0.549321	 -0.000296
O	 0.550821	 -0.724572	 0.000672
H	 -1.863538	 -1.185371	 -0.874187
H	 -2.574672	 0.185258	 -0.002793
H	 -1.866414	 -1.182381	 0.875436
C	 1.316799	 -0.821700	 -1.186815
H	 0.694052	 -1.123689	 -2.016480
H	 2.069230	 -1.569764	 -0.991888
H	 1.781309	 0.126186	 -1.417216

	symmetry c1
}
set optking {
	frozen_dihedral = ("
		8 4 2 1
	")
}

ee = optimize('scf')
oeprop('DIPOLE', 'QUADRUPOLE', 'MULLIKEN_CHARGES')
f=open( 'psi4out.xyz', 'w' )
f.write( "11  " )
f.write( str(ee) + "\n" )
f.write( MOL.save_string_xyz() )
f.close()
--------------------------------------------------------------------------

    Molecular point group: c1
  Charge       = 0
  Multiplicity = 1
  Basis Set: 6-31G*
  Basis Set:
  @DF-RHF Final Energy:  -266.81820838953814
    Total Energy =                       -266.8182083895380856
    Molecular point group: c1
  Basis Set: 6-31G*
  Basis Set:
  Basis Set: 6-31G*
  Basis Set:
  @DF-RHF Final Energy:  -266.81609583385614
    Total Energy =                       -266.8160958338560249
  Basis Set: 6-31G*
  Basis Set:
  Basis Set: 6-31G*
  Basis Set:
  @DF-RHF Final Energy:  -266.81922460817395
    Total Energy =                       -266.8192246081741814
  Basis Set: 6-31G*
  Basis Set:
  Basis Set: 6-31G*
  Basis Set:
  @DF-RHF Final Energy:  -266.81937209205591
    Total Energy =                       -266.8193720920559713
  Basis Set: 6-31G*
  Basis Set:
  Basis Set: 6-31G*
  Basis Set:
  @DF-RHF Final Energy:  -266.81937712557738
    Total Energy =                       -266.8193771255773186
  Basis Set: 6-31G*
  Basis Set:
  Charge       = 0
  Multiplicity = 1
  Basis Set: 6-31G*
  Basis Set:

    Orbital Energies (a.u.)
    -----------------------

    Doubly Occupied:

       1A    -20.589151     2A    -20.557161     3A    -11.379118
       4A    -11.290567     5A    -11.237453     6A     -1.461779
       7A     -1.368033     8A     -1.029283     9A     -0.959501
      10A     -0.777810    11A     -0.694747    12A     -0.681759
      13A     -0.669341    14A     -0.608495    15A     -0.592624
      16A     -0.573764    17A     -0.538030    18A     -0.501226
      19A     -0.457113    20A     -0.441499

  @DF-RHF Final Energy:  -266.81937765868759

   => Energetics <=

    Nuclear Repulsion Energy =            182.3409054431534457
    One-Electron Energy =                -725.5036617444131934
    Two-Electron Energy =                 276.3433786425720200
    DFT Exchange-Correlation Energy =       0.0000000000000000
    Empirical Dispersion Energy =           0.0000000000000000
    PCM Polarization Energy =               0.0000000000000000
    EFP Energy =                            0.0000000000000000
    Total Energy =                       -266.8193776586876993
    Molecular point group: c1
  Basis Set: 6-31G*
  Basis Set:

  -Total Gradient:
     Atom            X                  Y                   Z
    ------   -----------------  -----------------  -----------------
       1       -0.000272220955    -0.000214835611     0.007133503630
       2       -0.001062214199    -0.001574771021    -0.011488812303
       3       -0.000001677275    -0.000013416373    -0.000013922993
       4        0.004795746129     0.005718128666     0.006593227940
       5        0.000007221353     0.000003660246     0.000017797879
       6       -0.000030913847    -0.000006913257     0.000002733005
       7       -0.000000404791     0.000005540513    -0.000014854745
       8       -0.003471263209    -0.003907551835    -0.002243515317
       9        0.000019731532    -0.000003168314    -0.000001332718
      10        0.000002155449     0.000006630497     0.000010472945
      11        0.000013839815    -0.000013303513     0.000004702674

  **** Optimization is complete! (in 6 steps) ****
    Final optimized geometry and variables:
    Molecular point group: c1

    Geometry (in Angstrom), charge = 0, multiplicity = 1:

    O           -0.163804319910     1.442974353554     0.273228315411
    C           -0.347874690327     0.276066417109     0.227391570191
    C           -1.698735027689    -0.383438588296     0.268536801495
    O            0.663963439870    -0.617289563898     0.231005828351
    H           -1.829003514800    -1.010565028269    -0.607190053847
    H           -2.478341093943     0.362794781804     0.309395664641
    H           -1.753951162362    -1.028692316229     1.138133496723
    C            1.466359376926    -0.675117141447    -0.931454301215
    H            0.887596083484    -1.032719533493    -1.776579675537
    H            2.260561888338    -1.374537857378    -0.722260482034
    H            1.884191014011     0.296469349404    -1.158328094939

  Mulliken Charges: (a.u.)
   Center  Symbol    Alpha    Beta     Spin     Total
       1     O     4.25463  4.25463  0.00000 -0.50926
       2     C     2.62714  2.62714  0.00000  0.74573
       3     C     3.28442  3.28442  0.00000 -0.56884
       4     O     4.30944  4.30944  0.00000 -0.61887
       5     H     0.40604  0.40604  0.00000  0.18791
       6     H     0.39727  0.39727  0.00000  0.20545
       7     H     0.39702  0.39702  0.00000  0.20595
       8     C     3.09341  3.09341  0.00000 -0.18681
       9     H     0.42146  0.42146  0.00000  0.15708
      10     H     0.40381  0.40381  0.00000  0.19239
      11     H     0.40536  0.40536  0.00000  0.18928

   Total alpha = 20.00000, Total beta = 20.00000, Total charge =  0.00000
