                              Psi4 1.0.54 Driver

  ==> Input File <==

--------------------------------------------------------------------------
set {
	reference rhf
	basis cc-pvtz
}

set_num_threads( 4 )
memory 2 gb

molecule MOL {
0 1

H	 3.721907	 -0.933076	 -0.066039
O	 2.824271	 -1.154299	 0.131461
C	 2.076458	 -0.067370	 -0.038225
C	 0.626018	 -0.337582	 0.258241
O	 2.538288	 0.965419	 -0.381593
C	 -0.267326	 0.883135	 0.076490
H	 0.325620	 -1.161483	 -0.378003
H	 0.574537	 -0.713685	 1.275261
C	 -1.726822	 0.642622	 0.463839
H	 -0.210803	 1.217591	 -0.953497
H	 0.129920	 1.693110	 0.675679
C	 -2.172868	 -0.818269	 0.434158
H	 -2.353497	 1.208677	 -0.218886
H	 -1.911876	 1.054708	 1.453479
C	 -3.660526	 -0.985832	 0.726173
H	 -1.947921	 -1.239768	 -0.541942
H	 -1.605942	 -1.397982	 1.155603
H	 -3.951174	 -2.029553	 0.696958
H	 -4.264174	 -0.453409	 -0.001037
H	 -3.912014	 -0.600035	 1.708552

	symmetry c1
}
set optking {
	frozen_dihedral = ("
		12 9 6 10
	")
}

ee,wfn = optimize('scf', return_wfn=True)
oeprop( wfn, 'DIPOLE', 'QUADRUPOLE', 'MULLIKEN_CHARGES')
f=open( 'psi4out.xyz', 'w' )
f.write( "20  " )
f.write( str(ee) + "\n" )
f.write( MOL.save_string_xyz() )
f.close()
--------------------------------------------------------------------------

    Molecular point group: c1
  Charge       = 0
  Multiplicity = 1
  Basis Set: CC-PVTZ
  Basis Set:
  @DF-RHF Final Energy:  -384.08772257723939
    Total Energy =                       -384.0877225772393331
    Molecular point group: c1
  Basis Set: CC-PVTZ
  Basis Set:
  Basis Set: CC-PVTZ
  Basis Set:
  @DF-RHF Final Energy:  -384.08813718064374
    Total Energy =                       -384.0881371806437983
  Basis Set: CC-PVTZ
  Basis Set:
  Basis Set: CC-PVTZ
  Basis Set:
  @DF-RHF Final Energy:  -384.08910928857023
    Total Energy =                       -384.0891092885700004
  Basis Set: CC-PVTZ
  Basis Set:
  Basis Set: CC-PVTZ
  Basis Set:
  @DF-RHF Final Energy:  -384.08896844038850
    Total Energy =                       -384.0889684403887827
  Basis Set: CC-PVTZ
  Basis Set:
  Basis Set: CC-PVTZ
  Basis Set:
  @DF-RHF Final Energy:  -384.08919910628236
    Total Energy =                       -384.0891991062821944
  Basis Set: CC-PVTZ
  Basis Set:
  Basis Set: CC-PVTZ
  Basis Set:
  @DF-RHF Final Energy:  -384.08920380093753
    Total Energy =                       -384.0892038009372982
  Basis Set: CC-PVTZ
  Basis Set:
  Charge       = 0
  Multiplicity = 1
  Basis Set: CC-PVTZ
  Basis Set:

    Orbital Energies (a.u.)
    -----------------------

    Doubly Occupied:

       1A    -20.603786     2A    -20.540513     3A    -11.373389
       4A    -11.239113     5A    -11.220641     6A    -11.219395
       7A    -11.218340     8A    -11.210736     9A     -1.477406
      10A     -1.368949    11A     -1.095403    12A     -1.042009
      13A     -0.961822    14A     -0.871591    15A     -0.823094
      16A     -0.769857    17A     -0.703714    18A     -0.691928
      19A     -0.670163    20A     -0.639203    21A     -0.598546
      22A     -0.595010    23A     -0.582000    24A     -0.553133
      25A     -0.540479    26A     -0.519957    27A     -0.497616
      28A     -0.484288    29A     -0.471802    30A     -0.462728
      31A     -0.453696    32A     -0.446946

  @DF-RHF Final Energy:  -384.08920401172293

   => Energetics <=

    Nuclear Repulsion Energy =            377.4449448422089972
    One-Electron Energy =               -1271.1737902080833464
    Two-Electron Energy =                 509.6396413541513652
    DFT Exchange-Correlation Energy =       0.0000000000000000
    Empirical Dispersion Energy =           0.0000000000000000
    PCM Polarization Energy =               0.0000000000000000
    EFP Energy =                            0.0000000000000000
    Total Energy =                       -384.0892040117229840
    Molecular point group: c1
  Basis Set: CC-PVTZ
  Basis Set:

  -Total Gradient:
     Atom            X                  Y                   Z
    ------   -----------------  -----------------  -----------------
       1       -0.000023573508     0.000053211509    -0.000010516584
       2       -0.000110453744    -0.000118652770     0.000076607019
       3        0.000012809719     0.000001231624    -0.000105455167
       4        0.000122725755    -0.000095647518     0.000061373591
       5       -0.000013712154     0.000147681724    -0.000010113151
       6        0.001159322542    -0.007371995730    -0.000551853103
       7        0.000040936570    -0.000013800415    -0.000013590963
       8       -0.000008789877    -0.000036186573     0.000038351259
       9       -0.002015400765     0.002272316112    -0.005958350106
      10       -0.000416627184     0.005753212567     0.001995733923
      11       -0.000049533418     0.000002906880    -0.000014075752
      12        0.001241846382    -0.000630775158     0.004415656685
      13       -0.000020157815     0.000074478036     0.000033189699
      14        0.000038500285    -0.000082387721    -0.000025391436
      15        0.000036473886     0.000081763036     0.000046684544
      16        0.000062522699     0.000031069353    -0.000029049873
      17       -0.000037633529    -0.000099690280     0.000079528902
      18        0.000048498451    -0.000014781117    -0.000014091282
      19       -0.000035212623     0.000051449730    -0.000051826033
      20       -0.000032541671    -0.000005403292     0.000037187826

  **** Optimization is complete! (in 7 steps) ****
    Final optimized geometry and variables:
    Molecular point group: c1

    Geometry (in Angstrom), charge = 0, multiplicity = 1:

    H            3.715957502603    -0.708607288458    -0.280309231827
    O            2.831952292949    -0.961563024118    -0.060610892904
    C            2.035817868570     0.087337462222    -0.250156954465
    C            0.603696413398    -0.237989645983     0.080367459154
    O            2.447503284206     1.127646064455    -0.632447247395
    C           -0.336630026970     0.940348447726    -0.128907081586
    H            0.330657608436    -1.095165955689    -0.522980997843
    H            0.590345786407    -0.582774772510     1.108987725611
    C           -1.813936131634     0.708090587357     0.253326463929
    H           -0.267878882042     1.295833670970    -1.149764417931
    H            0.035884507730     1.771062812209     0.458557915491
    C           -2.327942112104    -0.731045221634     0.207092897734
    H           -2.434805152551     1.329583221944    -0.382687477733
    H           -1.970215229905     1.072523622452     1.265035576054
    C           -3.811523559722    -0.823611127311     0.549539838504
    H           -2.165452621018    -1.154322356805    -0.780961011263
    H           -1.767007502837    -1.347661370003     0.901028864774
    H           -4.156292745030    -1.850824701087     0.522881294322
    H           -4.411680900758    -0.254258644337    -0.152226115946
    H           -4.008559163244    -0.434111246780     1.542891298338

  Mulliken Charges: (a.u.)
   Center  Symbol    Alpha    Beta     Spin     Total
       1     H     0.38242  0.38242  0.00000  0.23517
       2     O     4.15954  4.15954  0.00000 -0.31908
       3     C     2.80852  2.80852  0.00000  0.38295
       4     C     3.11448  3.11448  0.00000 -0.22895
       5     O     4.19072  4.19072  0.00000 -0.38145
       6     C     3.09073  3.09073  0.00000 -0.18146
       7     H     0.43390  0.43390  0.00000  0.13221
       8     H     0.43630  0.43630  0.00000  0.12740
       9     C     3.09391  3.09391  0.00000 -0.18782
      10     H     0.44360  0.44360  0.00000  0.11279
      11     H     0.44304  0.44304  0.00000  0.11391
      12     C     3.09181  3.09181  0.00000 -0.18363
      13     H     0.44766  0.44766  0.00000  0.10468
      14     H     0.45265  0.45265  0.00000  0.09469
      15     C     3.15091  3.15091  0.00000 -0.30183
      16     H     0.45259  0.45259  0.00000  0.09483
      17     H     0.45139  0.45139  0.00000  0.09721
      18     H     0.44756  0.44756  0.00000  0.10488
      19     H     0.45360  0.45360  0.00000  0.09280
      20     H     0.45466  0.45466  0.00000  0.09068

   Total alpha = 32.00000, Total beta = 32.00000, Total charge = -0.00000

*** Psi4 exiting successfully. Buy a developer a beer!
