  ==> Input File <==

--------------------------------------------------------------------------
set {
	reference rhf
	basis cc-pvtz
}

set_num_threads( 4 )
memory 2 gb

molecule MOL {
0 1

H	 3.889604	 0.356866	 -0.089510
N	 3.091268	 -0.241216	 -0.065538
C	 1.860978	 0.530248	 0.016256
H	 3.192566	 -0.835836	 0.730398
C	 0.644130	 -0.381765	 -0.031064
H	 1.835721	 1.204666	 -0.833114
H	 1.808789	 1.151975	 0.911067
C	 -0.678115	 0.376691	 0.025731
H	 0.693998	 -0.977147	 -0.936845
H	 0.693309	 -1.082142	 0.800523
C	 -1.015170	 1.101981	 -1.274096
H	 -0.643546	 1.099152	 0.838017
H	 -1.483088	 -0.313486	 0.267696
C	 -2.334532	 1.864209	 -1.211126
H	 -0.211933	 1.791673	 -1.517876
H	 -1.054082	 0.381710	 -2.086787
H	 -2.314796	 2.616884	 -0.429890
H	 -2.543261	 2.366906	 -2.148534
H	 -3.163485	 1.195779	 -1.002859

	symmetry c1
}
set optking {
	frozen_dihedral = ("
		12 8 5 9
	")
}

ee = optimize('scf')
oeprop('DIPOLE', 'QUADRUPOLE', 'MULLIKEN_CHARGES')
f=open( 'psi4out.xyz', 'w' )
f.write( "19  " )
f.write( str(ee) + "\n" )
f.write( MOL.save_string_xyz() )
f.close()
--------------------------------------------------------------------------

    Molecular point group: c1
  Charge       = 0
  Multiplicity = 1
  Basis Set: CC-PVTZ
  Basis Set:
  @DF-RHF Final Energy:  -251.44595535469290
    Total Energy =                       -251.4459553546927282
    Molecular point group: c1
  Basis Set: CC-PVTZ
  Basis Set:
  Basis Set: CC-PVTZ
  Basis Set:
  @DF-RHF Final Energy:  -251.44614259427505
    Total Energy =                       -251.4461425942751021
  Basis Set: CC-PVTZ
  Basis Set:
  Basis Set: CC-PVTZ
  Basis Set:
  @DF-RHF Final Energy:  -251.44622640721286
    Total Energy =                       -251.4462264072129187
  Basis Set: CC-PVTZ
  Basis Set:
  Basis Set: CC-PVTZ
  Basis Set:
  @DF-RHF Final Energy:  -251.44622840004064
    Total Energy =                       -251.4462284000406953
  Basis Set: CC-PVTZ
  Basis Set:
  Charge       = 0
  Multiplicity = 1
  Basis Set: CC-PVTZ
  Basis Set:

    Orbital Energies (a.u.)
    -----------------------

    Doubly Occupied:

       1A    -15.526363     2A    -11.237580     3A    -11.211489
       4A    -11.210636     5A    -11.207998     6A    -11.205434
       7A     -1.178187     8A     -1.073411     9A     -0.997725
      10A     -0.899935    11A     -0.826935    12A     -0.778540
      13A     -0.664073    14A     -0.637122    15A     -0.619574
      16A     -0.593256    17A     -0.570974    18A     -0.548910
      19A     -0.526828    20A     -0.500089    21A     -0.489219
      22A     -0.463508    23A     -0.456420    24A     -0.447564
      25A     -0.383931

  @DF-RHF Final Energy:  -251.44622870341090

   => Energetics <=

    Nuclear Repulsion Energy =            248.9685974489592581
    One-Electron Energy =                -832.3182506397002953
    Two-Electron Energy =                 331.9034244873302555
    DFT Exchange-Correlation Energy =       0.0000000000000000
    Empirical Dispersion Energy =           0.0000000000000000
    PCM Polarization Energy =               0.0000000000000000
    EFP Energy =                            0.0000000000000000
    Total Energy =                       -251.4462287034107817
    Molecular point group: c1
  Basis Set: CC-PVTZ
  Basis Set:

  -Total Gradient:
     Atom            X                  Y                   Z
    ------   -----------------  -----------------  -----------------
       1        0.000012350473    -0.000006253037     0.000003916535
       2        0.000015016084     0.000020718588     0.000004567381
       3       -0.000023668325    -0.000034399856     0.000005423786
       4       -0.000000793629     0.000003695404    -0.000002165354
       5       -0.000549622419    -0.000954954231     0.000527141772
       6       -0.000006152613    -0.000000891863    -0.000000994344
       7        0.000013886607     0.000008013480     0.000000256034
       8       -0.000408743611    -0.000781544177     0.000813364186
       9        0.000517015918     0.000930258904    -0.000589423316
      10        0.000001461116     0.000005539724     0.000000062378
      11       -0.000014983394    -0.000048106736     0.000012956830
      12        0.000445855290     0.000829102735    -0.000740901350
      13       -0.000000471229     0.000007174467    -0.000008331480
      14        0.000002815848     0.000012340929    -0.000013202934
      15        0.000000654186    -0.000003893594     0.000007678805
      16       -0.000003298320     0.000006184585    -0.000016552692
      17        0.000001004400    -0.000005175059     0.000001452350
      18       -0.000009463764     0.000010937233    -0.000002148807
      19        0.000007137377     0.000001252506    -0.000003099784

  **** Optimization is complete! (in 5 steps) ****
    Final optimized geometry and variables:
    Molecular point group: c1

    Geometry (in Angstrom), charge = 0, multiplicity = 1:

    H            3.622320419437    -0.252890617836     0.362588880229
    N            2.806595679751    -0.827282449274     0.378118913356
    C            1.597423224900    -0.020789603351     0.430603802586
    H            2.876775159343    -1.417685022896     1.180513778522
    C            0.359502547725    -0.907517452160     0.373162842582
    H            1.613764934424     0.647990406605    -0.421586453214
    H            1.544150777650     0.606637449413     1.321641053344
    C           -0.964367052223    -0.142354307407     0.424643121818
    H            0.410580406763    -1.504785332387    -0.531355734346
    H            0.399117397409    -1.602801312166     1.207923451338
    C           -1.329128683985     0.580264152163    -0.871918432261
    H           -0.932927921922     0.582454080789     1.235163373927
    H           -1.762353514453    -0.837592756709     0.667856229482
    C           -2.670696701765     1.301383260052    -0.789951069716
    H           -0.556545416721     1.298121126971    -1.127849996053
    H           -1.356701981871    -0.140247748011    -1.684660846072
    H           -2.664611228443     2.051956488504    -0.006367728646
    H           -2.906703764466     1.800277252975    -1.722961538740
    H           -3.475679712734     0.606846151955    -0.573490289199

  Mulliken Charges: (a.u.)
   Center  Symbol    Alpha    Beta     Spin     Total
       1     H     0.43008  0.43008  0.00000  0.13984
       2     N     3.68934  3.68934  0.00000 -0.37867
       3     C     3.02478  3.02478  0.00000 -0.04956
       4     H     0.43100  0.43100  0.00000  0.13800
       5     C     3.09008  3.09008  0.00000 -0.18016
       6     H     0.45627  0.45627  0.00000  0.08745
       7     H     0.46846  0.46846  0.00000  0.06308
       8     C     3.10134  3.10134  0.00000 -0.20267
       9     H     0.45006  0.45006  0.00000  0.09988
      10     H     0.45386  0.45386  0.00000  0.09227
      11     C     3.08303  3.08303  0.00000 -0.16607
      12     H     0.45656  0.45656  0.00000  0.08688
      13     H     0.44827  0.44827  0.00000  0.10345
      14     C     3.14970  3.14970  0.00000 -0.29941
      15     H     0.45481  0.45481  0.00000  0.09039
      16     H     0.45350  0.45350  0.00000  0.09300
      17     H     0.45551  0.45551  0.00000  0.08898
      18     H     0.44848  0.44848  0.00000  0.10304
      19     H     0.45486  0.45486  0.00000  0.09028

   Total alpha = 25.00000, Total beta = 25.00000, Total charge = -0.00000
