  ==> Input File <==

--------------------------------------------------------------------------
set {
	reference rhf
	basis cc-pvtz
}

set_num_threads( 4 )
memory 2 gb

molecule MOL {
0 1

H	 3.459101	 0.139266	 -0.762951
C	 2.749156	 -0.051729	 0.031265
C	 1.322304	 0.099773	 -0.484271
H	 2.929445	 -1.053887	 0.403481
H	 2.954281	 0.646699	 0.834672
C	 0.308557	 -0.162619	 0.622645
H	 1.143368	 -0.594400	 -1.295960
H	 1.169532	 1.100095	 -0.870217
N	 -1.069352	 -0.004081	 0.085342
H	 0.371632	 -1.172932	 0.991288
H	 0.400391	 0.548875	 1.426218
O	 -1.959350	 0.002035	 0.867929
O	 -1.187165	 0.076291	 -1.091349

	symmetry c1
}
set optking {
	frozen_dihedral = ("
		12 9 6 3
	")
}

ee = optimize('scf')
oeprop('DIPOLE', 'QUADRUPOLE', 'MULLIKEN_CHARGES')
f=open( 'psi4out.xyz', 'w' )
f.write( "13  " )
f.write( str(ee) + "\n" )
f.write( MOL.save_string_xyz() )
f.close()
--------------------------------------------------------------------------

    Molecular point group: c1
  Charge       = 0
  Multiplicity = 1
  Basis Set: CC-PVTZ
  Basis Set:
  @DF-RHF Final Energy:  -321.85859377311726
    Total Energy =                       -321.8585937731172635
    Molecular point group: c1
  Basis Set: CC-PVTZ
  Basis Set:
  Basis Set: CC-PVTZ
  Basis Set:
  @DF-RHF Final Energy:  -321.85978138595954
    Total Energy =                       -321.8597813859592520
  Basis Set: CC-PVTZ
  Basis Set:
  Basis Set: CC-PVTZ
  Basis Set:
  @DF-RHF Final Energy:  -321.86038034481646
    Total Energy =                       -321.8603803448163490
  Basis Set: CC-PVTZ
  Basis Set:
  Basis Set: CC-PVTZ
  Basis Set:
  @DF-RHF Final Energy:  -321.86027827472657
    Total Energy =                       -321.8602782747263973
  Basis Set: CC-PVTZ
  Basis Set:
  Basis Set: CC-PVTZ
  Basis Set:
  @DF-RHF Final Energy:  -321.86045337220310
    Total Energy =                       -321.8604533722032102
  Basis Set: CC-PVTZ
  Basis Set:
  Basis Set: CC-PVTZ
  Basis Set:
  @DF-RHF Final Energy:  -321.86053307171426
    Total Energy =                       -321.8605330717144284
  Basis Set: CC-PVTZ
  Basis Set:
  Charge       = 0
  Multiplicity = 1
  Basis Set: CC-PVTZ
  Basis Set:

    Orbital Energies (a.u.)
    -----------------------

    Doubly Occupied:

       1A    -20.593587     2A    -20.587639     3A    -15.838524
       4A    -11.299124     5A    -11.246989     6A    -11.234925
       7A     -1.637252     8A     -1.421368     9A     -1.131611
      10A     -1.026644    11A     -0.884911    12A     -0.826503
      13A     -0.762900    14A     -0.753130    15A     -0.730937
      16A     -0.657157    17A     -0.607525    18A     -0.575679
      19A     -0.554433    20A     -0.522273    21A     -0.509632
      22A     -0.488544    23A     -0.474498    24A     -0.453517

  @DF-RHF Final Energy:  -321.86053321909299

   => Energetics <=

    Nuclear Repulsion Energy =            247.6294874250629903
    One-Electron Energy =                -929.3414371957917410
    Two-Electron Energy =                 359.8514165516360777
    DFT Exchange-Correlation Energy =       0.0000000000000000
    Empirical Dispersion Energy =           0.0000000000000000
    PCM Polarization Energy =               0.0000000000000000
    EFP Energy =                            0.0000000000000000
    Total Energy =                       -321.8605332190927015
    Molecular point group: c1
  Basis Set: CC-PVTZ
  Basis Set:

  -Total Gradient:
     Atom            X                  Y                   Z
    ------   -----------------  -----------------  -----------------
       1       -0.000009534205     0.000001167519    -0.000000144829
       2       -0.000001572718    -0.000001052726     0.000019115381
       3       -0.000012203997    -0.000117869040    -0.000054618851
       4        0.000005729810    -0.000006341378    -0.000000729325
       5       -0.000001629784     0.000000550312     0.000001198227
       6        0.000001918733     0.000126103103     0.000048502740
       7        0.000000785062    -0.000000892778    -0.000005308768
       8       -0.000001433399    -0.000007859332     0.000005024493
       9        0.000034383563     0.000170568900     0.000006292422
      10        0.000001266852     0.000001016848    -0.000004969941
      11       -0.000001887105     0.000000435877     0.000010549176
      12        0.000001759076    -0.000160914886    -0.000023807802
      13       -0.000017581894    -0.000004912419    -0.000001102924

  **** Optimization is complete! (in 7 steps) ****
    Final optimized geometry and variables:
    Molecular point group: c1

    Geometry (in Angstrom), charge = 0, multiplicity = 1:

    H            3.510654085749     0.135922948498    -0.735450757640
    C            2.773929129483    -0.045157304945     0.036237234853
    C            1.364449734605     0.105477487515    -0.530136525044
    H            2.940727885732    -1.044102013522     0.424208975122
    H            2.957174487811     0.659160538993     0.840186973548
    C            0.330533593297    -0.146060444680     0.547632727698
    H            1.213426417379    -0.586540252659    -1.346619581510
    H            1.229954185794     1.100682869583    -0.933931470425
    N           -1.082060538514    -0.000289839076     0.082181592254
    H            0.379718505427    -1.152874971503     0.937842630270
    H            0.416042693695     0.536081598490     1.378884637317
    O           -1.910224488894    -0.006961044506     0.930562470023
    O           -1.292133498914     0.093698793463    -1.078430697164

  Mulliken Charges: (a.u.)
   Center  Symbol    Alpha    Beta     Spin     Total
       1     H     0.44125  0.44125  0.00000  0.11749
       2     C     3.15269  3.15269  0.00000 -0.30537
       3     C     3.09083  3.09083  0.00000 -0.18167
       4     H     0.45314  0.45314  0.00000  0.09373
       5     H     0.45307  0.45307  0.00000  0.09386
       6     C     3.04685  3.04685  0.00000 -0.09370
       7     H     0.43782  0.43782  0.00000  0.12435
       8     H     0.44103  0.44103  0.00000  0.11795
       9     N     3.27306  3.27306  0.00000  0.45388
      10     H     0.43424  0.43424  0.00000  0.13152
      11     H     0.43254  0.43254  0.00000  0.13491
      12     O     4.17431  4.17431  0.00000 -0.34862
      13     O     4.16917  4.16917  0.00000 -0.33833

   Total alpha = 24.00000, Total beta = 24.00000, Total charge =  0.00000
