  ==> Input File <==

--------------------------------------------------------------------------
set {
	reference rhf
	basis cc-pvtz
}

set_num_threads( 4 )
memory 2 gb

molecule MOL {
0 1

H	 -2.498963	 -0.741158	 -0.729149
O	 -2.346257	 -0.289210	 0.080372
C	 -1.183935	 0.486039	 -0.009831
C	 0.062853	 -0.375310	 0.027457
H	 -1.178881	 1.094526	 -0.908634
H	 -1.184406	 1.155156	 0.838676
O	 1.172093	 0.457955	 -0.054438
H	 0.052476	 -1.081302	 -0.804627
H	 0.076323	 -0.955658	 0.947560
C	 1.520421	 1.077877	 1.139540
H	 1.767983	 0.349132	 1.908253
H	 2.387584	 1.693956	 0.952026
H	 0.715317	 1.708337	 1.509471

	symmetry c1
}
set optking {
	frozen_dihedral = ("
		10 7 4 8
	")
}

ee = optimize('scf')
oeprop('DIPOLE', 'QUADRUPOLE', 'MULLIKEN_CHARGES')
f=open( 'psi4out.xyz', 'w' )
f.write( "13  " )
f.write( str(ee) + "\n" )
f.write( MOL.save_string_xyz() )
f.close()
--------------------------------------------------------------------------

    Molecular point group: c1
  Charge       = 0
  Multiplicity = 1
  Basis Set: CC-PVTZ
  Basis Set:
  @DF-RHF Final Energy:  -268.05718592086185
    Total Energy =                       -268.0571859208618548
    Molecular point group: c1
  Basis Set: CC-PVTZ
  Basis Set:
  Basis Set: CC-PVTZ
  Basis Set:
  @DF-RHF Final Energy:  -268.05871846867154
    Total Energy =                       -268.0587184686714863
  Basis Set: CC-PVTZ
  Basis Set:
  Basis Set: CC-PVTZ
  Basis Set:
  @DF-RHF Final Energy:  -268.05932509714279
    Total Energy =                       -268.0593250971426187
  Basis Set: CC-PVTZ
  Basis Set:
  Basis Set: CC-PVTZ
  Basis Set:
  @DF-RHF Final Energy:  -268.05934603399703
    Total Energy =                       -268.0593460339973149
  Basis Set: CC-PVTZ
  Basis Set:
  Basis Set: CC-PVTZ
  Basis Set:
  @DF-RHF Final Energy:  -268.05934824127314
    Total Energy =                       -268.0593482412730850
  Basis Set: CC-PVTZ
  Basis Set:
  Charge       = 0
  Multiplicity = 1
  Basis Set: CC-PVTZ
  Basis Set:

    Orbital Energies (a.u.)
    -----------------------

    Doubly Occupied:

       1A    -20.554937     2A    -20.554792     3A    -11.269770
       4A    -11.269061     5A    -11.267368     6A     -1.388867
       7A     -1.370602     8A     -1.014912     9A     -0.928370
      10A     -0.836523    11A     -0.712905    12A     -0.675547
      13A     -0.659133    14A     -0.644461    15A     -0.597147
      16A     -0.571631    17A     -0.533445    18A     -0.517410
      19A     -0.467336    20A     -0.465943    21A     -0.409320

  @DF-RHF Final Energy:  -268.05934849486368

   => Energetics <=

    Nuclear Repulsion Energy =            192.1578721209944263
    One-Electron Energy =                -747.0154823901056034
    Two-Electron Energy =                 286.7982617742474076
    DFT Exchange-Correlation Energy =       0.0000000000000000
    Empirical Dispersion Energy =           0.0000000000000000
    PCM Polarization Energy =               0.0000000000000000
    EFP Energy =                            0.0000000000000000
    Total Energy =                       -268.0593484948637979
    Molecular point group: c1
  Basis Set: CC-PVTZ
  Basis Set:

  -Total Gradient:
     Atom            X                  Y                   Z
    ------   -----------------  -----------------  -----------------
       1        0.000007164851     0.000011773043     0.000002200450
       2        0.000014997392    -0.000014270166     0.000011007556
       3        0.000014457047     0.000028469042    -0.000009218110
       4        0.000255996235    -0.000377956563     0.000367150059
       5       -0.000007310480     0.000002180971    -0.000000203926
       6       -0.000009829694     0.000007219451     0.000003400378
       7        0.000353139974    -0.000552443057     0.000097573360
       8       -0.000326729885     0.000447384828    -0.000359304046
       9        0.000008417199     0.000002258743     0.000003471920
      10       -0.000306149225     0.000437005770    -0.000119013910
      11        0.000001312207     0.000000446935     0.000001323515
      12       -0.000000043606     0.000008592565     0.000006212102
      13       -0.000005422014    -0.000000661563    -0.000004599347

  **** Optimization is complete! (in 6 steps) ****
    Final optimized geometry and variables:
    Molecular point group: c1

    Geometry (in Angstrom), charge = 0, multiplicity = 1:

    H           -2.260540645091    -1.087542057903    -1.014248932888
    O           -2.183935024133    -0.614935413435    -0.205408645415
    C           -1.060404539056     0.220291080837    -0.238584958346
    C            0.227370276292    -0.590072770765    -0.187433860714
    H           -1.055381196675     0.848134961835    -1.124769408690
    H           -1.141642834788     0.869660831186     0.621621080153
    O            1.369769367741     0.202982753012    -0.271464536003
    H            0.253348540911    -1.259003044102    -1.040357001740
    H            0.238054526811    -1.200972916109     0.711992564582
    C            1.773100838435     0.822337342426     0.908898066888
    H            1.935667712141     0.094435000979     1.699980372050
    H            2.705547881858     1.328646376733     0.706392883431
    H            1.053134139473     1.556125890835     1.258151411745

  Mulliken Charges: (a.u.)
   Center  Symbol    Alpha    Beta     Spin     Total
       1     H     0.39334  0.39334  0.00000  0.21332
       2     O     4.20297  4.20297  0.00000 -0.40594
       3     C     2.97351  2.97351  0.00000  0.05297
       4     C     2.98485  2.98485  0.00000  0.03030
       5     H     0.46538  0.46538  0.00000  0.06924
       6     H     0.45908  0.45908  0.00000  0.08185
       7     O     4.17921  4.17921  0.00000 -0.35843
       8     H     0.45783  0.45783  0.00000  0.08434
       9     H     0.46670  0.46670  0.00000  0.06660
      10     C     3.03188  3.03188  0.00000 -0.06376
      11     H     0.46935  0.46935  0.00000  0.06130
      12     H     0.44515  0.44515  0.00000  0.10971
      13     H     0.47075  0.47075  0.00000  0.05851

   Total alpha = 21.00000, Total beta = 21.00000, Total charge = -0.00000
