                              Psi4 1.0.54 Driver

  ==> Input File <==

--------------------------------------------------------------------------
set {
	reference rhf
	basis cc-pvtz
}

set_num_threads( 4 )
memory 2 gb

molecule MOL {
0 1

H	 -1.427489	 -0.396655	 -1.058127
N	 -1.173824	 -0.310545	 -0.096857
C	 -0.022588	 0.563366	 0.065815
H	 -1.968380	 0.053706	 0.386478
C	 1.270420	 -0.230572	 -0.014245
H	 -0.045354	 1.293678	 -0.735129
H	 -0.043155	 1.123061	 1.001180
H	 1.336273	 -0.754933	 -0.959364
H	 2.130728	 0.422015	 0.082222
H	 1.323344	 -0.967006	 0.781773

	symmetry c1
}
set optking {
	frozen_dihedral = ("
		1 2 3 6
	")
}

ee,wfn = optimize('scf', return_wfn=True)
oeprop( wfn, 'DIPOLE', 'QUADRUPOLE', 'MULLIKEN_CHARGES')
f=open( 'psi4out.xyz', 'w' )
f.write( "10  " )
f.write( str(ee) + "\n" )
f.write( MOL.save_string_xyz() )
f.close()
--------------------------------------------------------------------------

    Molecular point group: c1
  Charge       = 0
  Multiplicity = 1
  Basis Set: CC-PVTZ
  Basis Set:
  @DF-RHF Final Energy:  -134.30167518435599
    Total Energy =                       -134.3016751843560428
    Molecular point group: c1
  Basis Set: CC-PVTZ
  Basis Set:
  Basis Set: CC-PVTZ
  Basis Set:
  @DF-RHF Final Energy:  -134.29053940280559
    Total Energy =                       -134.2905394028055639
  Basis Set: CC-PVTZ
  Basis Set:
  Basis Set: CC-PVTZ
  Basis Set:
  @DF-RHF Final Energy:  -134.30300175886731
    Total Energy =                       -134.3030017588673388
  Basis Set: CC-PVTZ
  Basis Set:
  Basis Set: CC-PVTZ
  Basis Set:
  @DF-RHF Final Energy:  -134.30318049855430
    Total Energy =                       -134.3031804985543260
  Basis Set: CC-PVTZ
  Basis Set:
  Basis Set: CC-PVTZ
  Basis Set:
  @DF-RHF Final Energy:  -134.30318339227659
    Total Energy =                       -134.3031833922765941
  Basis Set: CC-PVTZ
  Basis Set:
  Charge       = 0
  Multiplicity = 1
  Basis Set: CC-PVTZ
  Basis Set:

    Orbital Energies (a.u.)
    -----------------------

    Doubly Occupied:

       1A    -15.527335     2A    -11.241632     3A    -11.200658
       4A     -1.176882     5A     -0.987618     6A     -0.821412
       7A     -0.669993     8A     -0.627132     9A     -0.574094
      10A     -0.520199    11A     -0.511589    12A     -0.481226
      13A     -0.385904

  @DF-RHF Final Energy:  -134.30318384763666

   => Energetics <=

    Nuclear Repulsion Energy =             83.2457357246284317
    One-Electron Energy =                -345.6464896970340988
    Two-Electron Energy =                 128.0975701247690495
    DFT Exchange-Correlation Energy =       0.0000000000000000
    Empirical Dispersion Energy =           0.0000000000000000
    PCM Polarization Energy =               0.0000000000000000
    EFP Energy =                            0.0000000000000000
    Total Energy =                       -134.3031838476366033
    Molecular point group: c1
  Basis Set: CC-PVTZ
  Basis Set:

  -Total Gradient:
     Atom            X                  Y                   Z
    ------   -----------------  -----------------  -----------------
       1       -0.001100992167     0.002602873541     0.000155873460
       2        0.001584649580    -0.003813993890    -0.000601435793
       3       -0.001207835548     0.003261291777     0.001842666405
       4        0.000000132245    -0.000002599133     0.000010267122
       5       -0.000009083242     0.000020248393     0.000003231101
       6        0.000726715230    -0.002079862230    -0.001416877908
       7        0.000006608071     0.000005962980     0.000005231645
       8       -0.000003643656     0.000003088015     0.000002516234
       9        0.000006644164    -0.000000435490     0.000001112631
      10       -0.000003194676     0.000003426037    -0.000002584898

  **** Optimization is complete! (in 6 steps) ****
    Final optimized geometry and variables:
    Molecular point group: c1

    Geometry (in Angstrom), charge = 0, multiplicity = 1:

    H           -1.653774289645    -0.171697002630    -0.735728707381
    N           -1.211542031477    -0.031586271775     0.147895909453
    C            0.118034608231     0.547913132750    -0.016391045550
    H           -1.805002020380     0.584171454046     0.661393273843
    C            1.179393463425    -0.538244934272    -0.110220628053
    H            0.185671734245     1.175782117223    -0.902887596153
    H            0.325774590693     1.179752766919     0.838775929317
    H            0.990060246780    -1.187191294868    -0.958762355527
    H            2.167357655448    -0.106343672724    -0.232884573152
    H            1.175247654396    -1.150721227203     0.782719966807

  Mulliken Charges: (a.u.)
   Center  Symbol    Alpha    Beta     Spin     Total
       1     H     0.43044  0.43044  0.00000  0.13913
       2     N     3.69048  3.69048  0.00000 -0.38095
       3     C     3.02976  3.02976  0.00000 -0.05952
       4     H     0.42767  0.42767  0.00000  0.14465
       5     C     3.12743  3.12743  0.00000 -0.25485
       6     H     0.46506  0.46506  0.00000  0.06988
       7     H     0.45710  0.45710  0.00000  0.08580
       8     H     0.45925  0.45925  0.00000  0.08151
       9     H     0.45981  0.45981  0.00000  0.08038
      10     H     0.45302  0.45302  0.00000  0.09396

   Total alpha = 13.00000, Total beta = 13.00000, Total charge =  0.00000

*** Psi4 exiting successfully. Buy a developer a beer!
