  ==> Input File <==

--------------------------------------------------------------------------
set {
	reference rhf
	basis 6-31G*
}

set_num_threads( 1 )
memory 2 gb

molecule MOL {
0 1

O	 -0.598131	 0.495569	 -1.937912
C	 -0.944686	 0.823378	 -0.849467
C	 -1.777571	 2.037327	 -0.538054
O	 -0.632575	 0.154573	 0.251549
H	 -1.233486	 2.692593	 0.132428
H	 -2.014731	 2.558803	 -1.453287
H	 -2.689249	 1.736567	 -0.034921
C	 0.160891	 -1.019931	 0.106212
C	 1.589627	 -0.672828	 0.480843
H	 0.089836	 -1.367806	 -0.916050
H	 -0.238459	 -1.792301	 0.749618
C	 2.246377	 0.346236	 -0.452210
H	 2.163194	 -1.597435	 0.473358
H	 1.604769	 -0.303424	 1.502885
C	 3.691736	 0.652107	 -0.061850
H	 2.219579	 -0.032311	 -1.472055
H	 1.666466	 1.263317	 -0.447249
H	 4.134505	 1.377213	 -0.737283
H	 4.305508	 -0.243868	 -0.089969
H	 3.748266	 1.059562	 0.943567

	symmetry c1
}
set optking {
	frozen_dihedral = ("
		16 12 9 8,
		12 9 8 10,
		1 2 4 8
	")
}

ee = energy('scf')
oeprop('DIPOLE', 'QUADRUPOLE', 'MULLIKEN_CHARGES')
f=open( 'psi4out.xyz', 'w' )
f.write( "20  " )
f.write( str(ee) + "\n" )
f.write( MOL.save_string_xyz() )
f.close()
--------------------------------------------------------------------------

    Molecular point group: c1

    Geometry (in Angstrom), charge = 0, multiplicity = 1:

       Center              X                  Y                   Z               Mass
    ------------   -----------------  -----------------  -----------------  -----------------
           O         -1.061376723349     0.135594221809    -1.557952999845    15.994914619560
           C         -1.407931723349     0.463403221809    -0.469507999845    12.000000000000
           C         -2.240816723349     1.677352221809    -0.158094999845    12.000000000000
           O         -1.095820723349    -0.205401778191     0.631508000155    15.994914619560
           H         -1.696731723349     2.332618221809     0.512387000155     1.007825032070
           H         -2.477976723349     2.198828221809    -1.073327999845     1.007825032070
           H         -3.152494723349     1.376592221809     0.345038000155     1.007825032070
           C         -0.302354723349    -1.379905778191     0.486171000155    12.000000000000
           C          1.126381276651    -1.032802778191     0.860802000155    12.000000000000
           H         -0.373409723349    -1.727780778191    -0.536090999845     1.007825032070
           H         -0.701704723349    -2.152275778191     1.129577000155     1.007825032070
           C          1.783131276651    -0.013738778191    -0.072250999845    12.000000000000
           H          1.699948276651    -1.957409778191     0.853317000155     1.007825032070
           H          1.141523276651    -0.663398778191     1.882844000155     1.007825032070
           C          3.228490276651     0.292132221809     0.318109000155    12.000000000000
           H          1.756333276651    -0.392285778191    -1.092095999845     1.007825032070
           H          1.203220276651     0.903342221809    -0.067289999845     1.007825032070
           H          3.671259276651     1.017238221809    -0.357323999845     1.007825032070
           H          3.842262276651    -0.603842778191     0.289990000155     1.007825032070
           H          3.285020276651     0.699587221809     1.323526000155     1.007825032070

  Charge       = 0
  Multiplicity = 1
  Basis Set: 6-31G*
  Basis Set:

    Orbital Energies (a.u.)
    -----------------------

    Doubly Occupied:

       1A    -20.601511     2A    -20.543654     3A    -11.376184
       4A    -11.279323     5A    -11.234370     6A    -11.220968
       7A    -11.215563     8A    -11.209487     9A     -1.469130
      10A     -1.362914    11A     -1.081788    12A     -1.028138
      13A     -0.979136    14A     -0.884160    15A     -0.805537
      16A     -0.769945    17A     -0.695594    18A     -0.684651
      19A     -0.663212    20A     -0.627252    21A     -0.601228
      22A     -0.591579    23A     -0.572149    24A     -0.548635
      25A     -0.547329    26A     -0.525809    27A     -0.503190
      28A     -0.496261    29A     -0.472857    30A     -0.466519
      31A     -0.440606    32A     -0.437647

  @DF-RHF Final Energy:  -383.94138096377395

   => Energetics <=

    Nuclear Repulsion Energy =            398.0055855464574392
    One-Electron Energy =               -1312.0212842901030399
    Two-Electron Energy =                 530.0743177798726720
    DFT Exchange-Correlation Energy =       0.0000000000000000
    Empirical Dispersion Energy =           0.0000000000000000
    PCM Polarization Energy =               0.0000000000000000
    EFP Energy =                            0.0000000000000000
    Total Energy =                       -383.9413809637728718

  Mulliken Charges: (a.u.)
   Center  Symbol    Alpha    Beta     Spin     Total
       1     O     4.28571  4.28571  0.00000 -0.57141
       2     C     2.61628  2.61628  0.00000  0.76744
       3     C     3.28239  3.28239  0.00000 -0.56478
       4     O     4.30787  4.30787  0.00000 -0.61573
       5     H     0.40054  0.40054  0.00000  0.19892
       6     H     0.39678  0.39678  0.00000  0.20644
       7     H     0.39974  0.39974  0.00000  0.20052
       8     C     3.01814  3.01814  0.00000 -0.03628
       9     C     3.15931  3.15931  0.00000 -0.31862
      10     H     0.39533  0.39533  0.00000  0.20933
      11     H     0.40983  0.40983  0.00000  0.18035
      12     C     3.15538  3.15538  0.00000 -0.31076
      13     H     0.42172  0.42172  0.00000  0.15656
      14     H     0.41635  0.41635  0.00000  0.16730
      15     C     3.23995  3.23995  0.00000 -0.47991
      16     H     0.41178  0.41178  0.00000  0.17645
      17     H     0.42117  0.42117  0.00000  0.15765
      18     H     0.41723  0.41723  0.00000  0.16553
      19     H     0.42201  0.42201  0.00000  0.15598
      20     H     0.42249  0.42249  0.00000  0.15502

   Total alpha = 32.00000, Total beta = 32.00000, Total charge =  0.00000
