                              Psi4 1.0.54 Driver

  ==> Input File <==

--------------------------------------------------------------------------
set {
	reference rhf
	basis cc-pvtz
}

set_num_threads( 4 )
memory 2 gb

molecule MOL {
0 1

H	 3.721907	 -0.933076	 -0.066039
O	 2.824271	 -1.154299	 0.131461
C	 2.076458	 -0.067370	 -0.038225
C	 0.626018	 -0.337582	 0.258241
O	 2.538288	 0.965419	 -0.381593
C	 -0.267326	 0.883135	 0.076490
H	 0.325620	 -1.161483	 -0.378003
H	 0.574537	 -0.713685	 1.275261
C	 -1.726822	 0.642622	 0.463839
H	 -0.210803	 1.217591	 -0.953497
H	 0.129920	 1.693110	 0.675679
C	 -2.480891	 -0.340606	 -0.429852
H	 -2.243098	 1.597649	 0.438609
H	 -1.776542	 0.301208	 1.495542
C	 -2.571430	 0.129974	 -1.877896
H	 -1.983969	 -1.306490	 -0.395643
H	 -3.484663	 -0.499463	 -0.048850
H	 -3.108298	 -0.585218	 -2.490232
H	 -1.584646	 0.260403	 -2.309109
H	 -3.089844	 1.080461	 -1.948429

	symmetry c1
}
set optking {
	frozen_dihedral = ("
		16 12 9 6
	")
}

ee,wfn = optimize('scf', return_wfn=True)
oeprop( wfn, 'DIPOLE', 'QUADRUPOLE', 'MULLIKEN_CHARGES')
f=open( 'psi4out.xyz', 'w' )
f.write( "20  " )
f.write( str(ee) + "\n" )
f.write( MOL.save_string_xyz() )
f.close()
--------------------------------------------------------------------------

    Molecular point group: c1
  Charge       = 0
  Multiplicity = 1
  Basis Set: CC-PVTZ
  Basis Set:
  @DF-RHF Final Energy:  -384.09270332216369
    Total Energy =                       -384.0927033221637430
    Molecular point group: c1
  Basis Set: CC-PVTZ
  Basis Set:
  Basis Set: CC-PVTZ
  Basis Set:
  @DF-RHF Final Energy:  -384.09216826788958
    Total Energy =                       -384.0921682678898605
  Basis Set: CC-PVTZ
  Basis Set:
  Basis Set: CC-PVTZ
  Basis Set:
  @DF-RHF Final Energy:  -384.09339944465336
    Total Energy =                       -384.0933994446535280
  Basis Set: CC-PVTZ
  Basis Set:
  Basis Set: CC-PVTZ
  Basis Set:
  @DF-RHF Final Energy:  -384.09340682923715
    Total Energy =                       -384.0934068292368693
  Basis Set: CC-PVTZ
  Basis Set:
  Basis Set: CC-PVTZ
  Basis Set:
  @DF-RHF Final Energy:  -384.09331754613379
    Total Energy =                       -384.0933175461339033
  Basis Set: CC-PVTZ
  Basis Set:
  Basis Set: CC-PVTZ
  Basis Set:
  @DF-RHF Final Energy:  -384.09345708158679
    Total Energy =                       -384.0934570815868483
  Basis Set: CC-PVTZ
  Basis Set:
  Basis Set: CC-PVTZ
  Basis Set:
  @DF-RHF Final Energy:  -384.09345879590938
    Total Energy =                       -384.0934587959098963
  Basis Set: CC-PVTZ
  Basis Set:
  Charge       = 0
  Multiplicity = 1
  Basis Set: CC-PVTZ
  Basis Set:

    Orbital Energies (a.u.)
    -----------------------

    Doubly Occupied:

       1A    -20.603936     2A    -20.540606     3A    -11.373539
       4A    -11.238777     5A    -11.220412     6A    -11.219000
       7A    -11.218402     8A    -11.210352     9A     -1.477531
      10A     -1.369065    11A     -1.097484    12A     -1.040109
      13A     -0.961030    14A     -0.879967    15A     -0.817754
      16A     -0.767119    17A     -0.703659    18A     -0.693923
      19A     -0.669398    20A     -0.626559    21A     -0.624918
      22A     -0.583059    23A     -0.574928    24A     -0.570804
      25A     -0.529955    26A     -0.514186    27A     -0.506855
      28A     -0.484646    29A     -0.468388    30A     -0.462962
      31A     -0.458456    32A     -0.446701

  @DF-RHF Final Energy:  -384.09345951281927

   => Energetics <=

    Nuclear Repulsion Energy =            382.1290834412761228
    One-Electron Energy =               -1280.5361114310421726
    Two-Electron Energy =                 514.3135684769465570
    DFT Exchange-Correlation Energy =       0.0000000000000000
    Empirical Dispersion Energy =           0.0000000000000000
    PCM Polarization Energy =               0.0000000000000000
    EFP Energy =                            0.0000000000000000
    Total Energy =                       -384.0934595128194360
    Molecular point group: c1
  Basis Set: CC-PVTZ
  Basis Set:

  -Total Gradient:
     Atom            X                  Y                   Z
    ------   -----------------  -----------------  -----------------
       1       -0.000012604402     0.000015483970     0.000001369284
       2       -0.000008193761    -0.000063893315     0.000003624862
       3        0.000019749427     0.000088615241    -0.000023863464
       4        0.000015116511    -0.000029781209    -0.000030040391
       5       -0.000022104426    -0.000021885033     0.000014948578
       6        0.000067939879    -0.000221102744     0.000184594900
       7       -0.000008525249    -0.000005718363     0.000006679444
       8       -0.000001971657     0.000005351089     0.000012505209
       9       -0.000031844957     0.000372234973    -0.000322409588
      10       -0.000005911933     0.000003188654    -0.000003192655
      11       -0.000002027515    -0.000014006084    -0.000004232942
      12       -0.000300342045    -0.000236440964     0.000459546381
      13       -0.000001083556    -0.000008568351    -0.000014481234
      14       -0.000002922646     0.000007167423     0.000002986511
      15        0.000034996799    -0.000009524733     0.000032715335
      16        0.000265197968     0.000142442205    -0.000308188995
      17       -0.000017338108    -0.000020651441     0.000018654522
      18       -0.000030161154    -0.000025524347    -0.000020829701
      19        0.000048163117     0.000009874921    -0.000025995556
      20       -0.000006132293     0.000012738107     0.000015609500

  **** Optimization is complete! (in 8 steps) ****
    Final optimized geometry and variables:
    Molecular point group: c1

    Geometry (in Angstrom), charge = 0, multiplicity = 1:

    H            3.541733050618    -1.013533258880     0.281348945369
    O            2.632938141413    -1.251683670754     0.386675776030
    C            1.895807525964    -0.148215360340     0.293471922291
    C            0.428636616558    -0.444492386694     0.449941329869
    O            2.377527525195     0.915511736483     0.108220509208
    C           -0.452610148896     0.794944902308     0.361285600061
    H            0.177111760762    -1.179058509253    -0.306126620417
    H            0.305163005736    -0.947740249954     1.403774517370
    C           -1.934056014146     0.515777307539     0.625938125607
    H           -0.319275911032     1.260017987477    -0.607389756726
    H           -0.102304848061     1.519968276274     1.085630075011
    C           -2.642702709709    -0.409138086229    -0.367717452644
    H           -2.457736341322     1.467055460039     0.645785998740
    H           -2.036990261959     0.095791550707     1.623245738430
    C           -2.719054104647     0.134320598733    -1.792501711114
    H           -2.163116312826    -1.382981361693    -0.380930986762
    H           -3.651162171939    -0.580660130192    -0.004862528309
    H           -3.296004643079    -0.529253114707    -2.426302723879
    H           -1.738150497963     0.240130691739    -2.240914331986
    H           -3.196606192500     1.108484751057    -1.812660017523

  Mulliken Charges: (a.u.)
   Center  Symbol    Alpha    Beta     Spin     Total
       1     H     0.38235  0.38235  0.00000  0.23530
       2     O     4.16024  4.16024  0.00000 -0.32048
       3     C     2.80369  2.80369  0.00000  0.39261
       4     C     3.11217  3.11217  0.00000 -0.22435
       5     O     4.19097  4.19097  0.00000 -0.38193
       6     C     3.09945  3.09945  0.00000 -0.19889
       7     H     0.43739  0.43739  0.00000  0.12522
       8     H     0.43697  0.43697  0.00000  0.12606
       9     C     3.10511  3.10511  0.00000 -0.21022
      10     H     0.44291  0.44291  0.00000  0.11417
      11     H     0.43649  0.43649  0.00000  0.12703
      12     C     3.09745  3.09745  0.00000 -0.19490
      13     H     0.44474  0.44474  0.00000  0.11052
      14     H     0.44849  0.44849  0.00000  0.10302
      15     C     3.15123  3.15123  0.00000 -0.30246
      16     H     0.45302  0.45302  0.00000  0.09396
      17     H     0.44436  0.44436  0.00000  0.11128
      18     H     0.44580  0.44580  0.00000  0.10839
      19     H     0.45409  0.45409  0.00000  0.09182
      20     H     0.45307  0.45307  0.00000  0.09386

   Total alpha = 32.00000, Total beta = 32.00000, Total charge = -0.00000

*** Psi4 exiting successfully. Buy a developer a beer!
