  ==> Input File <==

--------------------------------------------------------------------------
set {
	reference rhf
	basis 6-31G*
}

set_num_threads( 1 )
memory 2 gb

molecule MOL {
0 1

H	 -1.592349	 0.665546	 2.580965
O	 -0.659472	 0.524733	 2.492843
C	 -0.210970	 1.156786	 1.329521
C	 -0.793441	 0.596080	 0.058728
H	 0.866778	 1.040421	 1.318455
H	 -0.407676	 2.227606	 1.370472
C	 -1.530462	 -0.493172	 -0.025500
H	 -0.563844	 1.157657	 -0.833684
H	 -1.092586	 -1.461565	 -0.186463
H	 -2.602122	 -0.450675	 0.050101

	symmetry c1
}
set optking {
	frozen_dihedral = ("
		5 3 2 1,
		5 3 4 7
	")
}

ee = energy('scf')
oeprop('DIPOLE', 'QUADRUPOLE', 'MULLIKEN_CHARGES')
f=open( 'psi4out.xyz', 'w' )
f.write( "10  " )
f.write( str(ee) + "\n" )
f.write( MOL.save_string_xyz() )
f.close()
--------------------------------------------------------------------------

    Molecular point group: c1

    Geometry (in Angstrom), charge = 0, multiplicity = 1:

       Center              X                  Y                   Z               Mass
    ------------   -----------------  -----------------  -----------------  -----------------
           H         -0.792914583404     0.205304873732     1.537592400343     1.007825032070
           O          0.139962416596     0.064491873732     1.449470400343    15.994914619560
           C          0.588464416596     0.696544873732     0.286148400343    12.000000000000
           C          0.005993416596     0.135838873732    -0.984644599657    12.000000000000
           H          1.666212416596     0.580179873732     0.275082400343     1.007825032070
           H          0.391758416596     1.767364873732     0.327099400343     1.007825032070
           C         -0.731027583404    -0.953413126268    -1.068872599657    12.000000000000
           H          0.235590416596     0.697415873732    -1.877056599657     1.007825032070
           H         -0.293151583404    -1.921806126268    -1.229835599657     1.007825032070
           H         -1.802687583404    -0.910916126268    -0.993271599657     1.007825032070

  Charge       = 0
  Multiplicity = 1
  Basis Set: 6-31G*
  Basis Set:

    Orbital Energies (a.u.)
    -----------------------

    Doubly Occupied:

       1A    -20.567962     2A    -11.353206     3A    -11.300152
       4A    -11.102978     5A     -1.377689     6A     -1.081394
       7A     -0.939704     8A     -0.779754     9A     -0.698973
      10A     -0.671253    11A     -0.628500    12A     -0.567338
      13A     -0.533773    14A     -0.516821    15A     -0.466292
      16A     -0.217999

  @DF-RHF Final Energy:  -191.71540610926971

   => Energetics <=

    Nuclear Repulsion Energy =            119.1346043256272367
    One-Electron Energy =                -496.0923818799926721
    Two-Electron Energy =                 185.2423714450957846
    DFT Exchange-Correlation Energy =       0.0000000000000000
    Empirical Dispersion Energy =           0.0000000000000000
    PCM Polarization Energy =               0.0000000000000000
    EFP Energy =                            0.0000000000000000
    Total Energy =                       -191.7154061092696224

  Mulliken Charges: (a.u.)
   Center  Symbol    Alpha    Beta     Spin     Total
       1     H     0.27965  0.27965  0.00000  0.44069
       2     O     4.34929  4.34929  0.00000 -0.69857
       3     C     3.03126  3.03126  0.00000 -0.06251
       4     C     2.88658  2.88658  0.00000  0.22683
       5     H     0.39189  0.39189  0.00000  0.21623
       6     H     0.41444  0.41444  0.00000  0.17112
       7     C     3.44004  3.44004  0.00000 -0.88009
       8     H     0.41075  0.41075  0.00000  0.17849
       9     H     0.39410  0.39410  0.00000  0.21180
      10     H     0.40200  0.40200  0.00000  0.19601

   Total alpha = 16.00000, Total beta = 16.00000, Total charge = -0.00000
