  ==> Input File <==

--------------------------------------------------------------------------
set {
	reference rhf
	basis 6-31G*
}

set_num_threads( 1 )
memory 2 gb

molecule MOL {
0 1

H	 -3.086276	 1.891725	 -0.203888
O	 -2.676702	 2.033018	 0.638809
C	 -1.289143	 1.951176	 0.490671
C	 -0.793441	 0.596080	 0.058728
H	 -0.866538	 2.202536	 1.456811
H	 -0.929840	 2.703209	 -0.211022
C	 -1.530462	 -0.493172	 -0.025500
H	 0.255661	 0.553409	 -0.190362
H	 -1.092586	 -1.461565	 -0.186463
H	 -2.602122	 -0.450675	 0.050101

	symmetry c1
}
set optking {
	frozen_dihedral = ("
		5 3 2 1,
		5 3 4 7
	")
}

ee = energy('scf')
oeprop('DIPOLE', 'QUADRUPOLE', 'MULLIKEN_CHARGES')
f=open( 'psi4out.xyz', 'w' )
f.write( "10  " )
f.write( str(ee) + "\n" )
f.write( MOL.save_string_xyz() )
f.close()
--------------------------------------------------------------------------

    Molecular point group: c1

    Geometry (in Angstrom), charge = 0, multiplicity = 1:

       Center              X                  Y                   Z               Mass
    ------------   -----------------  -----------------  -----------------  -----------------
           H         -1.457158968087     0.812363507092    -0.500660971578     1.007825032070
           O         -1.047584968087     0.953656507092     0.342036028422    15.994914619560
           C          0.339974031913     0.871814507092     0.193898028422    12.000000000000
           C          0.835676031913    -0.483281492908    -0.238044971578    12.000000000000
           H          0.762579031913     1.123174507092     1.160038028422     1.007825032070
           H          0.699277031913     1.623847507092    -0.507794971578     1.007825032070
           C          0.098655031913    -1.572533492908    -0.322272971578    12.000000000000
           H          1.884778031913    -0.525952492908    -0.487134971578     1.007825032070
           H          0.536531031913    -2.540926492908    -0.483235971578     1.007825032070
           H         -0.973004968087    -1.530036492908    -0.246671971578     1.007825032070

  Charge       = 0
  Multiplicity = 1
  Basis Set: 6-31G*
  Basis Set:

    Orbital Energies (a.u.)
    -----------------------

    Doubly Occupied:

       1A    -20.560788     2A    -11.278645     3A    -11.230992
       4A    -11.219888     5A     -1.369453     6A     -1.058025
       7A     -0.928748     8A     -0.768762     9A     -0.688504
      10A     -0.661530    11A     -0.615393    12A     -0.570635
      13A     -0.540973    14A     -0.490624    15A     -0.449226
      16A     -0.362217

  @DF-RHF Final Energy:  -191.91436108141775

   => Energetics <=

    Nuclear Repulsion Energy =            119.3947561775030692
    One-Electron Energy =                -497.0294465829025512
    Two-Electron Energy =                 185.7203293239817299
    DFT Exchange-Correlation Energy =       0.0000000000000000
    Empirical Dispersion Energy =           0.0000000000000000
    PCM Polarization Energy =               0.0000000000000000
    EFP Energy =                            0.0000000000000000
    Total Energy =                       -191.9143610814177805

  Mulliken Charges: (a.u.)
   Center  Symbol    Alpha    Beta     Spin     Total
       1     H     0.28078  0.28078  0.00000  0.43845
       2     O     4.36657  4.36657  0.00000 -0.73314
       3     C     2.99973  2.99973  0.00000  0.00054
       4     C     3.09457  3.09457  0.00000 -0.18914
       5     H     0.40714  0.40714  0.00000  0.18572
       6     H     0.42681  0.42681  0.00000  0.14637
       7     C     3.19407  3.19407  0.00000 -0.38813
       8     H     0.41020  0.41020  0.00000  0.17960
       9     H     0.41015  0.41015  0.00000  0.17970
      10     H     0.40998  0.40998  0.00000  0.18003

   Total alpha = 16.00000, Total beta = 16.00000, Total charge =  0.00000
