                              Psi4 1.0.54 Driver

  ==> Input File <==

--------------------------------------------------------------------------
set {
	reference rhf
	basis cc-pvtz
}

set_num_threads( 4 )
memory 2 gb

molecule MOL {
0 1

O	 1.847685	 1.294399	 -0.000190
C	 1.704209	 0.119472	 -0.000093
C	 0.380337	 -0.600947	 -0.000234
O	 2.715427	 -0.733672	 0.000025
C	 -0.824290	 0.329213	 -0.000115
H	 0.371455	 -1.255476	 -0.865660
H	 0.371410	 -1.255787	 0.864952
C	 -1.334363	 0.618682	 -1.408679
H	 -0.559051	 1.257276	 0.493465
H	 -1.616061	 -0.111673	 0.594871
C	 -2.543075	 1.549851	 -1.428880
H	 -0.534813	 1.058361	 -2.000839
H	 -1.595587	 -0.316386	 -1.899236
C	 -3.052606	 1.839588	 -2.836660
H	 -2.283007	 2.484481	 -0.940016
H	 -3.342857	 1.110936	 -0.839082
H	 -2.285236	 2.311085	 -3.441696
H	 -3.909636	 2.502734	 -2.814978
H	 -3.353840	 0.926727	 -3.339827
C	 4.020999	 -0.192556	 0.000019
H	 4.182809	 0.412891	 -0.879449
H	 4.692590	 -1.035653	 0.000152
H	 4.182726	 0.413087	 0.879368

	symmetry c1
}
set optking {
	frozen_dihedral = ("
		9 5 3 6
	")
}

ee,wfn = optimize('scf', return_wfn=True)
oeprop( wfn, 'DIPOLE', 'QUADRUPOLE', 'MULLIKEN_CHARGES')
f=open( 'psi4out.xyz', 'w' )
f.write( "23  " )
f.write( str(ee) + "\n" )
f.write( MOL.save_string_xyz() )
f.close()
--------------------------------------------------------------------------

    Molecular point group: c1
  Charge       = 0
  Multiplicity = 1
  Basis Set: CC-PVTZ
  Basis Set:
  @DF-RHF Final Energy:  -423.12857382065494
    Total Energy =                       -423.1285738206551059
    Molecular point group: c1
  Basis Set: CC-PVTZ
  Basis Set:
  Basis Set: CC-PVTZ
  Basis Set:
  @DF-RHF Final Energy:  -423.12889659758866
    Total Energy =                       -423.1288965975890051
  Basis Set: CC-PVTZ
  Basis Set:
  Basis Set: CC-PVTZ
  Basis Set:
  @DF-RHF Final Energy:  -423.12890899670060
    Total Energy =                       -423.1289089967003747
  Basis Set: CC-PVTZ
  Basis Set:
  Basis Set: CC-PVTZ
  Basis Set:
  @DF-RHF Final Energy:  -423.12882220677506
    Total Energy =                       -423.1288222067747711
  Basis Set: CC-PVTZ
  Basis Set:
  Basis Set: CC-PVTZ
  Basis Set:
  @DF-RHF Final Energy:  -423.12895646923874
    Total Energy =                       -423.1289564692392560
  Basis Set: CC-PVTZ
  Basis Set:
  Basis Set: CC-PVTZ
  Basis Set:
  @DF-RHF Final Energy:  -423.12895766574661
    Total Energy =                       -423.1289576657470661
  Basis Set: CC-PVTZ
  Basis Set:
  Charge       = 0
  Multiplicity = 1
  Basis Set: CC-PVTZ
  Basis Set:

    Orbital Energies (a.u.)
    -----------------------

    Doubly Occupied:

       1A    -20.596925     2A    -20.535088     3A    -11.365366
       4A    -11.278981     5A    -11.233990     6A    -11.216239
       7A    -11.211706     8A    -11.211085     9A    -11.204894
      10A     -1.473052    11A     -1.366553    12A     -1.091939
      13A     -1.042691    14A     -0.987111    15A     -0.930943
      16A     -0.843867    17A     -0.793848    18A     -0.768513
      19A     -0.704317    20A     -0.684354    21A     -0.676014
      22A     -0.641081    23A     -0.614270    24A     -0.600213
      25A     -0.570207    26A     -0.557681    27A     -0.554332
      28A     -0.533030    29A     -0.524201    30A     -0.499556
      31A     -0.491385    32A     -0.466293    33A     -0.465356
      34A     -0.459191    35A     -0.452094    36A     -0.441306

  @DF-RHF Final Energy:  -423.12895835120662

   => Energetics <=

    Nuclear Repulsion Energy =            460.6640424618877887
    One-Electron Energy =               -1489.4106560676950721
    Two-Electron Energy =                 605.6176552546012317
    DFT Exchange-Correlation Energy =       0.0000000000000000
    Empirical Dispersion Energy =           0.0000000000000000
    PCM Polarization Energy =               0.0000000000000000
    EFP Energy =                            0.0000000000000000
    Total Energy =                       -423.1289583512061654
    Molecular point group: c1
  Basis Set: CC-PVTZ
  Basis Set:

  -Total Gradient:
     Atom            X                  Y                   Z
    ------   -----------------  -----------------  -----------------
       1       -0.000011211785    -0.000035405215     0.000078035130
       2        0.000019021429     0.000069258261    -0.000137522251
       3       -0.001998191514    -0.002606607685     0.001464423493
       4        0.000026462587    -0.000015803495     0.000025667027
       5       -0.000689351219    -0.000922814860     0.003136807670
       6        0.001743882079     0.002305894718    -0.001719275381
       7       -0.000021302207    -0.000023669729     0.000034133701
       8       -0.000025498795    -0.000055969978    -0.000016207798
       9        0.000963467740     0.001242408043    -0.002877124482
      10        0.000010624800     0.000040173894     0.000008627327
      11       -0.000016927595    -0.000004738420    -0.000001212942
      12        0.000005165287    -0.000006426957    -0.000005734430
      13       -0.000002546557     0.000007057340     0.000002240999
      14        0.000003485525     0.000009306758    -0.000000545799
      15       -0.000001100675    -0.000001913659     0.000001796355
      16        0.000003171061    -0.000004510881    -0.000001336494
      17        0.000002268149     0.000000811323    -0.000008183680
      18        0.000003659551     0.000001651736     0.000002925959
      19       -0.000000860366    -0.000000051687     0.000002623779
      20       -0.000026341192    -0.000005072733     0.000015191369
      21       -0.000001621986     0.000010194538    -0.000018381884
      22        0.000009878162    -0.000014319969     0.000000878339
      23        0.000003867521     0.000010548660     0.000012173993

  **** Optimization is complete! (in 7 steps) ****
    Final optimized geometry and variables:
    Molecular point group: c1

    Geometry (in Angstrom), charge = 0, multiplicity = 1:

    O            1.461070526289     0.827066383204     0.589970210501
    C            1.330326913353    -0.348786030374     0.633302415260
    C            0.015853936246    -1.092242346979     0.671549008364
    O            2.352003125332    -1.188790677253     0.652136414972
    C           -1.211078254307    -0.180721326084     0.646278544877
    H            0.031390391932    -1.757971828804    -0.184891304785
    H            0.037285245393    -1.722349667883     1.552468592495
    C           -1.698219967525     0.126679607159    -0.768963361055
    H           -0.964265779403     0.754381564693     1.131584836742
    H           -2.012499401918    -0.645693407347     1.209678950383
    C           -2.892325948802     1.075405112765    -0.798566972089
    H           -0.882274091497     0.561448860605    -1.339657210749
    H           -1.965726699513    -0.802052872133    -1.268547168050
    C           -3.382464055929     1.376788998217    -2.210852410096
    H           -2.621735055250     2.004431866776    -0.305304698281
    H           -3.705960706465     0.647460849119    -0.218662032182
    H           -2.600579819642     1.837000802859    -2.805610011287
    H           -4.228656797938     2.054061012168    -2.196624433058
    H           -3.693320793331     0.470244101613    -2.719769432725
    C            3.650947519422    -0.632964303590     0.618068730003
    H            3.796093606971    -0.058053821509    -0.284536295989
    H            4.332491034473    -1.467749356626     0.641160623858
    H            3.814926664850     0.005954793482     1.473123330541

  Mulliken Charges: (a.u.)
   Center  Symbol    Alpha    Beta     Spin     Total
       1     O     4.19882  4.19882  0.00000 -0.39763
       2     C     2.80221  2.80221  0.00000  0.39559
       3     C     3.11231  3.11231  0.00000 -0.22462
       4     O     4.14635  4.14635  0.00000 -0.29269
       5     C     3.09646  3.09646  0.00000 -0.19292
       6     H     0.43972  0.43972  0.00000  0.12055
       7     H     0.42994  0.42994  0.00000  0.14012
       8     C     3.08514  3.08514  0.00000 -0.17028
       9     H     0.44209  0.44209  0.00000  0.11583
      10     H     0.44566  0.44566  0.00000  0.10868
      11     C     3.08629  3.08629  0.00000 -0.17257
      12     H     0.45033  0.45033  0.00000  0.09933
      13     H     0.45759  0.45759  0.00000  0.08481
      14     C     3.15017  3.15017  0.00000 -0.30035
      15     H     0.45125  0.45125  0.00000  0.09750
      16     H     0.45600  0.45600  0.00000  0.08801
      17     H     0.45397  0.45397  0.00000  0.09206
      18     H     0.44851  0.44851  0.00000  0.10299
      19     H     0.45623  0.45623  0.00000  0.08755
      20     C     3.03676  3.03676  0.00000 -0.07352
      21     H     0.45447  0.45447  0.00000  0.09105
      22     H     0.44545  0.44545  0.00000  0.10910
      23     H     0.45429  0.45429  0.00000  0.09143

   Total alpha = 36.00000, Total beta = 36.00000, Total charge = -0.00000

*** Psi4 exiting successfully. Buy a developer a beer!
