  ==> Input File <==

--------------------------------------------------------------------------
set {
	reference rhf
	basis 6-31G*
}

set_num_threads( 1 )
memory 2 gb

molecule MOL {
0 1

O	 -0.116234	 -4.623725	 -2.071797
C	 0.225998	 -3.667037	 -2.697944
C	 0.284026	 -2.293852	 -2.051954
C	 0.647673	 -3.775418	 -4.146329
C	 1.557273	 -2.140247	 -1.204375
H	 -0.588529	 -2.192548	 -1.415803
H	 0.244423	 -1.514117	 -2.807249
C	 1.631333	 -0.777471	 -0.511575
H	 1.576008	 -2.941330	 -0.474101
H	 2.435276	 -2.269457	 -1.835375
C	 2.915987	 -0.544314	 0.291766
H	 0.771129	 -0.662704	 0.145390
H	 1.546637	 0.003667	 -1.264235
C	 3.373361	 0.914346	 0.347591
H	 3.708709	 -1.142521	 -0.150311
H	 2.780642	 -0.921148	 1.303579
H	 3.506512	 1.320010	 -0.651625
H	 4.322697	 0.999599	 0.867103
H	 2.660624	 1.545032	 0.868198
H	 -0.065098	 -3.247850	 -4.774735
H	 0.688144	 -4.814102	 -4.443448
H	 1.616594	 -3.309359	 -4.300553

	symmetry c1
}
set optking {
	frozen_dihedral = ("
		6 3 2 1,
		6 3 5 8,
		3 5 8 12
	")
}

ee = energy('scf')
oeprop('DIPOLE', 'QUADRUPOLE', 'MULLIKEN_CHARGES')
f=open( 'psi4out.xyz', 'w' )
f.write( "22  " )
f.write( str(ee) + "\n" )
f.write( MOL.save_string_xyz() )
f.close()
--------------------------------------------------------------------------

    Molecular point group: c1

    Geometry (in Angstrom), charge = 0, multiplicity = 1:

       Center              X                  Y                   Z               Mass
    ------------   -----------------  -----------------  -----------------  -----------------
           O         -1.441069511881    -2.514599340475    -0.565340844721    15.994914619560
           C         -1.098837511881    -1.557911340475    -1.191487844721    12.000000000000
           C         -1.040809511881    -0.184726340475    -0.545497844721    12.000000000000
           C         -0.677162511881    -1.666292340475    -2.639872844721    12.000000000000
           C          0.232437488119    -0.031121340475     0.302081155279    12.000000000000
           H         -1.913364511881    -0.083422340475     0.090653155279     1.007825032070
           H         -1.080412511881     0.595008659525    -1.300792844721     1.007825032070
           C          0.306497488119     1.331654659525     0.994881155279    12.000000000000
           H          0.251172488119    -0.832204340475     1.032355155279     1.007825032070
           H          1.110440488119    -0.160331340475    -0.328918844721     1.007825032070
           C          1.591151488119     1.564811659525     1.798222155279    12.000000000000
           H         -0.553706511881     1.446421659525     1.651846155279     1.007825032070
           H          0.221801488119     2.112792659525     0.242221155279     1.007825032070
           C          2.048525488119     3.023471659525     1.854047155279    12.000000000000
           H          2.383873488119     0.966604659525     1.356145155279     1.007825032070
           H          1.455806488119     1.187977659525     2.810035155279     1.007825032070
           H          2.181676488119     3.429135659525     0.854831155279     1.007825032070
           H          2.997861488119     3.108724659525     2.373559155279     1.007825032070
           H          1.335788488119     3.654157659525     2.374654155279     1.007825032070
           H         -1.389933511881    -1.138724340475    -3.268278844721     1.007825032070
           H         -0.636691511881    -2.704976340475    -2.936991844721     1.007825032070
           H          0.291758488119    -1.200233340475    -2.794096844721     1.007825032070

  Charge       = 0
  Multiplicity = 1
  Basis Set: 6-31G*
  Basis Set:

    Orbital Energies (a.u.)
    -----------------------

    Doubly Occupied:

       1A    -20.547445     2A    -11.324599     3A    -11.230427
       4A    -11.229230     5A    -11.228305     6A    -11.221647
       7A    -11.219990     8A    -11.213472     9A     -1.393185
      10A     -1.095102    11A     -1.045170    12A     -1.001102
      13A     -0.939143    14A     -0.847449    15A     -0.797578
      16A     -0.732488    17A     -0.664771    18A     -0.646772
      19A     -0.630156    20A     -0.609689    21A     -0.591853
      22A     -0.585989    23A     -0.561815    24A     -0.548935
      25A     -0.535255    26A     -0.514127    27A     -0.497260
      28A     -0.489002    29A     -0.470529    30A     -0.466644
      31A     -0.459895    32A     -0.396459

  @DF-RHF Final Energy:  -348.09648809183261

   => Energetics <=

    Nuclear Repulsion Energy =            368.5259807848708533
    One-Electron Energy =               -1201.7739085937175787
    Two-Electron Energy =                 485.1514397170145685
    DFT Exchange-Correlation Energy =       0.0000000000000000
    Empirical Dispersion Energy =           0.0000000000000000
    PCM Polarization Energy =               0.0000000000000000
    EFP Energy =                            0.0000000000000000
    Total Energy =                       -348.0964880918321569

  Mulliken Charges: (a.u.)
   Center  Symbol    Alpha    Beta     Spin     Total
       1     O     4.26233  4.26233  0.00000 -0.52465
       2     C     2.73719  2.73719  0.00000  0.52562
       3     C     3.20049  3.20049  0.00000 -0.40097
       4     C     3.28954  3.28954  0.00000 -0.57908
       5     C     3.16315  3.16315  0.00000 -0.32631
       6     H     0.40108  0.40108  0.00000  0.19783
       7     H     0.41676  0.41676  0.00000  0.16648
       8     C     3.15248  3.15248  0.00000 -0.30496
       9     H     0.40508  0.40508  0.00000  0.18984
      10     H     0.42075  0.42075  0.00000  0.15849
      11     C     3.15392  3.15392  0.00000 -0.30784
      12     H     0.41869  0.41869  0.00000  0.16261
      13     H     0.42324  0.42324  0.00000  0.15352
      14     C     3.24011  3.24011  0.00000 -0.48021
      15     H     0.42188  0.42188  0.00000  0.15623
      16     H     0.41889  0.41889  0.00000  0.16222
      17     H     0.42207  0.42207  0.00000  0.15585
      18     H     0.41840  0.41840  0.00000  0.16319
      19     H     0.42026  0.42026  0.00000  0.15949
      20     H     0.40690  0.40690  0.00000  0.18621
      21     H     0.39704  0.39704  0.00000  0.20592
      22     H     0.40974  0.40974  0.00000  0.18051

   Total alpha = 32.00000, Total beta = 32.00000, Total charge = -0.00000
