                              Psi4 1.0.54 Driver

  ==> Input File <==

--------------------------------------------------------------------------
set {
	reference rhf
	basis cc-pvtz
}

set_num_threads( 4 )
memory 2 gb

molecule MOL {
0 1

H	 1.289703	 -2.170069	 2.214422
O	 1.076834	 -1.913142	 1.329882
C	 0.082083	 -1.031651	 1.375330
C	 -0.318151	 -0.570512	 0.000144
O	 -0.400901	 -0.679792	 2.395570
C	 -1.454884	 0.441630	 -0.000560
H	 0.570608	 -0.165168	 -0.472818
H	 -0.578561	 -1.455835	 -0.571074
C	 -2.822577	 -0.232186	 0.000063
H	 -1.359760	 1.084704	 -0.867077
H	 -1.359641	 1.085996	 0.864983
H	 -2.954352	 -0.858985	 -0.875745
H	 -3.615886	 0.505352	 0.000019
H	 -2.953878	 -0.858359	 0.876394

	symmetry c1
}
set optking {
	frozen_dihedral = ("
		7 4 6 10
	")
}

ee,wfn = optimize('scf', return_wfn=True)
oeprop( wfn, 'DIPOLE', 'QUADRUPOLE', 'MULLIKEN_CHARGES')
f=open( 'psi4out.xyz', 'w' )
f.write( "14  " )
f.write( str(ee) + "\n" )
f.write( MOL.save_string_xyz() )
f.close()
--------------------------------------------------------------------------

    Molecular point group: c1
  Charge       = 0
  Multiplicity = 1
  Basis Set: CC-PVTZ
  Basis Set:
  @DF-RHF Final Energy:  -305.99911071366057
    Total Energy =                       -305.9991107136605706
    Molecular point group: c1
  Basis Set: CC-PVTZ
  Basis Set:
  Basis Set: CC-PVTZ
  Basis Set:
  @DF-RHF Final Energy:  -305.99932591414557
    Total Energy =                       -305.9993259141452882
  Basis Set: CC-PVTZ
  Basis Set:
  Basis Set: CC-PVTZ
  Basis Set:
  @DF-RHF Final Energy:  -305.99926654506851
    Total Energy =                       -305.9992665450683944
  Basis Set: CC-PVTZ
  Basis Set:
  Basis Set: CC-PVTZ
  Basis Set:
  @DF-RHF Final Energy:  -305.99935947214169
    Total Energy =                       -305.9993594721419186
  Basis Set: CC-PVTZ
  Basis Set:
  Basis Set: CC-PVTZ
  Basis Set:
  @DF-RHF Final Energy:  -305.99936141792188
    Total Energy =                       -305.9993614179219890
  Basis Set: CC-PVTZ
  Basis Set:
  Charge       = 0
  Multiplicity = 1
  Basis Set: CC-PVTZ
  Basis Set:

    Orbital Energies (a.u.)
    -----------------------

    Doubly Occupied:

       1A    -20.605100     2A    -20.541863     3A    -11.374960
       4A    -11.239716     5A    -11.223362     6A    -11.210417
       7A     -1.478916     8A     -1.370359     9A     -1.082279
      10A     -0.978265    11A     -0.862061    12A     -0.790292
      13A     -0.706258    14A     -0.696696    15A     -0.660953
      16A     -0.612659    17A     -0.599314    18A     -0.567187
      19A     -0.559192    20A     -0.495271    21A     -0.491711
      22A     -0.486601    23A     -0.480575    24A     -0.448278

  @DF-RHF Final Energy:  -305.99936172570824

   => Energetics <=

    Nuclear Repulsion Energy =            243.8839548574391358
    One-Electron Energy =                -900.6420633841681820
    Two-Electron Energy =                 350.7587468010207203
    DFT Exchange-Correlation Energy =       0.0000000000000000
    Empirical Dispersion Energy =           0.0000000000000000
    PCM Polarization Energy =               0.0000000000000000
    EFP Energy =                            0.0000000000000000
    Total Energy =                       -305.9993617257083542
    Molecular point group: c1
  Basis Set: CC-PVTZ
  Basis Set:

  -Total Gradient:
     Atom            X                  Y                   Z
    ------   -----------------  -----------------  -----------------
       1       -0.000009203627     0.000002652218    -0.000009165012
       2        0.000016192321     0.000006817403     0.000011497139
       3       -0.000018180646    -0.000007542486     0.000006389988
       4        0.001569629166     0.001877677596     0.003876678518
       5       -0.000008516877    -0.000006239421    -0.000039883651
       6       -0.002266714240    -0.002729214132    -0.002749473522
       7       -0.000903938373    -0.001129984161    -0.002772610614
       8       -0.000016155693    -0.000010354351     0.000008398441
       9        0.000001806995     0.000010189899     0.000023540053
      10        0.001653664192     0.001983727207     0.001645190040
      11       -0.000007637426    -0.000001932531    -0.000000610694
      12        0.000008542963     0.000005752287     0.000007806904
      13       -0.000019925524    -0.000000363740    -0.000004278770
      14        0.000000436772    -0.000001185792    -0.000003478816

  **** Optimization is complete! (in 6 steps) ****
    Final optimized geometry and variables:
    Molecular point group: c1

    Geometry (in Angstrom), charge = 0, multiplicity = 1:

    H            1.897212557757    -1.496143878499     1.335072262158
    O            1.692549670801    -1.226151080479     0.452483691649
    C            0.701332994122    -0.341429271551     0.502417035777
    C            0.318574191213     0.141544975453    -0.870834643614
    O            0.211532075492    -0.003316763914     1.524267406494
    C           -0.841621544945     1.134657791794    -0.890993362594
    H            1.207854095714     0.556514498123    -1.331619628775
    H            0.088040977505    -0.740999063724    -1.459745077639
    C           -2.213281397085     0.470015253482    -0.881099132933
    H           -0.736084269505     1.770400824521    -1.762911275635
    H           -0.753909416987     1.788245231997    -0.032313418054
    H           -2.350983914802    -0.158473211473    -1.755043155289
    H           -3.002043077486     1.212824665153    -0.880226029154
    H           -2.338900176942    -0.146401145999     0.000998998405

  Mulliken Charges: (a.u.)
   Center  Symbol    Alpha    Beta     Spin     Total
       1     H     0.38234  0.38234  0.00000  0.23532
       2     O     4.15963  4.15963  0.00000 -0.31926
       3     C     2.80312  2.80312  0.00000  0.39376
       4     C     3.11283  3.11283  0.00000 -0.22565
       5     O     4.19232  4.19232  0.00000 -0.38463
       6     C     3.08590  3.08590  0.00000 -0.17179
       7     H     0.43058  0.43058  0.00000  0.13885
       8     H     0.43961  0.43961  0.00000  0.12079
       9     C     3.14917  3.14917  0.00000 -0.29835
      10     H     0.44729  0.44729  0.00000  0.10543
      11     H     0.44447  0.44447  0.00000  0.11107
      12     H     0.45769  0.45769  0.00000  0.08462
      13     H     0.44782  0.44782  0.00000  0.10436
      14     H     0.44725  0.44725  0.00000  0.10549

   Total alpha = 24.00000, Total beta = 24.00000, Total charge =  0.00000

*** Psi4 exiting successfully. Buy a developer a beer!
