  ==> Input File <==

--------------------------------------------------------------------------
set {
	reference rhf
	basis 6-31G*
}

set_num_threads( 1 )
memory 2 gb

molecule MOL {
0 1

H	 -0.918835	 -1.069102	 -0.860973
N	 -0.626943	 -0.667432	 -0.000092
C	 -1.393964	 -0.965282	 1.188050
C	 0.469286	 0.129090	 0.000148
H	 -2.420410	 -0.630417	 1.081843
H	 -0.941703	 -0.449186	 2.019214
H	 -1.394924	 -2.030575	 1.393431
C	 1.788933	 -0.616240	 -0.000037
O	 0.411098	 1.327768	 -0.000049
H	 1.872803	 -1.245775	 -0.880381
H	 2.595421	 0.101576	 0.003713
H	 1.870096	 -1.252171	 0.875943

	symmetry c1
}
set optking {
	frozen_dihedral = ("
		4 2 3 5
	")
}

ee = energy('scf')
oeprop('DIPOLE', 'QUADRUPOLE', 'MULLIKEN_CHARGES')
f=open( 'psi4out.xyz', 'w' )
f.write( "12  " )
f.write( str(ee) + "\n" )
f.write( MOL.save_string_xyz() )
f.close()
--------------------------------------------------------------------------

    Molecular point group: c1

    Geometry (in Angstrom), charge = 0, multiplicity = 1:

       Center              X                  Y                   Z               Mass
    ------------   -----------------  -----------------  -----------------  -----------------
           H         -1.039775528405    -0.902580544469    -1.106235132747     1.007825032070
           N         -0.747883528405    -0.500910544469    -0.245354132747    14.003074004780
           C         -1.514904528405    -0.798760544469     0.942787867253    12.000000000000
           C          0.348345471595     0.295611455531    -0.245114132747    12.000000000000
           H         -2.541350528405    -0.463895544469     0.836580867253     1.007825032070
           H         -1.062643528405    -0.282664544469     1.773951867253     1.007825032070
           H         -1.515864528405    -1.864053544469     1.148168867253     1.007825032070
           C          1.667992471595    -0.449718544469    -0.245299132747    12.000000000000
           O          0.290157471595     1.494289455531    -0.245311132747    15.994914619560
           H          1.751862471595    -1.079253544469    -1.125643132747     1.007825032070
           H          2.474480471595     0.268097455531    -0.241549132747     1.007825032070
           H          1.749155471595    -1.085649544469     0.630680867253     1.007825032070

  Charge       = 0
  Multiplicity = 1
  Basis Set: 6-31G*
  Basis Set:

    Orbital Energies (a.u.)
    -----------------------

    Doubly Occupied:

       1A    -20.547118     2A    -15.544709     3A    -11.347984
       4A    -11.260829     5A    -11.224049     6A     -1.397794
       7A     -1.218991     8A     -1.005695     9A     -0.936097
      10A     -0.781434    11A     -0.684046    12A     -0.645993
      13A     -0.644077    14A     -0.589274    15A     -0.580376
      16A     -0.564409    17A     -0.548915    18A     -0.487710
      19A     -0.425947    20A     -0.368522

  @DF-RHF Final Energy:  -246.96446807053857

   => Energetics <=

    Nuclear Repulsion Energy =            180.9084240440351721
    One-Electron Energy =                -694.1378836343334342
    Two-Electron Energy =                 266.2649915197596329
    DFT Exchange-Correlation Energy =       0.0000000000000000
    Empirical Dispersion Energy =           0.0000000000000000
    PCM Polarization Energy =               0.0000000000000000
    EFP Energy =                            0.0000000000000000
    Total Energy =                       -246.9644680705386008

  Mulliken Charges: (a.u.)
   Center  Symbol    Alpha    Beta     Spin     Total
       1     H     0.30990  0.30990  0.00000  0.38020
       2     N     3.90552  3.90552  0.00000 -0.81104
       3     C     3.12999  3.12999  0.00000 -0.25999
       4     C     2.66307  2.66307  0.00000  0.67385
       5     H     0.41304  0.41304  0.00000  0.17392
       6     H     0.40967  0.40967  0.00000  0.18066
       7     H     0.41977  0.41977  0.00000  0.16046
       8     C     3.27657  3.27657  0.00000 -0.55315
       9     O     4.25013  4.25013  0.00000 -0.50025
      10     H     0.41121  0.41121  0.00000  0.17758
      11     H     0.40251  0.40251  0.00000  0.19497
      12     H     0.40861  0.40861  0.00000  0.18279

   Total alpha = 20.00000, Total beta = 20.00000, Total charge =  0.00000
