  ==> Input File <==

--------------------------------------------------------------------------
set {
	reference rhf
	basis cc-pvtz
}

set_num_threads( 4 )
memory 2 gb

molecule MOL {
0 1

H	 3.336000	 0.172000	 -0.764000
C	 2.625000	 -0.042000	 0.026000
C	 1.195000	 0.126000	 -0.487000
H	 2.806000	 -1.056000	 0.369000
H	 2.831000	 0.634000	 0.850000
C	 0.178000	 -0.172000	 0.614000
H	 1.016000	 -0.545000	 -1.321000
H	 1.039000	 1.138000	 -0.843000
N	 -1.197000	 -0.008000	 0.077000
H	 0.245000	 -1.188000	 0.966000
H	 0.263000	 0.525000	 1.433000
O	 -1.787000	 -0.995000	 -0.238000
O	 -1.606000	 1.108000	 -0.030000

	symmetry c1
}
ee = optimize('scf')
oeprop('DIPOLE', 'QUADRUPOLE', 'MULLIKEN_CHARGES')
f=open( 'psi4out.xyz', 'w' )
f.write( "13  " )
f.write( str(ee) + "\n" )
f.write( MOL.save_string_xyz() )
f.close()
--------------------------------------------------------------------------

    Molecular point group: c1
  Charge       = 0
  Multiplicity = 1
  Basis Set: CC-PVTZ
  Basis Set:
  @DF-RHF Final Energy:  -321.86125509034940
    Total Energy =                       -321.8612550903494594
    Molecular point group: c1
  Basis Set: CC-PVTZ
  Basis Set:
  Basis Set: CC-PVTZ
  Basis Set:
  @DF-RHF Final Energy:  -321.85161384198409
    Total Energy =                       -321.8516138419842036
  Basis Set: CC-PVTZ
  Basis Set:
  Basis Set: CC-PVTZ
  Basis Set:
  @DF-RHF Final Energy:  -321.85743147506639
    Total Energy =                       -321.8574314750666190
  Basis Set: CC-PVTZ
  Basis Set:
  Basis Set: CC-PVTZ
  Basis Set:
  @DF-RHF Final Energy:  -321.86152188362479
    Total Energy =                       -321.8615218836248459
  Basis Set: CC-PVTZ
  Basis Set:
  Basis Set: CC-PVTZ
  Basis Set:
  @DF-RHF Final Energy:  -321.86153653903295
    Total Energy =                       -321.8615365390330112
  Basis Set: CC-PVTZ
  Basis Set:
  Basis Set: CC-PVTZ
  Basis Set:
  @DF-RHF Final Energy:  -321.86153997495961
    Total Energy =                       -321.8615399749595554
  Basis Set: CC-PVTZ
  Basis Set:
  Charge       = 0
  Multiplicity = 1
  Basis Set: CC-PVTZ
  Basis Set:

    Orbital Energies (a.u.)
    -----------------------

    Doubly Occupied:

       1A    -20.590407     2A    -20.590302     3A    -15.836913
       4A    -11.297239     5A    -11.254317     6A    -11.237283
       7A     -1.636000     8A     -1.420343     9A     -1.134388
      10A     -1.027926    11A     -0.884040    12A     -0.834529
      13A     -0.761535    14A     -0.738560    15A     -0.727549
      16A     -0.673625    17A     -0.604159    18A     -0.588603
      19A     -0.551491    20A     -0.520522    21A     -0.515081
      22A     -0.486872    23A     -0.475166    24A     -0.452902

  @DF-RHF Final Energy:  -321.86154030426269

   => Energetics <=

    Nuclear Repulsion Energy =            248.0322493994730451
    One-Electron Energy =                -930.1080822279757285
    Two-Electron Energy =                 360.2142925242401361
    DFT Exchange-Correlation Energy =       0.0000000000000000
    Empirical Dispersion Energy =           0.0000000000000000
    PCM Polarization Energy =               0.0000000000000000
    EFP Energy =                            0.0000000000000000
    Total Energy =                       -321.8615403042625758
    Molecular point group: c1
  Basis Set: CC-PVTZ
  Basis Set:

  -Total Gradient:
     Atom            X                  Y                   Z
    ------   -----------------  -----------------  -----------------
       1        0.000002952678     0.000007853599     0.000004348542
       2        0.000007420620     0.000041508589    -0.000000023803
       3       -0.000014640939    -0.000134696526    -0.000016392029
       4       -0.000010838879    -0.000004211059    -0.000017630756
       5       -0.000009848146    -0.000011710609    -0.000001466468
       6        0.000013622907     0.000107561749     0.000046892672
       7        0.000012111928     0.000020077674     0.000038399740
       8       -0.000002992660     0.000028695751    -0.000015180443
       9       -0.000156141876    -0.000100431364    -0.000050912669
      10        0.000001413745    -0.000045925439    -0.000028405127
      11       -0.000010590711    -0.000053296862    -0.000027179763
      12        0.000155706025     0.000120590893     0.000082461960
      13        0.000011825304     0.000023983604    -0.000014911857

  **** Optimization is complete! (in 7 steps) ****
    Final optimized geometry and variables:
    Molecular point group: c1

    Geometry (in Angstrom), charge = 0, multiplicity = 1:

    H            3.459101373348     0.139265210588    -0.762951043282
    C            2.749156485582    -0.051728985568     0.031265078256
    C            1.322304559465     0.099772942493    -0.484270915151
    H            2.929445101805    -1.053887896276     0.403480953926
    H            2.954281019208     0.646698811844     0.834672220830
    C            0.308557073403    -0.162619775146     0.622645060486
    H            1.143367727888    -0.594400378985    -1.295960513766
    H            1.169532125906     1.100094116840    -0.870216994331
    N           -1.069351908111    -0.004081398434     0.085342362806
    H            0.371632270107    -1.172932647704     0.991287967165
    H            0.400390865237     0.548874937957     1.426218193673
    O           -1.584900773753    -0.965470254000    -0.377818326517
    O           -1.548032582657     1.079342228112     0.130055702561

  Mulliken Charges: (a.u.)
   Center  Symbol    Alpha    Beta     Spin     Total
       1     H     0.44167  0.44167  0.00000  0.11666
       2     C     3.15108  3.15108  0.00000 -0.30216
       3     C     3.09597  3.09597  0.00000 -0.19194
       4     H     0.45157  0.45157  0.00000  0.09687
       5     H     0.45160  0.45160  0.00000  0.09681
       6     C     3.03940  3.03940  0.00000 -0.07880
       7     H     0.43802  0.43802  0.00000  0.12397
       8     H     0.43797  0.43797  0.00000  0.12407
       9     N     3.27588  3.27588  0.00000  0.44823
      10     H     0.43460  0.43460  0.00000  0.13080
      11     H     0.43460  0.43460  0.00000  0.13079
      12     O     4.17375  4.17375  0.00000 -0.34750
      13     O     4.17390  4.17390  0.00000 -0.34779

   Total alpha = 24.00000, Total beta = 24.00000, Total charge = -0.00000
