  ==> Input File <==

--------------------------------------------------------------------------
set {
	reference rhf
	basis 6-31G*
}

set_num_threads( 1 )
memory 2 gb

molecule MOL {
0 1

O	 -2.880515	 1.190380	 0.494368
C	 -2.668563	 0.129746	 -0.000350
C	 -3.718725	 -0.696877	 -0.696857
O	 -1.481751	 -0.454642	 0.000584
H	 -4.134524	 -0.116368	 -1.511708
H	 -3.315749	 -1.624744	 -1.075159
H	 -4.520695	 -0.901453	 0.002336
C	 -0.334255	 0.388708	 0.000906
C	 0.891947	 -0.504646	 0.000751
H	 -0.365390	 1.025305	 -0.873475
H	 -0.365484	 1.024911	 0.875569
C	 2.191998	 0.301789	 0.000897
H	 0.855148	 -1.151283	 -0.871571
H	 0.855132	 -1.151660	 0.872805
C	 3.441114	 -0.581407	 0.000108
H	 2.215074	 0.954890	 -0.869742
H	 2.215465	 0.953923	 0.872248
C	 4.739576	 0.224112	 -0.001102
H	 3.419457	 -1.233487	 -0.870178
H	 3.420834	 -1.233096	 0.870717
H	 4.804918	 0.861552	 -0.878265
H	 5.606527	 -0.429058	 -0.001824
H	 4.806469	 0.861674	 0.875853

	symmetry c1
}
set optking {
	frozen_dihedral = ("
		13 9 8 10,
		2 4 8 10,
		16 12 9 13,
		19 15 12 16
	")
}

ee = energy('scf')
oeprop('DIPOLE', 'QUADRUPOLE', 'MULLIKEN_CHARGES')
f=open( 'psi4out.xyz', 'w' )
f.write( "23  " )
f.write( str(ee) + "\n" )
f.write( MOL.save_string_xyz() )
f.close()
--------------------------------------------------------------------------

    Molecular point group: c1

    Geometry (in Angstrom), charge = 0, multiplicity = 1:

       Center              X                  Y                   Z               Mass
    ------------   -----------------  -----------------  -----------------  -----------------
           O         -2.883293489253     1.184773677515     0.517685946191    15.994914619560
           C         -2.671341489253     0.124139677515     0.022967946191    12.000000000000
           C         -3.721503489253    -0.702483322485    -0.673539053809    12.000000000000
           O         -1.484529489253    -0.460248322485     0.023901946191    15.994914619560
           H         -4.137302489253    -0.121974322485    -1.488390053809     1.007825032070
           H         -3.318527489253    -1.630350322485    -1.051841053809     1.007825032070
           H         -4.523473489253    -0.907059322485     0.025653946191     1.007825032070
           C         -0.337033489253     0.383101677515     0.024223946191    12.000000000000
           C          0.889168510747    -0.510252322485     0.024068946191    12.000000000000
           H         -0.368168489253     1.019698677515    -0.850157053809     1.007825032070
           H         -0.368262489253     1.019304677515     0.898886946191     1.007825032070
           C          2.189219510747     0.296182677515     0.024214946191    12.000000000000
           H          0.852369510747    -1.156889322485    -0.848253053809     1.007825032070
           H          0.852353510747    -1.157266322485     0.896122946191     1.007825032070
           C          3.438335510747    -0.587013322485     0.023425946191    12.000000000000
           H          2.212295510747     0.949283677515    -0.846424053809     1.007825032070
           H          2.212686510747     0.948316677515     0.895565946191     1.007825032070
           C          4.736797510747     0.218505677515     0.022215946191    12.000000000000
           H          3.416678510747    -1.239093322485    -0.846860053809     1.007825032070
           H          3.418055510747    -1.238702322485     0.894034946191     1.007825032070
           H          4.802139510747     0.855945677515    -0.854947053809     1.007825032070
           H          5.603748510747    -0.434664322485     0.021493946191     1.007825032070
           H          4.803690510747     0.856067677515     0.899170946191     1.007825032070

  Charge       = 0
  Multiplicity = 1
  Basis Set: 6-31G*
  Basis Set:

    Orbital Energies (a.u.)
    -----------------------

    Doubly Occupied:

       1A    -20.597673     2A    -20.542353     3A    -11.374376
       4A    -11.283769     5A    -11.232080     6A    -11.225094
       7A    -11.224443     8A    -11.222106     9A    -11.213340
      10A     -1.466312    11A     -1.361094    12A     -1.094622
      13A     -1.041638    14A     -1.003823    15A     -0.931904
      16A     -0.842203    17A     -0.803395    18A     -0.774688
      19A     -0.694957    20A     -0.682945    21A     -0.664873
      22A     -0.647220    23A     -0.608304    24A     -0.588909
      25A     -0.582713    26A     -0.568924    27A     -0.557027
      28A     -0.542955    29A     -0.518287    30A     -0.504822
      31A     -0.491845    32A     -0.478375    33A     -0.471777
      34A     -0.467335    35A     -0.449382    36A     -0.433596

  @DF-RHF Final Energy:  -422.97391737171614

   => Energetics <=

    Nuclear Repulsion Energy =            449.5213954273040713
    One-Electron Energy =               -1466.6124323418061977
    Two-Electron Energy =                 594.1171195427855309
    DFT Exchange-Correlation Energy =       0.0000000000000000
    Empirical Dispersion Energy =           0.0000000000000000
    PCM Polarization Energy =               0.0000000000000000
    EFP Energy =                            0.0000000000000000
    Total Energy =                       -422.9739173717166523

  Mulliken Charges: (a.u.)
   Center  Symbol    Alpha    Beta     Spin     Total
       1     O     4.27899  4.27899  0.00000 -0.55799
       2     C     2.61519  2.61519  0.00000  0.76963
       3     C     3.28978  3.28978  0.00000 -0.57957
       4     O     4.31448  4.31448  0.00000 -0.62896
       5     H     0.39763  0.39763  0.00000  0.20474
       6     H     0.40007  0.40007  0.00000  0.19985
       7     H     0.39741  0.39741  0.00000  0.20518
       8     C     2.99695  2.99695  0.00000  0.00610
       9     C     3.16474  3.16474  0.00000 -0.32947
      10     H     0.41701  0.41701  0.00000  0.16599
      11     H     0.40508  0.40508  0.00000  0.18985
      12     C     3.16028  3.16028  0.00000 -0.32056
      13     H     0.41495  0.41495  0.00000  0.17011
      14     H     0.41230  0.41230  0.00000  0.17541
      15     C     3.15148  3.15148  0.00000 -0.30296
      16     H     0.42170  0.42170  0.00000  0.15661
      17     H     0.42002  0.42002  0.00000  0.15996
      18     C     3.23990  3.23990  0.00000 -0.47979
      19     H     0.42155  0.42155  0.00000  0.15691
      20     H     0.42094  0.42094  0.00000  0.15812
      21     H     0.42109  0.42109  0.00000  0.15781
      22     H     0.41788  0.41788  0.00000  0.16424
      23     H     0.42060  0.42060  0.00000  0.15879

   Total alpha = 36.00000, Total beta = 36.00000, Total charge = -0.00000
