  ==> Input File <==

--------------------------------------------------------------------------
set {
	reference rhf
	basis cc-pvtz
}

set_num_threads( 4 )
memory 2 gb

molecule MOL {
0 1

H	 -3.162190	 0.493205	 -0.000107
C	 -2.363908	 -0.234727	 0.000005
O	 -1.158738	 0.454634	 -0.000087
H	 -2.464314	 -0.863616	 -0.882153
H	 -2.464327	 -0.863359	 0.882345
C	 -0.028611	 -0.359694	 0.000037
C	 1.212847	 0.509314	 -0.000053
H	 -0.034155	 -1.007047	 -0.877198
H	 -0.034195	 -1.006836	 0.877430
C	 1.248110	 1.474492	 1.179582
H	 2.085203	 -0.134580	 0.017906
H	 1.249363	 1.059349	 -0.933905
H	 1.236845	 0.943315	 2.125526
H	 2.144372	 2.082050	 1.154900
H	 0.395593	 2.145409	 1.167191

	symmetry c1
}
set optking {
	frozen_dihedral = ("
		11 7 6 8
	")
}

ee = optimize('scf')
oeprop('DIPOLE', 'QUADRUPOLE', 'MULLIKEN_CHARGES')
f=open( 'psi4out.xyz', 'w' )
f.write( "15  " )
f.write( str(ee) + "\n" )
f.write( MOL.save_string_xyz() )
f.close()
--------------------------------------------------------------------------

    Molecular point group: c1
  Charge       = 0
  Multiplicity = 1
  Basis Set: CC-PVTZ
  Basis Set:
  @DF-RHF Final Energy:  -232.22783053662837
    Total Energy =                       -232.2278305366283462
    Molecular point group: c1
  Basis Set: CC-PVTZ
  Basis Set:
  Basis Set: CC-PVTZ
  Basis Set:
  @DF-RHF Final Energy:  -232.22797873616847
    Total Energy =                       -232.2279787361688932
  Basis Set: CC-PVTZ
  Basis Set:
  Basis Set: CC-PVTZ
  Basis Set:
  @DF-RHF Final Energy:  -232.22802098925968
    Total Energy =                       -232.2280209892596758
  Basis Set: CC-PVTZ
  Basis Set:
  Charge       = 0
  Multiplicity = 1
  Basis Set: CC-PVTZ
  Basis Set:

    Orbital Energies (a.u.)
    -----------------------

    Doubly Occupied:

       1A    -20.547906     2A    -11.264932     3A    -11.262297
       4A    -11.213791     5A    -11.201530     6A     -1.382271
       7A     -1.055068     8A     -0.951100     9A     -0.887315
      10A     -0.798570    11A     -0.672908    12A     -0.662650
      13A     -0.634931    14A     -0.594472    15A     -0.564640
      16A     -0.546448    17A     -0.501895    18A     -0.484171
      19A     -0.478553    20A     -0.460365    21A     -0.416391

  @DF-RHF Final Energy:  -232.22802180836402

   => Energetics <=

    Nuclear Repulsion Energy =            193.1843052473471971
    One-Electron Energy =                -697.6602498023125918
    Two-Electron Energy =                 272.2479227466012048
    DFT Exchange-Correlation Energy =       0.0000000000000000
    Empirical Dispersion Energy =           0.0000000000000000
    PCM Polarization Energy =               0.0000000000000000
    EFP Energy =                            0.0000000000000000
    Total Energy =                       -232.2280218083641898
    Molecular point group: c1
  Basis Set: CC-PVTZ
  Basis Set:

  -Total Gradient:
     Atom            X                  Y                   Z
    ------   -----------------  -----------------  -----------------
       1        0.000002453134    -0.000002953216     0.000002762048
       2       -0.000033278431    -0.000015790543    -0.000022409534
       3        0.000077144815    -0.000049471605    -0.000018071130
       4       -0.000011515839    -0.000004077802     0.000004727627
       5        0.000007157709     0.000007141896    -0.000001737652
       6        0.000892505093    -0.001283274942     0.001426773280
       7       -0.000121173429     0.000266651601    -0.002126135459
       8       -0.000768884526     0.001136102312    -0.000811069113
       9        0.000004000085    -0.000027855973     0.000009234369
      10       -0.000050580844    -0.000019323677    -0.000023602750
      11       -0.000002670221     0.000003053869     0.001547956137
      12        0.000004935958     0.000000398880    -0.000000086422
      13        0.000004489316    -0.000006215874     0.000017367077
      14       -0.000005272884    -0.000022461853    -0.000019122969
      15        0.000000690061     0.000018076925     0.000013414492

  **** Optimization is complete! (in 4 steps) ****
    Final optimized geometry and variables:
    Molecular point group: c1

    Geometry (in Angstrom), charge = 0, multiplicity = 1:

    H           -2.924284454562     0.103992266276    -0.262628246516
    C           -2.117326027533    -0.614356834705    -0.248607140128
    O           -0.920163549733     0.088050297070    -0.247569655596
    H           -2.204115954293    -1.254353587877    -1.124341675161
    H           -2.217008289391    -1.234468382571     0.639860906996
    C            0.220054511963    -0.714654991877    -0.231513110253
    C            1.460305241283     0.158955373417    -0.235067464720
    H            0.221095569128    -1.359926194952    -1.109020120047
    H            0.212040577061    -1.354911661565     0.650870576281
    C            1.531785736610     1.119605508379     0.947786941122
    H            2.326043581450    -0.496856640652    -0.217469917320
    H            1.495862694740     0.715067861257    -1.165605293554
    H            1.516211178737     0.579552396541     1.889291683703
    H            2.446553162679     1.700137784473     0.915167010010
    H            0.695437437491     1.805054804547     0.943466030607

  Mulliken Charges: (a.u.)
   Center  Symbol    Alpha    Beta     Spin     Total
       1     H     0.44730  0.44730  0.00000  0.10541
       2     C     3.03134  3.03134  0.00000 -0.06268
       3     O     4.17489  4.17489  0.00000 -0.34978
       4     H     0.47158  0.47158  0.00000  0.05683
       5     H     0.47223  0.47223  0.00000  0.05553
       6     C     2.97242  2.97242  0.00000  0.05516
       7     C     3.08074  3.08074  0.00000 -0.16149
       8     H     0.46555  0.46555  0.00000  0.06890
       9     H     0.47238  0.47238  0.00000  0.05524
      10     C     3.14819  3.14819  0.00000 -0.29639
      11     H     0.45588  0.45588  0.00000  0.08823
      12     H     0.45259  0.45259  0.00000  0.09483
      13     H     0.45889  0.45889  0.00000  0.08223
      14     H     0.45102  0.45102  0.00000  0.09796
      15     H     0.44499  0.44499  0.00000  0.11001

   Total alpha = 21.00000, Total beta = 21.00000, Total charge = -0.00000
