  ==> Input File <==

--------------------------------------------------------------------------
set {
	reference rhf
	basis 6-31G*
}

set_num_threads( 1 )
memory 2 gb

molecule MOL {
0 1

H	 3.793606	 0.125830	 0.542842
N	 3.092854	 -0.246221	 -0.068770
C	 1.865559	 0.531981	 0.018834
H	 2.929935	 -1.192376	 0.219463
C	 0.645745	 -0.382037	 -0.029944
H	 1.841966	 1.207024	 -0.831236
H	 1.815756	 1.155410	 0.915079
C	 -0.679275	 0.379305	 0.025956
H	 0.698998	 -0.976915	 -0.937203
H	 0.693479	 -1.083846	 0.802235
C	 -1.903357	 -0.536963	 -0.023547
H	 -0.726309	 1.082987	 -0.803784
H	 -0.717680	 0.977832	 0.934877
C	 -3.225172	 0.228290	 0.028445
H	 -1.867824	 -1.134999	 -0.931459
H	 -1.860449	 -1.239604	 0.805977
H	 -3.313397	 0.915643	 -0.808262
H	 -4.073500	 -0.448134	 -0.008893
H	 -3.306061	 0.809945	 0.942516

	symmetry c1
}
set optking {
	frozen_dihedral = ("
		6 3 5 9,
		12 8 5 9,
		12 8 11 15
	")
}

ee = energy('scf')
oeprop('DIPOLE', 'QUADRUPOLE', 'MULLIKEN_CHARGES')
f=open( 'psi4out.xyz', 'w' )
f.write( "19  " )
f.write( str(ee) + "\n" )
f.write( MOL.save_string_xyz() )
f.close()
--------------------------------------------------------------------------

    Molecular point group: c1

    Geometry (in Angstrom), charge = 0, multiplicity = 1:

       Center              X                  Y                   Z               Mass
    ------------   -----------------  -----------------  -----------------  -----------------
           H          3.797877090878     0.132724985071     0.541433599224     1.007825032070
           N          3.097125090878    -0.239326014929    -0.070178400776    14.003074004780
           C          1.869830090878     0.538875985071     0.017425599224    12.000000000000
           H          2.934206090878    -1.185481014929     0.218054599224     1.007825032070
           C          0.650016090878    -0.375142014929    -0.031352400776    12.000000000000
           H          1.846237090878     1.213918985071    -0.832644400776     1.007825032070
           H          1.820027090878     1.162304985071     0.913670599224     1.007825032070
           C         -0.675003909122     0.386199985071     0.024547599224    12.000000000000
           H          0.703269090878    -0.970020014929    -0.938611400776     1.007825032070
           H          0.697750090878    -1.076951014929     0.800826599224     1.007825032070
           C         -1.899085909122    -0.530068014929    -0.024955400776    12.000000000000
           H         -0.722037909122     1.089881985071    -0.805192400776     1.007825032070
           H         -0.713408909122     0.984726985071     0.933468599224     1.007825032070
           C         -3.220900909122     0.235184985071     0.027036599224    12.000000000000
           H         -1.863552909122    -1.128104014929    -0.932867400776     1.007825032070
           H         -1.856177909122    -1.232709014929     0.804568599224     1.007825032070
           H         -3.309125909122     0.922537985071    -0.809670400776     1.007825032070
           H         -4.069228909122    -0.441239014929    -0.010301400776     1.007825032070
           H         -3.301789909122     0.816839985071     0.941107599224     1.007825032070

  Charge       = 0
  Multiplicity = 1
  Basis Set: 6-31G*
  Basis Set:

    Orbital Energies (a.u.)
    -----------------------

    Doubly Occupied:

       1A    -15.529735     2A    -11.238662     3A    -11.216543
       4A    -11.216028     5A    -11.215498     6A    -11.209326
       7A     -1.176582     8A     -1.075433     9A     -1.000117
      10A     -0.901056    11A     -0.817570    12A     -0.793932
      13A     -0.658413    14A     -0.647529    15A     -0.612712
      16A     -0.595668    17A     -0.565310    18A     -0.545063
      19A     -0.537753    20A     -0.498182    21A     -0.487866
      22A     -0.468751    23A     -0.464570    24A     -0.450537
      25A     -0.377624

  @DF-RHF Final Energy:  -251.34795826557522

   => Energetics <=

    Nuclear Repulsion Energy =            245.9885340004638863
    One-Electron Energy =                -826.0720935006812624
    Two-Electron Energy =                 328.7356012346424450
    DFT Exchange-Correlation Energy =       0.0000000000000000
    Empirical Dispersion Energy =           0.0000000000000000
    PCM Polarization Energy =               0.0000000000000000
    EFP Energy =                            0.0000000000000000
    Total Energy =                       -251.3479582655749027

  Mulliken Charges: (a.u.)
   Center  Symbol    Alpha    Beta     Spin     Total
       1     H     0.33304  0.33304  0.00000  0.33393
       2     N     3.92754  3.92754  0.00000 -0.85509
       3     C     3.04767  3.04767  0.00000 -0.09534
       4     H     0.33338  0.33338  0.00000  0.33324
       5     C     3.16753  3.16753  0.00000 -0.33505
       6     H     0.41987  0.41987  0.00000  0.16027
       7     H     0.43203  0.43203  0.00000  0.13595
       8     C     3.15368  3.15368  0.00000 -0.30735
       9     H     0.41497  0.41497  0.00000  0.17007
      10     H     0.42666  0.42666  0.00000  0.14669
      11     C     3.15132  3.15132  0.00000 -0.30263
      12     H     0.42159  0.42159  0.00000  0.15683
      13     H     0.42366  0.42366  0.00000  0.15268
      14     C     3.23950  3.23950  0.00000 -0.47899
      15     H     0.42200  0.42200  0.00000  0.15601
      16     H     0.42336  0.42336  0.00000  0.15328
      17     H     0.42128  0.42128  0.00000  0.15745
      18     H     0.41904  0.41904  0.00000  0.16193
      19     H     0.42192  0.42192  0.00000  0.15616

   Total alpha = 25.00000, Total beta = 25.00000, Total charge =  0.00000
