  ==> Input File <==

--------------------------------------------------------------------------
set {
	reference rhf
	basis 6-31G*
}

set_num_threads( 4 )
memory 2 gb

molecule MOL {
0 1

H	 2.176868	 -0.646004	 -0.217325
O	 1.337496	 -0.537251	 0.205931
C	 0.702312	 0.627605	 -0.264544
C	 -0.714990	 0.596302	 0.266387
H	 0.682322	 0.642550	 -1.350929
H	 1.215941	 1.520383	 0.085680
O	 -1.405996	 -0.526611	 -0.195820
H	 -1.257453	 1.468809	 -0.075599
H	 -0.688972	 0.618407	 1.353696
H	 -2.222797	 -0.580608	 0.283695

	symmetry c1
}
set optking {
	frozen_dihedral = ("
		10 7 4 3
	")
}

ee = optimize('scf')
oeprop('DIPOLE', 'QUADRUPOLE', 'MULLIKEN_CHARGES')
f=open( 'psi4out.xyz', 'w' )
f.write( "10  " )
f.write( str(ee) + "\n" )
f.write( MOL.save_string_xyz() )
f.close()
--------------------------------------------------------------------------

    Molecular point group: c1
  Charge       = 0
  Multiplicity = 1
  Basis Set: 6-31G*
  Basis Set:
  @DF-RHF Final Energy:  -228.91733579647814
    Total Energy =                       -228.9173357964781417
    Molecular point group: c1
  Basis Set: 6-31G*
  Basis Set:
  Basis Set: 6-31G*
  Basis Set:
  @DF-RHF Final Energy:  -228.91928337932896
    Total Energy =                       -228.9192833793289310
  Basis Set: 6-31G*
  Basis Set:
  Basis Set: 6-31G*
  Basis Set:
  @DF-RHF Final Energy:  -228.91953881727028
    Total Energy =                       -228.9195388172703076
  Basis Set: 6-31G*
  Basis Set:
  Basis Set: 6-31G*
  Basis Set:
  @DF-RHF Final Energy:  -228.91956721988754
    Total Energy =                       -228.9195672198875400
  Basis Set: 6-31G*
  Basis Set:
  Basis Set: 6-31G*
  Basis Set:
  @DF-RHF Final Energy:  -228.91957135328755
    Total Energy =                       -228.9195713532876084
  Basis Set: 6-31G*
  Basis Set:
  Charge       = 0
  Multiplicity = 1
  Basis Set: 6-31G*
  Basis Set:

    Orbital Energies (a.u.)
    -----------------------

    Doubly Occupied:

       1A    -20.552433     2A    -20.552254     3A    -11.270046
       4A    -11.269386     5A     -1.370696     6A     -1.350122
       7A     -1.001893     8A     -0.830141     9A     -0.711214
      10A     -0.710857    11A     -0.606245    12A     -0.604849
      13A     -0.587667    14A     -0.525109    15A     -0.471881
      16A     -0.441276    17A     -0.438802

  @DF-RHF Final Energy:  -228.91957226709528

   => Energetics <=

    Nuclear Repulsion Energy =            133.4373297292242171
    One-Electron Energy =                -578.1240583185790456
    Two-Electron Energy =                 215.7671563222594955
    DFT Exchange-Correlation Energy =       0.0000000000000000
    Empirical Dispersion Energy =           0.0000000000000000
    PCM Polarization Energy =               0.0000000000000000
    EFP Energy =                            0.0000000000000000
    Total Energy =                       -228.9195722670953614
    Molecular point group: c1
  Basis Set: 6-31G*
  Basis Set:

  -Total Gradient:
     Atom            X                  Y                   Z
    ------   -----------------  -----------------  -----------------
       1        0.000021998854    -0.000001642490     0.000011772998
       2       -0.000037273277     0.000017840342    -0.000013353512
       3        0.000038541588     0.000091017660    -0.000095015371
       4        0.000002315893    -0.000034064784     0.000148348229
       5       -0.000004792859     0.000006869488    -0.000028531152
       6        0.000015807282    -0.000039982216    -0.000016776446
       7        0.000076247911    -0.000144384309     0.000097798455
       8       -0.000009962913    -0.000018662745     0.000011960906
       9       -0.000002635588     0.000023877611     0.000019657089
      10       -0.000100246893     0.000099131444    -0.000135861196

  **** Optimization is complete! (in 6 steps) ****
    Final optimized geometry and variables:
    Molecular point group: c1

    Geometry (in Angstrom), charge = 0, multiplicity = 1:

    H            2.213420928671    -0.647181203512    -0.206970878322
    O            1.414045211700    -0.505290082628     0.278879327853
    C            0.700610253278     0.560587385634    -0.284130060952
    C           -0.700525537319     0.563049273249     0.280231694733
    H            0.640477192736     0.469898008738    -1.365339096288
    H            1.177618138964     1.510848917758    -0.048319333681
    O           -1.412637104038    -0.508717019904    -0.273278575354
    H           -1.177062422166     1.511149181509     0.034542453952
    H           -0.641838743876     0.482910938518     1.362440714485
    H           -2.235971483169    -0.613546479051     0.181175312063

  Mulliken Charges: (a.u.)
   Center  Symbol    Alpha    Beta     Spin     Total
       1     H     0.27970  0.27970  0.00000  0.44059
       2     O     4.36639  4.36639  0.00000 -0.73278
       3     C     3.00033  3.00033  0.00000 -0.00066
       4     C     3.00033  3.00033  0.00000 -0.00066
       5     H     0.42190  0.42190  0.00000  0.15620
       6     H     0.43153  0.43153  0.00000  0.13694
       7     O     4.36634  4.36634  0.00000 -0.73268
       8     H     0.43188  0.43188  0.00000  0.13624
       9     H     0.42176  0.42176  0.00000  0.15648
      10     H     0.27984  0.27984  0.00000  0.44032

   Total alpha = 17.00000, Total beta = 17.00000, Total charge =  0.00000
