                              Psi4 1.0.54 Driver

  ==> Input File <==

--------------------------------------------------------------------------
set {
	reference rhf
	basis cc-pvtz
}

set_num_threads( 4 )
memory 2 gb

molecule MOL {
0 1

H	 2.867672	 -0.456275	 0.875795
C	 2.403497	 -0.020426	 0.000000
N	 0.989899	 -0.304564	 0.000000
H	 2.867672	 -0.456275	 -0.875795
H	 2.620366	 1.051270	 0.000000
C	 0.707114	 -1.705844	 0.232412
C	 0.332934	 0.155717	 -1.205863
H	 1.142793	 -2.336458	 -0.548775
H	 1.144213	 -2.005799	 1.177769
C	 -0.791652	 -1.933877	 0.276505
H	 0.495485	 1.221651	 -1.315816
H	 0.740468	 -0.334880	 -2.095230
C	 -1.156218	 -0.120146	 -1.124815
H	 -1.012578	 -2.988985	 0.357532
H	 -1.211388	 -1.425989	 1.142513
O	 -1.406601	 -1.474218	 -0.890413
H	 -1.640666	 0.135779	 -2.056716
H	 -1.594819	 0.481597	 -0.331321

	symmetry c1
}
set optking {
	frozen_dihedral = ("
		6 3 2 5
	")
}

ee,wfn = optimize('scf', return_wfn=True)
oeprop( wfn, 'DIPOLE', 'QUADRUPOLE', 'MULLIKEN_CHARGES')
f=open( 'psi4out.xyz', 'w' )
f.write( "18  " )
f.write( str(ee) + "\n" )
f.write( MOL.save_string_xyz() )
f.close()
--------------------------------------------------------------------------

    Molecular point group: c1
  Charge       = 0
  Multiplicity = 1
  Basis Set: CC-PVTZ
  Basis Set:
  @DF-RHF Final Energy:  -325.14494728897466
    Total Energy =                       -325.1449472889746630
    Molecular point group: c1
  Basis Set: CC-PVTZ
  Basis Set:
  Basis Set: CC-PVTZ
  Basis Set:
  @DF-RHF Final Energy:  -325.14560958379684
    Total Energy =                       -325.1456095837968974
  Basis Set: CC-PVTZ
  Basis Set:
  Basis Set: CC-PVTZ
  Basis Set:
  @DF-RHF Final Energy:  -325.14568880651893
    Total Energy =                       -325.1456888065190469
  Basis Set: CC-PVTZ
  Basis Set:
  Charge       = 0
  Multiplicity = 1
  Basis Set: CC-PVTZ
  Basis Set:

    Orbital Energies (a.u.)
    -----------------------

    Doubly Occupied:

       1A    -20.547645     2A    -15.544124     3A    -11.264401
       4A    -11.264370     5A    -11.242597     6A    -11.242523
       7A    -11.239169     8A     -1.386546     9A     -1.234131
      10A     -1.039335    11A     -0.982230    12A     -0.884266
      13A     -0.869533    14A     -0.774361    15A     -0.685190
      16A     -0.646903    17A     -0.645449    18A     -0.635307
      19A     -0.631109    20A     -0.574280    21A     -0.556975
      22A     -0.541398    23A     -0.527171    24A     -0.501710
      25A     -0.485553    26A     -0.454130    27A     -0.410855
      28A     -0.354890

  @DF-RHF Final Energy:  -325.14568958161618

   => Energetics <=

    Nuclear Repulsion Energy =            341.9371843986497765
    One-Electron Energy =               -1119.8334449392068564
    Two-Electron Energy =                 452.7505709589408980
    DFT Exchange-Correlation Energy =       0.0000000000000000
    Empirical Dispersion Energy =           0.0000000000000000
    PCM Polarization Energy =               0.0000000000000000
    EFP Energy =                            0.0000000000000000
    Total Energy =                       -325.1456895816161250
    Molecular point group: c1
  Basis Set: CC-PVTZ
  Basis Set:

  -Total Gradient:
     Atom            X                  Y                   Z
    ------   -----------------  -----------------  -----------------
       1       -0.000039179961    -0.000008161521     0.000009296714
       2        0.000031094095     0.000024838415    -0.001390357110
       3        0.000015497782    -0.000220461691    -0.001030023703
       4       -0.000020764984    -0.000007994136    -0.000005613867
       5       -0.000055850878    -0.000000060153     0.001411085598
       6        0.000023177368     0.000062883948     0.001029603344
       7        0.000012176550     0.000006457714    -0.000046249657
       8       -0.000001230437     0.000024120392     0.000003641962
       9        0.000012793602     0.000014368902     0.000010136618
      10        0.000022445519     0.000126018031    -0.000003724463
      11        0.000001416324     0.000005006690     0.000002557313
      12       -0.000011927816     0.000001853556     0.000017666595
      13        0.000021046343    -0.000016565084     0.000009669244
      14        0.000032697062     0.000013067397    -0.000004972296
      15       -0.000013608704    -0.000007627846     0.000019215010
      16       -0.000029870072    -0.000013741761    -0.000029595291
      17       -0.000001860949    -0.000002763645    -0.000001863251
      18        0.000001949158    -0.000001239211    -0.000000472759

  **** Optimization is complete! (in 4 steps) ****
    Final optimized geometry and variables:
    Molecular point group: c1

    Geometry (in Angstrom), charge = 0, multiplicity = 1:

    H            2.693470303309     0.353034008544     1.311299269766
    C            2.248583105796     0.748148659269     0.406613175377
    N            0.835833689513     0.462063904675     0.393593239753
    H            2.779102686952     0.316906912671    -0.446365350897
    H            2.409511393073     1.819260188541     0.404466307653
    C            0.543917404839    -0.936616274390     0.627324187885
    C            0.185315041491     0.932413239542    -0.810850490951
    H            0.978502713414    -1.573459280266    -0.149665847324
    H            0.973321801951    -1.236830139168     1.576013519112
    C           -0.956947690164    -1.153222354108     0.664168798028
    H            0.355255709469     1.998003239478    -0.915369596117
    H            0.592633964065     0.443765292554    -1.701451578076
    C           -1.305693500282     0.664740180327    -0.735744984100
    H           -1.185959605582    -2.206736699266     0.744102396636
    H           -1.376272824848    -0.642517569984     1.528841792554
    O           -1.563829231932    -0.688430429424    -0.504902275816
    H           -1.785421028604     0.925322922820    -1.668874120342
    H           -1.743865011187     1.267304341063     0.057434601613

  Mulliken Charges: (a.u.)
   Center  Symbol    Alpha    Beta     Spin     Total
       1     H     0.45244  0.45244  0.00000  0.09511
       2     C     3.09486  3.09486  0.00000 -0.18972
       3     N     3.61709  3.61709  0.00000 -0.23417
       4     H     0.46911  0.46911  0.00000  0.06178
       5     H     0.45101  0.45101  0.00000  0.09798
       6     C     3.04025  3.04025  0.00000 -0.08049
       7     C     3.04106  3.04106  0.00000 -0.08212
       8     H     0.46939  0.46939  0.00000  0.06122
       9     H     0.45390  0.45390  0.00000  0.09220
      10     C     2.98363  2.98363  0.00000  0.03275
      11     H     0.45412  0.45412  0.00000  0.09176
      12     H     0.46854  0.46854  0.00000  0.06292
      13     C     2.98339  2.98339  0.00000  0.03321
      14     H     0.44976  0.44976  0.00000  0.10049
      15     H     0.46763  0.46763  0.00000  0.06473
      16     O     4.18647  4.18647  0.00000 -0.37294
      17     H     0.44977  0.44977  0.00000  0.10045
      18     H     0.46759  0.46759  0.00000  0.06483

   Total alpha = 28.00000, Total beta = 28.00000, Total charge = -0.00000

*** Psi4 exiting successfully. Buy a developer a beer!
