  ==> Input File <==

--------------------------------------------------------------------------
set {
	reference rhf
	basis 6-31G*
}

set_num_threads( 4 )
memory 2 gb

molecule MOL {
0 1

H	 -3.261111	 -0.295142	 1.469456
C	 -3.306842	 -0.277400	 0.373456
C	 -2.660244	 0.921717	 -0.272021
O	 -3.838538	 -1.161155	 -0.216482
C	 -1.730028	 1.676684	 0.687655
H	 -2.133471	 0.590126	 -1.159301
H	 -3.463186	 1.586074	 -0.589147
C	 -0.488154	 0.876890	 1.089374
H	 -1.423836	 2.603539	 0.211765
H	 -2.286121	 1.963531	 1.578854
C	 0.435205	 1.645707	 2.036550
H	 0.061540	 0.598795	 0.192520
H	 -0.787379	 -0.057486	 1.560485
C	 1.684065	 0.849101	 2.423484
H	 0.722310	 2.582245	 1.565171
H	 -0.114429	 1.912254	 2.938348
C	 2.599021	 1.546531	 3.436656
H	 2.254755	 0.615661	 1.525980
H	 1.372007	 -0.105967	 2.840830
C	 3.268166	 2.820206	 2.917409
H	 3.372977	 0.845519	 3.739182
H	 2.031197	 1.777113	 4.335727
H	 3.830513	 2.622816	 2.008524
H	 2.545101	 3.598317	 2.696741
H	 3.960050	 3.218943	 3.653141

	symmetry c1
}
set optking {
	frozen_dihedral = ("
		6 3 2 4
	")
}

ee = optimize('scf')
oeprop('DIPOLE', 'QUADRUPOLE', 'MULLIKEN_CHARGES')
f=open( 'psi4out.xyz', 'w' )
f.write( "25  " )
f.write( str(ee) + "\n" )
f.write( MOL.save_string_xyz() )
f.close()
--------------------------------------------------------------------------

    Molecular point group: c1
  Charge       = 0
  Multiplicity = 1
  Basis Set: 6-31G*
  Basis Set:
  @DF-RHF Final Energy:  -387.12068334112172
    Total Energy =                       -387.1206833411208663
    Molecular point group: c1
  Basis Set: 6-31G*
  Basis Set:
  Basis Set: 6-31G*
  Basis Set:
  @DF-RHF Final Energy:  -387.11917914780986
    Total Energy =                       -387.1191791478103141
  Basis Set: 6-31G*
  Basis Set:
  Basis Set: 6-31G*
  Basis Set:
  @DF-RHF Final Energy:  -387.12089849229989
    Total Energy =                       -387.1208984923000571
  Basis Set: 6-31G*
  Basis Set:
  Basis Set: 6-31G*
  Basis Set:
  @DF-RHF Final Energy:  -387.12077173097043
    Total Energy =                       -387.1207717309702048
  Basis Set: 6-31G*
  Basis Set:
  @DF-RHF Final Energy:  -387.12097967637436
    Total Energy =                       -387.1209796763744180
  Basis Set: 6-31G*
  Basis Set:
  @DF-RHF Final Energy:  -387.12103905305673
    Total Energy =                       -387.1210390530569612
  Basis Set: 6-31G*
  Basis Set:
  Basis Set: 6-31G*
  Basis Set:
  @DF-RHF Final Energy:  -387.12103688619283
    Total Energy =                       -387.1210368861928828
  Basis Set: 6-31G*
  Basis Set:
  Basis Set: 6-31G*
  Basis Set:
  @DF-RHF Final Energy:  -387.12103918906979
    Total Energy =                       -387.1210391890698475
  Basis Set: 6-31G*
  Basis Set:
  Charge       = 0
  Multiplicity = 1
  Basis Set: 6-31G*
  Basis Set:

    Orbital Energies (a.u.)
    -----------------------

    Doubly Occupied:

       1A    -20.560857     2A    -11.327005     3A    -11.235119
       4A    -11.233282     5A    -11.226837     6A    -11.221640
       7A    -11.219574     8A    -11.218848     9A    -11.211896
      10A     -1.401806    11A     -1.105375    12A     -1.070694
      13A     -1.013941    14A     -0.942619    15A     -0.875427
      16A     -0.822999    17A     -0.790120    18A     -0.783467
      19A     -0.664103    20A     -0.655941    21A     -0.633636
      22A     -0.630387    23A     -0.609402    24A     -0.596662
      25A     -0.570381    26A     -0.551248    27A     -0.540350
      28A     -0.525295    29A     -0.506233    30A     -0.499376
      31A     -0.489558    32A     -0.480533    33A     -0.466411
      34A     -0.460730    35A     -0.442972    36A     -0.408997

  @DF-RHF Final Energy:  -387.12103948713656

   => Energetics <=

    Nuclear Repulsion Energy =            436.7863449746014908
    One-Electron Energy =               -1389.8273291404700558
    Two-Electron Energy =                 565.9199446787326906
    DFT Exchange-Correlation Energy =       0.0000000000000000
    Empirical Dispersion Energy =           0.0000000000000000
    PCM Polarization Energy =               0.0000000000000000
    EFP Energy =                            0.0000000000000000
    Total Energy =                       -387.1210394871359313
    Molecular point group: c1
  Basis Set: 6-31G*
  Basis Set:

  -Total Gradient:
     Atom            X                  Y                   Z
    ------   -----------------  -----------------  -----------------
       1        0.000004362762    -0.000009961071     0.000011280845
       2        0.001872186828    -0.001005516908     0.000131435496
       3       -0.001728121241     0.000553701144    -0.000866300653
       4       -0.001138414493     0.000682013325     0.000025920230
       5       -0.000004350391    -0.000015828034    -0.000020653187
       6        0.001031947260    -0.000199890539     0.000716349870
       7        0.000000313891     0.000009188285     0.000002423951
       8       -0.000007849376    -0.000003962628     0.000012512739
       9       -0.000001110076     0.000000379392    -0.000005249911
      10       -0.000007195171    -0.000009327699    -0.000001785317
      11       -0.000002722737     0.000000666668     0.000000022260
      12       -0.000004724275     0.000001300296     0.000004325561
      13       -0.000016536146    -0.000009638561     0.000002022938
      14        0.000007652112     0.000004886911    -0.000014567752
      15       -0.000004040923    -0.000003044572     0.000001206568
      16       -0.000000229499    -0.000001751649     0.000002399621
      17       -0.000008645076     0.000005463173     0.000002543675
      18        0.000003564149    -0.000000626590    -0.000003054562
      19       -0.000000658142     0.000002903494    -0.000001589875
      20        0.000004550267     0.000000731377    -0.000000511736
      21       -0.000004674082    -0.000002414068    -0.000001488902
      22       -0.000000592458     0.000001919640     0.000001980279
      23        0.000001662573     0.000001291134    -0.000001118482
      24        0.000003857278    -0.000001682833     0.000002615694
      25       -0.000000233027    -0.000000799691    -0.000000719348

  **** Optimization is complete! (in 9 steps) ****
    Final optimized geometry and variables:
    Molecular point group: c1

    Geometry (in Angstrom), charge = 0, multiplicity = 1:

    H           -2.931466369863    -1.259458730095     0.095749855337
    C           -2.903543042925    -1.258152227789    -1.000550287501
    C           -2.204122248758    -0.082052522249    -1.646252598720
    O           -3.438827133461    -2.125448449835    -1.610933497190
    C           -1.273364979976     0.680936015072    -0.701287074344
    H           -1.665774694018    -0.448943740731    -2.514343945193
    H           -2.987347816351     0.576050346678    -2.017273634391
    C           -0.025718745434    -0.112754981114    -0.303955040957
    H           -0.969999025383     1.607189131089    -1.180815004774
    H           -1.823412660965     0.970387811612     0.192784205052
    C            0.895568699844     0.654146815840     0.646703955550
    H            0.524939060523    -0.380789384850    -1.203712115932
    H           -0.317206762996    -1.052808153723     0.162363081661
    C            2.150434696423    -0.136906941520     1.025515714462
    H            1.174847130035     1.596213265506     0.181916930477
    H            0.345882859178     0.909891251779     1.551341870312
    C            3.059060067475     0.555881766049     2.047503436660
    H            2.723946452624    -0.354472570849     0.125894019680
    H            1.846263232166    -1.099644368015     1.431078155284
    C            3.716293429263     1.842526922209     1.544671038467
    H            3.839072365986    -0.141874493088     2.341649436841
    H            2.488511133088     0.769675578626     2.949059397173
    H            4.284013482158     1.661302682959     0.635900893382
    H            2.985935225859     2.615657021196     1.330124427001
    H            4.401327490880     2.240259841340     2.287001022782

  Mulliken Charges: (a.u.)
   Center  Symbol    Alpha    Beta     Spin     Total
       1     H     0.42982  0.42982  0.00000  0.14037
       2     C     2.83519  2.83519  0.00000  0.32962
       3     C     3.20745  3.20745  0.00000 -0.41491
       4     O     4.24042  4.24042  0.00000 -0.48083
       5     C     3.16715  3.16715  0.00000 -0.33429
       6     H     0.39891  0.39891  0.00000  0.20218
       7     H     0.39869  0.39869  0.00000  0.20263
       8     C     3.15521  3.15521  0.00000 -0.31043
       9     H     0.41342  0.41342  0.00000  0.17316
      10     H     0.41983  0.41983  0.00000  0.16034
      11     C     3.15374  3.15374  0.00000 -0.30747
      12     H     0.41904  0.41904  0.00000  0.16192
      13     H     0.42218  0.42218  0.00000  0.15565
      14     C     3.15309  3.15309  0.00000 -0.30618
      15     H     0.42021  0.42021  0.00000  0.15958
      16     H     0.42328  0.42328  0.00000  0.15343
      17     C     3.15280  3.15280  0.00000 -0.30560
      18     H     0.42314  0.42314  0.00000  0.15371
      19     H     0.42134  0.42134  0.00000  0.15733
      20     C     3.24146  3.24146  0.00000 -0.48292
      21     H     0.41987  0.41987  0.00000  0.16026
      22     H     0.42305  0.42305  0.00000  0.15389
      23     H     0.42186  0.42186  0.00000  0.15629
      24     H     0.42048  0.42048  0.00000  0.15905
      25     H     0.41839  0.41839  0.00000  0.16322

   Total alpha = 36.00000, Total beta = 36.00000, Total charge = -0.00000
