                              Psi4 1.0.54 Driver

  ==> Input File <==

--------------------------------------------------------------------------
set {
	reference rhf
	basis cc-pvtz
}

set_num_threads( 4 )
memory 2 gb

molecule MOL {
0 1

H	 3.889604	 0.356866	 -0.089510
N	 3.091268	 -0.241216	 -0.065538
C	 1.860978	 0.530248	 0.016256
H	 3.192566	 -0.835836	 0.730398
C	 0.644130	 -0.381765	 -0.031064
H	 1.835721	 1.204666	 -0.833114
H	 1.808789	 1.151975	 0.911067
C	 -0.678115	 0.376691	 0.025731
H	 0.693998	 -0.977147	 -0.936845
H	 0.693309	 -1.082142	 0.800523
C	 -1.777956	 -0.380490	 0.764804
H	 -1.012617	 0.592358	 -0.986470
H	 -0.524249	 1.340241	 0.506115
C	 -3.099923	 0.378241	 0.813820
H	 -1.932892	 -1.343671	 0.286714
H	 -1.447714	 -0.593915	 1.777801
H	 -3.474622	 0.576574	 -0.184931
H	 -3.857848	 -0.186435	 1.344571
H	 -2.985431	 1.332428	 1.317561

	symmetry c1
}
set optking {
	frozen_dihedral = ("
		12 8 5 9
	")
}

ee,wfn = optimize('scf', return_wfn=True)
oeprop( wfn, 'DIPOLE', 'QUADRUPOLE', 'MULLIKEN_CHARGES')
f=open( 'psi4out.xyz', 'w' )
f.write( "19  " )
f.write( str(ee) + "\n" )
f.write( MOL.save_string_xyz() )
f.close()
--------------------------------------------------------------------------

    Molecular point group: c1
  Charge       = 0
  Multiplicity = 1
  Basis Set: CC-PVTZ
  Basis Set:
  @DF-RHF Final Energy:  -251.44508913314147
    Total Energy =                       -251.4450891331413800
    Molecular point group: c1
  Basis Set: CC-PVTZ
  Basis Set:
  Basis Set: CC-PVTZ
  Basis Set:
  @DF-RHF Final Energy:  -251.44531461533956
    Total Energy =                       -251.4453146153394414
  Basis Set: CC-PVTZ
  Basis Set:
  Basis Set: CC-PVTZ
  Basis Set:
  @DF-RHF Final Energy:  -251.44539869447647
    Total Energy =                       -251.4453986944766370
  Basis Set: CC-PVTZ
  Basis Set:
  Basis Set: CC-PVTZ
  Basis Set:
  @DF-RHF Final Energy:  -251.44540120223158
    Total Energy =                       -251.4454012022317784
  Basis Set: CC-PVTZ
  Basis Set:
  Charge       = 0
  Multiplicity = 1
  Basis Set: CC-PVTZ
  Basis Set:

    Orbital Energies (a.u.)
    -----------------------

    Doubly Occupied:

       1A    -15.526343     2A    -11.238007     3A    -11.212190
       4A    -11.210455     5A    -11.207577     6A    -11.205453
       7A     -1.178146     8A     -1.073417     9A     -0.999040
      10A     -0.900892    11A     -0.813860    12A     -0.789476
      13A     -0.664693    14A     -0.643373    15A     -0.615933
      16A     -0.594239    17A     -0.562332    18A     -0.548335
      19A     -0.536400    20A     -0.492181    21A     -0.486533
      22A     -0.465078    23A     -0.459401    24A     -0.448786
      25A     -0.383891

  @DF-RHF Final Energy:  -251.44540205600958

   => Energetics <=

    Nuclear Repulsion Energy =            246.1445752169735215
    One-Electron Energy =                -826.6678925507272879
    Two-Electron Energy =                 329.0779152777442960
    DFT Exchange-Correlation Energy =       0.0000000000000000
    Empirical Dispersion Energy =           0.0000000000000000
    PCM Polarization Energy =               0.0000000000000000
    EFP Energy =                            0.0000000000000000
    Total Energy =                       -251.4454020560094705
    Molecular point group: c1
  Basis Set: CC-PVTZ
  Basis Set:

  -Total Gradient:
     Atom            X                  Y                   Z
    ------   -----------------  -----------------  -----------------
       1        0.000048957784    -0.000002076085    -0.000003493630
       2        0.000077452873    -0.000038774239    -0.000003937555
       3       -0.000052559451     0.000007072761     0.000024024197
       4        0.000018497325    -0.000005137671     0.000000089322
       5       -0.002541485232    -0.004430169065     0.002291114606
       6       -0.000026558763    -0.000010658320     0.000018116174
       7       -0.000011645567     0.000004727786    -0.000016660782
       8        0.002793837215     0.004796992519    -0.000352779017
       9        0.001662382541     0.002978609335    -0.001854326973
      10        0.000002603738     0.000035736265    -0.000009961985
      11       -0.000005279613     0.000001612372    -0.000015674801
      12       -0.001951257939    -0.003327992850    -0.000084283478
      13        0.000005318263    -0.000028886662    -0.000000688693
      14       -0.000028618997     0.000016196000     0.000013534197
      15        0.000008927427     0.000015389516     0.000005545371
      16        0.000006018042    -0.000008208026    -0.000022290480
      17        0.000007743181    -0.000001781361     0.000020745576
      18       -0.000006844584     0.000008646164     0.000002837336
      19       -0.000007488244    -0.000011298441    -0.000011909383

  **** Optimization is complete! (in 5 steps) ****
    Final optimized geometry and variables:
    Molecular point group: c1

    Geometry (in Angstrom), charge = 0, multiplicity = 1:

    H            3.854156231889     0.306032738489    -0.434687658771
    N            3.056751196042    -0.292350937184    -0.392072836466
    C            1.832120889950     0.475057781562    -0.232836710604
    H            3.193293487920    -0.910319315220     0.380585582393
    C            0.611521551905    -0.436553871904    -0.239180156721
    H            1.763517140159     1.168336610052    -1.064951717770
    H            1.822865734520     1.077160271238     0.676780087417
    C           -0.709715133661     0.339901107619    -0.187064428838
    H            0.660722221277    -1.031462636878    -1.143868636123
    H            0.677800681559    -1.120271144569     0.603099865248
    C           -1.832192079688    -0.426237435015     0.511437243851
    H           -1.035770994315     0.559168160580    -1.199592074222
    H           -0.566353315432     1.292379331767     0.315630759218
    C           -3.163001025920     0.317863613704     0.503850512162
    H           -1.956791538295    -1.393494412868     0.031813680264
    H           -1.539773380747    -0.631931510567     1.537556156062
    H           -3.503162344429     0.501659672941    -0.509871080832
    H           -3.933941870685    -0.249135819478     1.013057449994
    H           -3.076800712584     1.278689187413     1.000755614229

  Mulliken Charges: (a.u.)
   Center  Symbol    Alpha    Beta     Spin     Total
       1     H     0.43015  0.43015  0.00000  0.13970
       2     N     3.68986  3.68986  0.00000 -0.37971
       3     C     3.02446  3.02446  0.00000 -0.04893
       4     H     0.43105  0.43105  0.00000  0.13791
       5     C     3.08421  3.08421  0.00000 -0.16842
       6     H     0.45667  0.45667  0.00000  0.08665
       7     H     0.46928  0.46928  0.00000  0.06144
       8     C     3.09496  3.09496  0.00000 -0.18991
       9     H     0.44785  0.44785  0.00000  0.10431
      10     H     0.45975  0.45975  0.00000  0.08051
      11     C     3.08388  3.08388  0.00000 -0.16776
      12     H     0.45263  0.45263  0.00000  0.09473
      13     H     0.45678  0.45678  0.00000  0.08643
      14     C     3.14990  3.14990  0.00000 -0.29981
      15     H     0.45337  0.45337  0.00000  0.09325
      16     H     0.45587  0.45587  0.00000  0.08826
      17     H     0.45505  0.45505  0.00000  0.08990
      18     H     0.44869  0.44869  0.00000  0.10261
      19     H     0.45559  0.45559  0.00000  0.08882

   Total alpha = 25.00000, Total beta = 25.00000, Total charge = -0.00000

*** Psi4 exiting successfully. Buy a developer a beer!
