  ==> Input File <==

--------------------------------------------------------------------------
set {
	reference rhf
	basis 6-31G*
}

set_num_threads( 1 )
memory 2 gb

molecule MOL {
0 1

H	 -2.646374	 -0.642757	 1.268656
C	 -2.083525	 -0.384536	 0.393091
O	 -0.807605	 -0.127164	 0.768327
F	 -2.118945	 -1.383102	 -0.486752
F	 -2.621877	 0.670592	 -0.209486
C	 0.034752	 -1.204991	 0.971820
C	 0.757869	 -0.961558	 2.290153
Cl	 1.195451	 -1.358788	 -0.357217
H	 -0.501017	 -2.135118	 1.046572
F	 1.572998	 -1.959464	 2.558269
F	 -0.135039	 -0.891376	 3.257226
F	 1.445760	 0.154078	 2.278461

	symmetry c1
}
set optking {
	frozen_dihedral = ("
		10 7 6 9,
		9 6 3 2
	")
}

ee = energy('scf')
oeprop('DIPOLE', 'QUADRUPOLE', 'MULLIKEN_CHARGES')
f=open( 'psi4out.xyz', 'w' )
f.write( "12  " )
f.write( str(ee) + "\n" )
f.write( MOL.save_string_xyz() )
f.close()
--------------------------------------------------------------------------

    Molecular point group: c1

    Geometry (in Angstrom), charge = 0, multiplicity = 1:

       Center              X                  Y                   Z               Mass
    ------------   -----------------  -----------------  -----------------  -----------------
           H         -2.510163275884     0.160262186397     0.254711634742     1.007825032070
           C         -1.947314275884     0.418483186397    -0.620853365258    12.000000000000
           O         -0.671394275884     0.675855186397    -0.245617365258    15.994914619560
           F         -1.982734275884    -0.580082813603    -1.500696365258    18.998403224000
           F         -2.485666275884     1.473611186397    -1.223430365258    18.998403224000
           C          0.170962724116    -0.401971813603    -0.042124365258    12.000000000000
           C          0.894079724116    -0.158538813603     1.276208634742    12.000000000000
          CL          1.331661724116    -0.555768813603    -1.371161365258    34.968852682000
           H         -0.364806275884    -1.332098813603     0.032627634742     1.007825032070
           F          1.709208724116    -1.156444813603     1.544324634742    18.998403224000
           F          0.001171724116    -0.088356813603     2.243281634742    18.998403224000
           F          1.581970724116     0.957097186397     1.264516634742    18.998403224000

  Charge       = 0
  Multiplicity = 1
  Basis Set: 6-31G*
  Basis Set:

    Orbital Energies (a.u.)
    -----------------------

    Doubly Occupied:

       1A   -104.845843     2A    -26.366337     3A    -26.364458
       4A    -26.360728     5A    -26.349082     6A    -26.344964
       7A    -20.648008     8A    -11.532116     9A    -11.491243
      10A    -11.406724    11A    -10.580546    12A     -8.049907
      13A     -8.046336    14A     -8.046242    15A     -1.766069
      16A     -1.716129    17A     -1.662967    18A     -1.660899
      19A     -1.637785    20A     -1.487925    21A     -1.181845
      22A     -1.053069    23A     -0.986683    24A     -0.928095
      25A     -0.860715    26A     -0.853729    27A     -0.841574
      28A     -0.837389    29A     -0.818852    30A     -0.787260
      31A     -0.732884    32A     -0.729848    33A     -0.702775
      34A     -0.695084    35A     -0.684119    36A     -0.679163
      37A     -0.662893    38A     -0.659180    39A     -0.649074
      40A     -0.633931    41A     -0.617414    42A     -0.575687
      43A     -0.515193    44A     -0.477588    45A     -0.471179

  @DF-RHF Final Energy: -1146.30710122408277

   => Energetics <=

    Nuclear Repulsion Energy =            729.9509629293927446
    One-Electron Energy =               -3042.5170447253794919
    Two-Electron Energy =                1166.2589805719053402
    DFT Exchange-Correlation Energy =       0.0000000000000000
    Empirical Dispersion Energy =           0.0000000000000000
    PCM Polarization Energy =               0.0000000000000000
    EFP Energy =                            0.0000000000000000
    Total Energy =                      -1146.3071012240816344

  Mulliken Charges: (a.u.)
   Center  Symbol    Alpha    Beta     Spin     Total
       1     H     0.41635  0.41635  0.00000  0.16730
       2     C     2.56514  2.56514  0.00000  0.86972
       3     O     4.30125  4.30125  0.00000 -0.60249
       4     F     4.68254  4.68254  0.00000 -0.36507
       5     F     4.67405  4.67405  0.00000 -0.34809
       6     C     3.04177  3.04177  0.00000 -0.08355
       7     C     2.43268  2.43268  0.00000  1.13464
       8    CL     8.49598  8.49598  0.00000  0.00804
       9     H     0.37106  0.37106  0.00000  0.25789
      10     F     4.67357  4.67357  0.00000 -0.34715
      11     F     4.67850  4.67850  0.00000 -0.35700
      12     F     4.66712  4.66712  0.00000 -0.33424

   Total alpha = 45.00000, Total beta = 45.00000, Total charge =  0.00000
