                              Psi4 1.0.54 Driver

  ==> Input File <==

--------------------------------------------------------------------------
set {
	reference rhf
	basis cc-pvtz
}

set_num_threads( 4 )
memory 2 gb

molecule MOL {
0 1

H	 -2.413922	 1.021787	 2.232841
C	 -2.113969	 0.016135	 1.947228
O	 -0.842774	 0.004024	 1.389146
H	 -2.092996	 -0.604520	 2.831103
H	 -2.857064	 -0.381712	 1.258451
C	 -0.718530	 0.758693	 0.228682
C	 0.718529	 0.758687	 -0.228709
H	 -1.340615	 0.339840	 -0.562230
H	 -1.039193	 1.783985	 0.400091
O	 1.401606	 -0.295166	 0.366636
H	 0.748705	 0.673477	 -1.312803
H	 1.176496	 1.708671	 0.046552
C	 2.714315	 -0.441627	 -0.061017
H	 2.765292	 -0.641548	 -1.128869
H	 3.305661	 0.447341	 0.150952
H	 3.143725	 -1.278506	 0.470147

	symmetry c1
}
set optking {
	frozen_dihedral = ("
		3 6 7 11
	")
}

ee,wfn = optimize('scf', return_wfn=True)
oeprop( wfn, 'DIPOLE', 'QUADRUPOLE', 'MULLIKEN_CHARGES')
f=open( 'psi4out.xyz', 'w' )
f.write( "16  " )
f.write( str(ee) + "\n" )
f.write( MOL.save_string_xyz() )
f.close()
--------------------------------------------------------------------------

    Molecular point group: c1
  Charge       = 0
  Multiplicity = 1
  Basis Set: CC-PVTZ
  Basis Set:
  @DF-RHF Final Energy:  -307.08537796333223
    Total Energy =                       -307.0853779633322347
    Molecular point group: c1
  Basis Set: CC-PVTZ
  Basis Set:
  Basis Set: CC-PVTZ
  Basis Set:
  @DF-RHF Final Energy:  -307.08619378959321
    Total Energy =                       -307.0861937895930396
  Basis Set: CC-PVTZ
  Basis Set:
  Basis Set: CC-PVTZ
  Basis Set:
  @DF-RHF Final Energy:  -307.08693771250933
    Total Energy =                       -307.0869377125094388
  Basis Set: CC-PVTZ
  Basis Set:
  Basis Set: CC-PVTZ
  Basis Set:
  @DF-RHF Final Energy:  -307.08695574558084
    Total Energy =                       -307.0869557455811218
  Basis Set: CC-PVTZ
  Basis Set:
  Charge       = 0
  Multiplicity = 1
  Basis Set: CC-PVTZ
  Basis Set:

    Orbital Energies (a.u.)
    -----------------------

    Doubly Occupied:

       1A    -20.545778     2A    -20.544685     3A    -11.269880
       4A    -11.269280     5A    -11.260509     6A    -11.260060
       7A     -1.392311     8A     -1.371360     9A     -1.025831
      10A     -0.934338    11A     -0.896636    12A     -0.819296
      13A     -0.690688    14A     -0.674771    15A     -0.659852
      16A     -0.646629    17A     -0.618442    18A     -0.592516
      19A     -0.573398    20A     -0.519572    21A     -0.508159
      22A     -0.470294    23A     -0.469351    24A     -0.425385
      25A     -0.403217

  @DF-RHF Final Energy:  -307.08695668457432

   => Energetics <=

    Nuclear Repulsion Energy =            260.1455108278702824
    One-Electron Energy =                -934.7804627289435757
    Two-Electron Energy =                 367.5479952164986344
    DFT Exchange-Correlation Energy =       0.0000000000000000
    Empirical Dispersion Energy =           0.0000000000000000
    PCM Polarization Energy =               0.0000000000000000
    EFP Energy =                            0.0000000000000000
    Total Energy =                       -307.0869566845746021
    Molecular point group: c1
  Basis Set: CC-PVTZ
  Basis Set:

  -Total Gradient:
     Atom            X                  Y                   Z
    ------   -----------------  -----------------  -----------------
       1        0.000010834019    -0.000017547518    -0.000001567798
       2       -0.000029758152     0.000010907935     0.000015370501
       3       -0.001116598031    -0.004910197985    -0.003106755040
       4       -0.000002345893     0.000004493452    -0.000007419415
       5        0.000001222698    -0.000001972206     0.000001115244
       6        0.001521046388     0.004938590446     0.004270312680
       7       -0.000470980291     0.007344788724    -0.001844550316
       8        0.000023385063     0.000004774936    -0.000000122945
       9        0.000011048616    -0.000030762334     0.000032018111
      10       -0.000081547861     0.000047589904    -0.000037658277
      11        0.000120060178    -0.007393098936     0.000704131253
      12       -0.000030344114     0.000018890790    -0.000011844389
      13        0.000084074952    -0.000032310148    -0.000041652239
      14       -0.000007226518     0.000001876702     0.000027031249
      15       -0.000018641031    -0.000002942399     0.000005017268
      16       -0.000014230021     0.000016918637    -0.000003425886

  **** Optimization is complete! (in 5 steps) ****
    Final optimized geometry and variables:
    Molecular point group: c1

    Geometry (in Angstrom), charge = 0, multiplicity = 1:

    H           -2.711078377093     0.911492585733     1.554266565591
    C           -2.364620346751    -0.091683097942     1.312846962955
    O           -1.063214941838    -0.082828076839     0.831331044049
    H           -2.378518251500    -0.689930067406     2.212046481806
    H           -3.053687026788    -0.527510247395     0.591841089141
    C           -0.904444822243     0.640970658351    -0.339201299941
    C            0.551781259337     0.616865824641    -0.822208345445
    H           -1.543931874728     0.215127819532    -1.111214572020
    H           -1.215917654624     1.675505192561    -0.202672354209
    O            1.229163212723    -0.472080174580    -0.288695988583
    H            0.548767081671     0.514143589528    -1.906066389860
    H            1.060685342698     1.540444694064    -0.556452570915
    C            2.544901222083    -0.577029424259    -0.715797263648
    H            2.608398321610    -0.699447265628    -1.795726162688
    H            3.127521652602     0.298800033541    -0.436387227436
    H            2.976572430482    -1.446427772099    -0.241909776318

  Mulliken Charges: (a.u.)
   Center  Symbol    Alpha    Beta     Spin     Total
       1     H     0.47319  0.47319  0.00000  0.05361
       2     C     3.03158  3.03158  0.00000 -0.06315
       3     O     4.15748  4.15748  0.00000 -0.31495
       4     H     0.44560  0.44560  0.00000  0.10881
       5     H     0.47300  0.47300  0.00000  0.05400
       6     C     2.96463  2.96463  0.00000  0.07074
       7     C     2.96605  2.96605  0.00000  0.06790
       8     H     0.47704  0.47704  0.00000  0.04592
       9     H     0.47704  0.47704  0.00000  0.04591
      10     O     4.15880  4.15880  0.00000 -0.31759
      11     H     0.47703  0.47703  0.00000  0.04594
      12     H     0.47442  0.47442  0.00000  0.05115
      13     C     3.03128  3.03128  0.00000 -0.06255
      14     H     0.47410  0.47410  0.00000  0.05179
      15     H     0.47303  0.47303  0.00000  0.05393
      16     H     0.44574  0.44574  0.00000  0.10853

   Total alpha = 25.00000, Total beta = 25.00000, Total charge = -0.00000

*** Psi4 exiting successfully. Buy a developer a beer!
