                              Psi4 1.0.54 Driver

  ==> Input File <==

--------------------------------------------------------------------------
set {
	reference rhf
	basis cc-pvtz
}

set_num_threads( 4 )
memory 2 gb

molecule MOL {
0 1

H	 -2.498963	 -0.741158	 -0.729149
O	 -2.346257	 -0.289210	 0.080372
C	 -1.183935	 0.486039	 -0.009831
C	 0.062853	 -0.375310	 0.027457
H	 -1.178881	 1.094526	 -0.908634
H	 -1.184406	 1.155156	 0.838676
O	 1.172093	 0.457955	 -0.054438
H	 0.052476	 -1.081302	 -0.804627
H	 0.076323	 -0.955658	 0.947560
C	 2.302513	 -0.016252	 0.600161
H	 2.630449	 -0.968044	 0.188064
H	 3.090837	 0.710211	 0.467937
H	 2.120086	 -0.146475	 1.664249

	symmetry c1
}
set optking {
	frozen_dihedral = ("
		10 7 4 8
	")
}

ee,wfn = optimize('scf', return_wfn=True)
oeprop( wfn, 'DIPOLE', 'QUADRUPOLE', 'MULLIKEN_CHARGES')
f=open( 'psi4out.xyz', 'w' )
f.write( "13  " )
f.write( str(ee) + "\n" )
f.write( MOL.save_string_xyz() )
f.close()
--------------------------------------------------------------------------

    Molecular point group: c1
  Charge       = 0
  Multiplicity = 1
  Basis Set: CC-PVTZ
  Basis Set:
  @DF-RHF Final Energy:  -268.06066556217320
    Total Energy =                       -268.0606655621734262
    Molecular point group: c1
  Basis Set: CC-PVTZ
  Basis Set:
  Basis Set: CC-PVTZ
  Basis Set:
  @DF-RHF Final Energy:  -268.06075723039987
    Total Energy =                       -268.0607572303998154
  Basis Set: CC-PVTZ
  Basis Set:
  Basis Set: CC-PVTZ
  Basis Set:
  @DF-RHF Final Energy:  -268.06078782432689
    Total Energy =                       -268.0607878243268942
  Basis Set: CC-PVTZ
  Basis Set:
  Charge       = 0
  Multiplicity = 1
  Basis Set: CC-PVTZ
  Basis Set:

    Orbital Energies (a.u.)
    -----------------------

    Doubly Occupied:

       1A    -20.554666     2A    -20.552598     3A    -11.269103
       4A    -11.267848     5A    -11.266989     6A     -1.389839
       7A     -1.368723     8A     -1.019236     9A     -0.915055
      10A     -0.841726    11A     -0.710937    12A     -0.677499
      13A     -0.660986    14A     -0.635724    15A     -0.602003
      16A     -0.574677    17A     -0.538991    18A     -0.491989
      19A     -0.485853    20A     -0.446890    21A     -0.417502

  @DF-RHF Final Energy:  -268.06078842132968

   => Energetics <=

    Nuclear Repulsion Energy =            190.4918992909135795
    One-Electron Energy =                -743.7277079984523880
    Two-Electron Energy =                 285.1750202862090191
    DFT Exchange-Correlation Energy =       0.0000000000000000
    Empirical Dispersion Energy =           0.0000000000000000
    PCM Polarization Energy =               0.0000000000000000
    EFP Energy =                            0.0000000000000000
    Total Energy =                       -268.0607884213297893
    Molecular point group: c1
  Basis Set: CC-PVTZ
  Basis Set:

  -Total Gradient:
     Atom            X                  Y                   Z
    ------   -----------------  -----------------  -----------------
       1       -0.000019657937    -0.000004977737     0.000014243860
       2       -0.000069919438    -0.000070080371    -0.000035686294
       3        0.000031138968     0.000035665996    -0.000003915907
       4        0.001459877731    -0.001627685624     0.002420393313
       5        0.000005053219    -0.000002183491     0.000022689850
       6        0.000035313869     0.000009066782    -0.000008868815
       7        0.000430187076    -0.000960524388    -0.002785506882
       8       -0.001337208301     0.001643649840    -0.001321026108
       9        0.000001644437     0.000011799032    -0.000000906331
      10       -0.000493151078     0.000951609243     0.001724180342
      11       -0.000024437455     0.000017135549    -0.000002156128
      12        0.000001917415    -0.000004973996    -0.000001174771
      13       -0.000020758497     0.000001499163    -0.000022266129

  **** Optimization is complete! (in 4 steps) ****
    Final optimized geometry and variables:
    Molecular point group: c1

    Geometry (in Angstrom), charge = 0, multiplicity = 1:

    H           -2.468081575236    -0.766237938335    -0.892724067785
    O           -2.334293653737    -0.333072728096    -0.069654517976
    C           -1.171000229279     0.444998816710    -0.115569771566
    C            0.077710263443    -0.415953082141    -0.072679301114
    H           -1.145918121569     1.074064174639    -0.999775100090
    H           -1.192140104975     1.095207957092     0.747532546383
    O            1.189270289561     0.417133438502    -0.173138626875
    H            0.056685535188    -1.118248267781    -0.906096434750
    H            0.090888474477    -0.988278355742     0.850101969837
    C            2.340934051372    -0.042755415463     0.455987718339
    H            2.675892439308    -0.989791702875     0.038757003559
    H            3.115428355101     0.694820473690     0.303964073617
    H            2.184112325449    -0.172401994476     1.523625222787

  Mulliken Charges: (a.u.)
   Center  Symbol    Alpha    Beta     Spin     Total
       1     H     0.39330  0.39330  0.00000  0.21340
       2     O     4.20290  4.20290  0.00000 -0.40581
       3     C     2.97305  2.97305  0.00000  0.05389
       4     C     2.96752  2.96752  0.00000  0.06496
       5     H     0.46671  0.46671  0.00000  0.06658
       6     H     0.45489  0.45489  0.00000  0.09022
       7     O     4.17858  4.17858  0.00000 -0.35716
       8     H     0.47471  0.47471  0.00000  0.05059
       9     H     0.47026  0.47026  0.00000  0.05948
      10     C     3.03020  3.03020  0.00000 -0.06041
      11     H     0.47043  0.47043  0.00000  0.05913
      12     H     0.44782  0.44782  0.00000  0.10436
      13     H     0.46961  0.46961  0.00000  0.06077

   Total alpha = 21.00000, Total beta = 21.00000, Total charge =  0.00000

*** Psi4 exiting successfully. Buy a developer a beer!
