                              Psi4 1.0.54 Driver

  ==> Input File <==

--------------------------------------------------------------------------
set {
	reference rhf
	basis cc-pvtz
}

set_num_threads( 4 )
memory 2 gb

molecule MOL {
0 1

H	 1.957535	 2.265664	 -0.712634
N	 1.139994	 1.698303	 -0.785559
C	 1.263552	 0.494993	 0.021953
H	 1.025389	 1.469464	 -1.750875
C	 -0.016533	 -0.325589	 -0.026925
H	 1.453309	 0.800819	 1.045406
H	 2.103730	 -0.132873	 -0.277828
C	 -1.280353	 0.525521	 0.047747
H	 -0.016686	 -0.912532	 -0.939714
H	 -0.014099	 -1.037598	 0.796369
C	 -2.560681	 -0.301323	 -0.007747
H	 -1.279957	 1.241025	 -0.770189
H	 -1.270445	 1.110526	 0.963468
H	 -2.617064	 -0.872870	 -0.928010
H	 -3.439525	 0.331102	 0.043462
H	 -2.609427	 -1.002736	 0.818585

	symmetry c1
}
set optking {
	frozen_dihedral = ("
		6 3 5 9
	")
}

ee,wfn = optimize('scf', return_wfn=True)
oeprop( wfn, 'DIPOLE', 'QUADRUPOLE', 'MULLIKEN_CHARGES')
f=open( 'psi4out.xyz', 'w' )
f.write( "16  " )
f.write( str(ee) + "\n" )
f.write( MOL.save_string_xyz() )
f.close()
--------------------------------------------------------------------------

    Molecular point group: c1
  Charge       = 0
  Multiplicity = 1
  Basis Set: CC-PVTZ
  Basis Set:
  @DF-RHF Final Energy:  -212.39645214298520
    Total Energy =                       -212.3964521429853107
    Molecular point group: c1
  Basis Set: CC-PVTZ
  Basis Set:
  Basis Set: CC-PVTZ
  Basis Set:
  @DF-RHF Final Energy:  -212.39705431841222
    Total Energy =                       -212.3970543184121880
  Basis Set: CC-PVTZ
  Basis Set:
  Basis Set: CC-PVTZ
  Basis Set:
  @DF-RHF Final Energy:  -212.39784529524553
    Total Energy =                       -212.3978452952455314
  Basis Set: CC-PVTZ
  Basis Set:
  Basis Set: CC-PVTZ
  Basis Set:
  @DF-RHF Final Energy:  -212.39788506359511
    Total Energy =                       -212.3978850635950835
  Basis Set: CC-PVTZ
  Basis Set:
  Basis Set: CC-PVTZ
  Basis Set:
  @DF-RHF Final Energy:  -212.39788727510052
    Total Energy =                       -212.3978872751005156
  Basis Set: CC-PVTZ
  Basis Set:
  Charge       = 0
  Multiplicity = 1
  Basis Set: CC-PVTZ
  Basis Set:

    Orbital Energies (a.u.)
    -----------------------

    Doubly Occupied:

       1A    -15.527579     2A    -11.239139     3A    -11.209023
       4A    -11.204063     5A    -11.201293     6A     -1.179300
       7A     -1.054056     8A     -0.959738     9A     -0.848629
      10A     -0.780687    11A     -0.668434    12A     -0.620902
      13A     -0.618001    14A     -0.575621    15A     -0.562927
      16A     -0.521794    17A     -0.499003    18A     -0.468693
      19A     -0.462709    20A     -0.456624    21A     -0.382076

  @DF-RHF Final Energy:  -212.39788791556640

   => Energetics <=

    Nuclear Repulsion Energy =            189.1771569745034185
    One-Electron Energy =                -661.0695058078653119
    Two-Electron Energy =                 259.4944609177953225
    DFT Exchange-Correlation Energy =       0.0000000000000000
    Empirical Dispersion Energy =           0.0000000000000000
    PCM Polarization Energy =               0.0000000000000000
    EFP Energy =                            0.0000000000000000
    Total Energy =                       -212.3978879155665709
    Molecular point group: c1
  Basis Set: CC-PVTZ
  Basis Set:

  -Total Gradient:
     Atom            X                  Y                   Z
    ------   -----------------  -----------------  -----------------
       1       -0.000000747496    -0.000013137742     0.000001941000
       2       -0.000020841705    -0.000009562804     0.000012953207
       3       -0.002413080000     0.004156650773    -0.000438509907
       4       -0.000002473149    -0.000008951539     0.000013303737
       5       -0.001871731183     0.003571477969    -0.002787150864
       6        0.002337974866    -0.004070978594     0.000812796752
       7        0.000004006377     0.000011210983    -0.000004228534
       8        0.000000494533    -0.000000818024     0.000052093140
       9        0.001964876378    -0.003671682547     0.002352443717
      10        0.000002445356     0.000011952406     0.000001255513
      11        0.000008808001     0.000002877637    -0.000016202064
      12       -0.000002300399     0.000002614925    -0.000006169393
      13       -0.000010109925     0.000018748101     0.000008962177
      14       -0.000001511573    -0.000008738566    -0.000008921033
      15        0.000000155659     0.000006105770    -0.000003847627
      16        0.000004034261     0.000002231253     0.000009280177

  **** Optimization is complete! (in 6 steps) ****
    Final optimized geometry and variables:
    Molecular point group: c1

    Geometry (in Angstrom), charge = 0, multiplicity = 1:

    H            2.402988929453     1.731560545045    -0.510852146340
    N            1.550578414247     1.228348618508    -0.635592920909
    C            1.520846683657     0.043645058522     0.205768256594
    H            1.495200873583     0.979712989954    -1.601673963320
    C            0.205838696459    -0.727122524546     0.104553208201
    H            1.683031328166     0.341021030070     1.236397945050
    H            2.330374419966    -0.650775256521    -0.023768716817
    C           -1.059216350436     0.118011005336     0.206024558646
    H            0.201433927555    -1.320907583091    -0.807722971107
    H            0.205284901117    -1.461097185064     0.907507617584
    C           -2.329056303857    -0.727077046251     0.199966212664
    H           -1.090817502415     0.830942042513    -0.607737245682
    H           -1.019346097747     0.707436709289     1.117881692518
    H           -2.407780799774    -1.310024873279    -0.712252269177
    H           -3.213787781180    -0.104505057367     0.269625463226
    H           -2.346626788154    -1.420375215391     1.034738185921

  Mulliken Charges: (a.u.)
   Center  Symbol    Alpha    Beta     Spin     Total
       1     H     0.42916  0.42916  0.00000  0.14168
       2     N     3.68796  3.68796  0.00000 -0.37593
       3     C     3.03787  3.03787  0.00000 -0.07575
       4     H     0.43102  0.43102  0.00000  0.13795
       5     C     3.09645  3.09645  0.00000 -0.19289
       6     H     0.45554  0.45554  0.00000  0.08891
       7     H     0.46148  0.46148  0.00000  0.07705
       8     C     3.07298  3.07298  0.00000 -0.14597
       9     H     0.45456  0.45456  0.00000  0.09088
      10     H     0.45354  0.45354  0.00000  0.09291
      11     C     3.15059  3.15059  0.00000 -0.30117
      12     H     0.44998  0.44998  0.00000  0.10004
      13     H     0.45640  0.45640  0.00000  0.08720
      14     H     0.45687  0.45687  0.00000  0.08626
      15     H     0.44876  0.44876  0.00000  0.10247
      16     H     0.45683  0.45683  0.00000  0.08635

   Total alpha = 21.00000, Total beta = 21.00000, Total charge =  0.00000

*** Psi4 exiting successfully. Buy a developer a beer!
