  ==> Input File <==

--------------------------------------------------------------------------
set {
	reference rhf
	basis 6-31G*
}

set_num_threads( 4 )
memory 2 gb

molecule MOL {
0 1

H	 -3.502452	 -0.111224	 -1.147696
O	 -3.517110	 -0.026191	 -0.205115
C	 -2.306886	 0.532354	 0.237577
C	 -1.177863	 -0.397191	 -0.171080
H	 -2.156308	 1.517575	 -0.201710
H	 -2.315015	 0.655684	 1.319734
C	 0.198102	 0.111031	 0.262842
H	 -1.208843	 -0.518759	 -1.250427
H	 -1.368741	 -1.376554	 0.258909
C	 1.331804	 -0.827780	 -0.158768
H	 0.361943	 1.100838	 -0.156218
H	 0.217265	 0.229072	 1.345532
C	 2.723619	 -0.410569	 0.329459
H	 1.342964	 -0.912588	 -1.244120
H	 1.116806	 -1.824343	 0.220779
C	 3.243875	 0.895854	 -0.272975
H	 3.424222	 -1.207124	 0.091250
H	 2.714788	 -0.329854	 1.414619
H	 3.251977	 0.848779	 -1.358681
H	 2.637085	 1.747371	 0.016682
H	 4.259473	 1.094070	 0.055697

	symmetry c1
}
set optking {
	frozen_dihedral = ("
		1 2 3 5
	")
}

ee = optimize('scf')
oeprop('DIPOLE', 'QUADRUPOLE', 'MULLIKEN_CHARGES')
f=open( 'psi4out.xyz', 'w' )
f.write( "21  " )
f.write( str(ee) + "\n" )
f.write( MOL.save_string_xyz() )
f.close()
--------------------------------------------------------------------------

    Molecular point group: c1
  Charge       = 0
  Multiplicity = 1
  Basis Set: 6-31G*
  Basis Set:
  @DF-RHF Final Energy:  -310.21084113885883
    Total Energy =                       -310.2108411388588820
    Molecular point group: c1
  Basis Set: 6-31G*
  Basis Set:
  Basis Set: 6-31G*
  Basis Set:
  @DF-RHF Final Energy:  -310.21243035624502
    Total Energy =                       -310.2124303562451360
  Basis Set: 6-31G*
  Basis Set:
  Basis Set: 6-31G*
  Basis Set:
  @DF-RHF Final Energy:  -310.21281551071394
    Total Energy =                       -310.2128155107139946
  Basis Set: 6-31G*
  Basis Set:
  Basis Set: 6-31G*
  Basis Set:
  @DF-RHF Final Energy:  -310.21281999647067
    Total Energy =                       -310.2128199964706141
  Basis Set: 6-31G*
  Basis Set:
  Basis Set: 6-31G*
  Basis Set:
  @DF-RHF Final Energy:  -310.21281583430880
    Total Energy =                       -310.2128158343084010
  Basis Set: 6-31G*
  Basis Set:
  Basis Set: 6-31G*
  Basis Set:
  @DF-RHF Final Energy:  -310.21282097477933
    Total Energy =                       -310.2128209747793335
  Basis Set: 6-31G*
  Basis Set:
  Charge       = 0
  Multiplicity = 1
  Basis Set: 6-31G*
  Basis Set:

    Orbital Energies (a.u.)
    -----------------------

    Doubly Occupied:

       1A    -20.552196     2A    -11.266804     3A    -11.219511
       4A    -11.217719     5A    -11.217008     6A    -11.216677
       7A    -11.210381     8A     -1.359118     9A     -1.089425
      10A     -1.035168    11A     -0.955583    12A     -0.879699
      13A     -0.819279    14A     -0.781448    15A     -0.692719
      16A     -0.643559    17A     -0.624059    18A     -0.614036
      19A     -0.591435    20A     -0.570633    21A     -0.551001
      22A     -0.523000    23A     -0.504771    24A     -0.501476
      25A     -0.477050    26A     -0.463959    27A     -0.460550
      28A     -0.458801    29A     -0.421746

  @DF-RHF Final Energy:  -310.21282096445793

   => Energetics <=

    Nuclear Repulsion Energy =            312.2416826408148154
    One-Electron Energy =               -1039.0713855245674040
    Two-Electron Energy =                 416.6168819192947694
    DFT Exchange-Correlation Energy =       0.0000000000000000
    Empirical Dispersion Energy =           0.0000000000000000
    PCM Polarization Energy =               0.0000000000000000
    EFP Energy =                            0.0000000000000000
    Total Energy =                       -310.2128209644578192
    Molecular point group: c1
  Basis Set: 6-31G*
  Basis Set:

  -Total Gradient:
     Atom            X                  Y                   Z
    ------   -----------------  -----------------  -----------------
       1       -0.000002427884    -0.000010742196    -0.000001406607
       2       -0.000016301583     0.000003684844    -0.000007268932
       3        0.000005706379    -0.000002643213     0.000004232860
       4        0.000012309817     0.000001157025     0.000004987760
       5        0.000001533722     0.000001620108     0.000008330305
       6        0.000005489272     0.000004166723     0.000001124264
       7        0.000003650517     0.000000538640    -0.000008491750
       8       -0.000000200589     0.000003835386     0.000000134565
       9        0.000000239390    -0.000001927477    -0.000002793588
      10        0.000000328426    -0.000007005493     0.000003957065
      11        0.000001221057     0.000003728682    -0.000004749086
      12        0.000001784082     0.000001519640    -0.000003743662
      13       -0.000003565237    -0.000000365918     0.000004962249
      14        0.000000950965     0.000000951363     0.000000087935
      15       -0.000007705009    -0.000001071395    -0.000000115428
      16       -0.000002804143     0.000001225527     0.000000839974
      17       -0.000003436142     0.000001697249    -0.000003313027
      18        0.000004596063    -0.000002582278     0.000002188971
      19        0.000000741610    -0.000001033967     0.000001650914
      20       -0.000001952314     0.000001926095    -0.000001610072
      21       -0.000000158387     0.000001320654     0.000000995290

  **** Optimization is complete! (in 7 steps) ****
    Final optimized geometry and variables:
    Molecular point group: c1

    Geometry (in Angstrom), charge = 0, multiplicity = 1:

    H           -3.627752064594    -0.044703160076    -1.082629179804
    O           -3.571292427390     0.018263771015    -0.139334143559
    C           -2.310873823356     0.522323173946     0.218442656153
    C           -1.172541830134    -0.409056215949    -0.179937050257
    H           -2.157341575332     1.510973009509    -0.212378678853
    H           -2.336075636752     0.642193886582     1.294319223255
    C            0.200256689844     0.106591055251     0.256141210385
    H           -1.183485700125    -0.541180992068    -1.261984548742
    H           -1.362040918188    -1.387314751803     0.253454231139
    C            1.341621578202    -0.828713895702    -0.152267738489
    H            0.361023434258     1.095149555053    -0.166919876343
    H            0.210337625891     0.230940888255     1.337970697391
    C            2.727301988949    -0.402236106118     0.345364033983
    H            1.362541145039    -0.918256132686    -1.237287200868
    H            1.128439634318    -1.824569197800     0.230110477467
    C            3.244734462617     0.905386083159    -0.256848238380
    H            3.433938441978    -1.195633265196     0.114800480419
    H            2.709478247288    -0.318602859663     1.430088625659
    H            3.261606271874     0.855333645623    -1.342362576084
    H            2.631257056889     1.754404335814     0.025917067073
    H            4.256614593077     1.110027845336     0.079009527418

  Mulliken Charges: (a.u.)
   Center  Symbol    Alpha    Beta     Spin     Total
       1     H     0.28338  0.28338  0.00000  0.43323
       2     O     4.37081  4.37081  0.00000 -0.74162
       3     C     2.98792  2.98792  0.00000  0.02416
       4     C     3.16758  3.16758  0.00000 -0.33517
       5     H     0.43191  0.43191  0.00000  0.13619
       6     H     0.41669  0.41669  0.00000  0.16662
       7     C     3.16158  3.16158  0.00000 -0.32316
       8     H     0.42872  0.42872  0.00000  0.14255
       9     H     0.41381  0.41381  0.00000  0.17238
      10     C     3.15176  3.15176  0.00000 -0.30352
      11     H     0.42100  0.42100  0.00000  0.15800
      12     H     0.42177  0.42177  0.00000  0.15645
      13     C     3.15266  3.15266  0.00000 -0.30533
      14     H     0.42408  0.42408  0.00000  0.15185
      15     H     0.42068  0.42068  0.00000  0.15864
      16     C     3.24141  3.24141  0.00000 -0.48282
      17     H     0.42032  0.42032  0.00000  0.15936
      18     H     0.42273  0.42273  0.00000  0.15453
      19     H     0.42234  0.42234  0.00000  0.15532
      20     H     0.42023  0.42023  0.00000  0.15954
      21     H     0.41861  0.41861  0.00000  0.16279

   Total alpha = 29.00000, Total beta = 29.00000, Total charge = -0.00000
