  ==> Input File <==

--------------------------------------------------------------------------
set {
	reference rhf
	basis cc-pvtz
}

set_num_threads( 4 )
memory 2 gb

molecule MOL {
0 1

H	 0.083144	 -2.547901	 -0.315416
C	 -0.794875	 -1.903917	 -0.391684
N	 -0.537714	 -0.645117	 0.000000
O	 -1.841264	 -2.314433	 -0.783173
C	 -1.522613	 0.412524	 0.000000
H	 0.382302	 -0.442142	 0.303900
H	 -2.150256	 0.356137	 -0.880771
H	 -1.005621	 1.357208	 0.000000
H	 -2.150256	 0.356137	 0.880771

	symmetry c1
}
set optking {
	frozen_dihedral = ("
		6 3 5 7
	")
}

ee = optimize('scf')
oeprop('DIPOLE', 'QUADRUPOLE', 'MULLIKEN_CHARGES')
f=open( 'psi4out.xyz', 'w' )
f.write( "9  " )
f.write( str(ee) + "\n" )
f.write( MOL.save_string_xyz() )
f.close()
--------------------------------------------------------------------------

    Molecular point group: c1
  Charge       = 0
  Multiplicity = 1
  Basis Set: CC-PVTZ
  Basis Set:
  @DF-RHF Final Energy:  -208.04342602885339
    Total Energy =                       -208.0434260288532755
    Molecular point group: c1
  Basis Set: CC-PVTZ
  Basis Set:
  Basis Set: CC-PVTZ
  Basis Set:
  @DF-RHF Final Energy:  -208.04361285095044
    Total Energy =                       -208.0436128509504101
  Basis Set: CC-PVTZ
  Basis Set:
  Basis Set: CC-PVTZ
  Basis Set:
  @DF-RHF Final Energy:  -208.04361661986022
    Total Energy =                       -208.0436166198603019
  Basis Set: CC-PVTZ
  Basis Set:
  Basis Set: CC-PVTZ
  Basis Set:
  @DF-RHF Final Energy:  -208.04365271648430
    Total Energy =                       -208.0436527164842744
  Basis Set: CC-PVTZ
  Basis Set:
  @DF-RHF Final Energy:  -208.04366473614394
    Total Energy =                       -208.0436647361437679
  Basis Set: CC-PVTZ
  Basis Set:
  @DF-RHF Final Energy:  -208.04367215025727
    Total Energy =                       -208.0436721502571231
  Basis Set: CC-PVTZ
  Basis Set:
  Basis Set: CC-PVTZ
  Basis Set:
  @DF-RHF Final Energy:  -208.04367694619717
    Total Energy =                       -208.0436769461971096
  Basis Set: CC-PVTZ
  Basis Set:
  Basis Set: CC-PVTZ
  Basis Set:
  @DF-RHF Final Energy:  -208.04367988090740
    Total Energy =                       -208.0436798809074332
  Basis Set: CC-PVTZ
  Basis Set:
  Charge       = 0
  Multiplicity = 1
  Basis Set: CC-PVTZ
  Basis Set:

    Orbital Energies (a.u.)
    -----------------------

    Doubly Occupied:

       1A    -20.516723     2A    -15.584469     3A    -11.336264
       4A    -11.260308     5A     -1.394042     6A     -1.239438
       7A     -0.969821     8A     -0.809027     9A     -0.749025
      10A     -0.645979    11A     -0.629936    12A     -0.596216
      13A     -0.558887    14A     -0.537736    15A     -0.428425
      16A     -0.396722

  @DF-RHF Final Energy:  -208.04368031541512

   => Energetics <=

    Nuclear Repulsion Energy =            122.8999537070722283
    One-Electron Energy =                -526.5812259454402238
    Two-Electron Energy =                 195.6375919229528222
    DFT Exchange-Correlation Energy =       0.0000000000000000
    Empirical Dispersion Energy =           0.0000000000000000
    PCM Polarization Energy =               0.0000000000000000
    EFP Energy =                            0.0000000000000000
    Total Energy =                       -208.0436803154152017
    Molecular point group: c1
  Basis Set: CC-PVTZ
  Basis Set:

  -Total Gradient:
     Atom            X                  Y                   Z
    ------   -----------------  -----------------  -----------------
       1       -0.000001630553    -0.000001622764     0.000002148488
       2        0.000021760377     0.000023283656    -0.000034422441
       3       -0.000030500282    -0.000040963286     0.000130841100
       4       -0.000008677285    -0.000003530379    -0.000006065071
       5       -0.000023605630    -0.000018426881    -0.000014800108
       6        0.000016692203     0.000018313654    -0.000060286207
       7        0.000018757418     0.000016356340    -0.000013315818
       8       -0.000000219471    -0.000001123019    -0.000011522200
       9        0.000007423222     0.000007712680     0.000007422255

  **** Optimization is complete! (in 9 steps) ****
    Final optimized geometry and variables:
    Molecular point group: c1

    Geometry (in Angstrom), charge = 0, multiplicity = 1:

    H            1.251331517862    -1.467865912506    -0.036249113269
    C            0.383509280719    -0.808279008132    -0.095556832642
    N            0.668796378816     0.458207131048     0.244785603353
    O           -0.686779617366    -1.200523190877    -0.438292512696
    C           -0.337067242659     1.496383360988     0.278073997435
    H            1.580230479647     0.656287122899     0.574619995648
    H           -0.935024566462     1.457957542911    -0.619775832902
    H            0.153984621814     2.457399129477     0.332162590756
    H           -0.996299677945     1.389765334456     1.130925070642

  Mulliken Charges: (a.u.)
   Center  Symbol    Alpha    Beta     Spin     Total
       1     H     0.46420  0.46420  0.00000  0.07160
       2     C     2.87991  2.87991  0.00000  0.24019
       3     N     3.60589  3.60589  0.00000 -0.21178
       4     O     4.21417  4.21417  0.00000 -0.42834
       5     C     3.07605  3.07605  0.00000 -0.15210
       6     H     0.41022  0.41022  0.00000  0.17957
       7     H     0.44195  0.44195  0.00000  0.11610
       8     H     0.45429  0.45429  0.00000  0.09143
       9     H     0.45333  0.45333  0.00000  0.09335

   Total alpha = 16.00000, Total beta = 16.00000, Total charge = -0.00000
