  ==> Input File <==

--------------------------------------------------------------------------
set {
	reference rhf
	basis cc-pvtz
}

set_num_threads( 4 )
memory 2 gb

molecule MOL {
0 1

H	 2.867672	 -0.456275	 0.875795
C	 2.403497	 -0.020426	 0.000000
N	 0.989899	 -0.304564	 0.000000
H	 2.867672	 -0.456275	 -0.875795
H	 2.620366	 1.051270	 0.000000
C	 0.187629	 0.878615	 0.232412
C	 0.636182	 -1.352953	 0.934523
H	 0.406822	 1.325023	 1.207306
H	 0.415681	 1.618678	 -0.525893
C	 -1.286669	 0.528850	 0.166426
H	 1.193352	 -2.250266	 0.691379
H	 0.889113	 -1.074393	 1.962226
C	 -0.849641	 -1.645380	 0.850496
H	 -1.891810	 1.385230	 0.429187
H	 -1.542828	 0.222939	 -0.845947
O	 -1.604392	 -0.490196	 1.067393
H	 -1.138882	 -2.360617	 1.607730
H	 -1.083185	 -2.063802	 -0.126478

	symmetry c1
}
set optking {
	frozen_dihedral = ("
		6 3 2 5
	")
}

ee = optimize('scf')
oeprop('DIPOLE', 'QUADRUPOLE', 'MULLIKEN_CHARGES')
f=open( 'psi4out.xyz', 'w' )
f.write( "18  " )
f.write( str(ee) + "\n" )
f.write( MOL.save_string_xyz() )
f.close()
--------------------------------------------------------------------------

    Molecular point group: c1
  Charge       = 0
  Multiplicity = 1
  Basis Set: CC-PVTZ
  Basis Set:
  @DF-RHF Final Energy:  -325.13964197357615
    Total Energy =                       -325.1396419735760901
    Molecular point group: c1
  Basis Set: CC-PVTZ
  Basis Set:
  Basis Set: CC-PVTZ
  Basis Set:
  @DF-RHF Final Energy:  -325.14050777957635
    Total Energy =                       -325.1405077795764100
  Basis Set: CC-PVTZ
  Basis Set:
  Basis Set: CC-PVTZ
  Basis Set:
  @DF-RHF Final Energy:  -325.14065014315457
    Total Energy =                       -325.1406501431543461
  Basis Set: CC-PVTZ
  Basis Set:
  Basis Set: CC-PVTZ
  Basis Set:
  @DF-RHF Final Energy:  -325.14066304468815
    Total Energy =                       -325.1406630446883241
  Basis Set: CC-PVTZ
  Basis Set:
  Charge       = 0
  Multiplicity = 1
  Basis Set: CC-PVTZ
  Basis Set:

    Orbital Energies (a.u.)
    -----------------------

    Doubly Occupied:

       1A    -20.547051     2A    -15.540419     3A    -11.263632
       4A    -11.263554     5A    -11.242566     6A    -11.242383
       7A    -11.239010     8A     -1.385871     9A     -1.229588
      10A     -1.039011    11A     -0.981197    12A     -0.883939
      13A     -0.870247    14A     -0.773207    15A     -0.684478
      16A     -0.645828    17A     -0.644658    18A     -0.632520
      19A     -0.628246    20A     -0.572531    21A     -0.557845
      22A     -0.547644    23A     -0.526798    24A     -0.499893
      25A     -0.485565    26A     -0.453539    27A     -0.410197
      28A     -0.347473

  @DF-RHF Final Energy:  -325.14066399949570

   => Energetics <=

    Nuclear Repulsion Energy =            341.4081589574832378
    One-Electron Energy =               -1118.8198672359071679
    Two-Electron Energy =                 452.2710442789284571
    DFT Exchange-Correlation Energy =       0.0000000000000000
    Empirical Dispersion Energy =           0.0000000000000000
    PCM Polarization Energy =               0.0000000000000000
    EFP Energy =                            0.0000000000000000
    Total Energy =                       -325.1406639994954730
    Molecular point group: c1
  Basis Set: CC-PVTZ
  Basis Set:

  -Total Gradient:
     Atom            X                  Y                   Z
    ------   -----------------  -----------------  -----------------
       1        0.000011131610     0.000003388150     0.000006352129
       2       -0.000133490204    -0.000006522383    -0.005358750443
       3        0.000200819792    -0.000435981699     0.004482112871
       4       -0.000038336186    -0.000005720722     0.000044750989
       5        0.000125367725     0.000151545627     0.003371866987
       6       -0.000150444827     0.000374465820    -0.002523665788
       7       -0.000010298140    -0.000018169898    -0.000028540108
       8        0.000017954344    -0.000009577252    -0.000003904824
       9       -0.000004263237    -0.000006016332    -0.000001733485
      10       -0.000012594988    -0.000051758082    -0.000036148602
      11       -0.000003632417     0.000000203156     0.000003392941
      12       -0.000009274255    -0.000001115314    -0.000011129076
      13       -0.000014009018    -0.000021254526     0.000052473238
      14        0.000004074514    -0.000010551185     0.000008949611
      15       -0.000002180305     0.000015996001    -0.000019001935
      16        0.000026910350     0.000020307542     0.000004301005
      17       -0.000025345313    -0.000007826678     0.000002589762
      18        0.000017610551     0.000008587776     0.000006084729

  **** Optimization is complete! (in 5 steps) ****
    Final optimized geometry and variables:
    Molecular point group: c1

    Geometry (in Angstrom), charge = 0, multiplicity = 1:

    H            2.865124638204    -0.053732432437     0.394240798100
    C            2.350922570619     0.306573867684    -0.495421488655
    N            0.924807540285     0.055003170034    -0.430757463971
    H            2.799046257320    -0.175611299931    -1.356587397223
    H            2.550588186975     1.369418201283    -0.548531506092
    C            0.113670179671     1.234017856166    -0.221998361320
    C            0.563126601113    -1.015931540920     0.469486050013
    H            0.307952000454     1.696894450025     0.751006963087
    H            0.344066209641     1.966540155393    -0.986178645305
    C           -1.356403050366     0.869877299759    -0.310478459488
    H            1.122100590859    -1.907532285139     0.208434225776
    H            0.806372972548    -0.766868525340     1.507293061254
    C           -0.921424681964    -1.307996047763     0.363012008370
    H           -1.973710506698     1.719892883831    -0.054942924265
    H           -1.593427116522     0.564319915743    -1.327783359675
    O           -1.678806781660    -0.155051199038     0.582053927968
    H           -1.220525005952    -2.031512630774     1.108663380357
    H           -1.142137256975    -1.715700736081    -0.621540419521

  Mulliken Charges: (a.u.)
   Center  Symbol    Alpha    Beta     Spin     Total
       1     H     0.46421  0.46421  0.00000  0.07158
       2     C     3.09073  3.09073  0.00000 -0.18146
       3     N     3.61883  3.61883  0.00000 -0.23765
       4     H     0.44914  0.44914  0.00000  0.10172
       5     H     0.45712  0.45712  0.00000  0.08576
       6     C     3.04037  3.04037  0.00000 -0.08075
       7     C     3.04105  3.04105  0.00000 -0.08209
       8     H     0.46953  0.46953  0.00000  0.06094
       9     H     0.45388  0.45388  0.00000  0.09224
      10     C     2.98429  2.98429  0.00000  0.03141
      11     H     0.45382  0.45382  0.00000  0.09235
      12     H     0.46912  0.46912  0.00000  0.06176
      13     C     2.98424  2.98424  0.00000  0.03152
      14     H     0.45011  0.45011  0.00000  0.09978
      15     H     0.46853  0.46853  0.00000  0.06294
      16     O     4.18642  4.18642  0.00000 -0.37283
      17     H     0.45017  0.45017  0.00000  0.09967
      18     H     0.46844  0.46844  0.00000  0.06312

   Total alpha = 28.00000, Total beta = 28.00000, Total charge = -0.00000
