  ==> Input File <==

--------------------------------------------------------------------------
set {
	reference rhf
	basis 6-31G*
}

set_num_threads( 4 )
memory 2 gb

molecule MOL {
0 1

H	 -1.836216	 1.387520	 -0.000064
C	 -1.301823	 0.443321	 -0.000031
O	 -0.003969	 0.658512	 0.000451
O	 -1.829879	 -0.616434	 -0.000857
C	 0.850537	 -0.484732	 0.000380
C	 2.278416	 0.015741	 0.032133
H	 0.649550	 -1.070079	 -0.886351
H	 0.618746	 -1.093809	 0.863278
H	 2.490185	 0.630307	 -0.835332
H	 2.963382	 -0.825719	 0.032629
H	 2.459394	 0.606494	 0.922720

	symmetry c1
}
set optking {
	frozen_dihedral = ("
		7 5 3 2
	")
}

ee = optimize('scf')
oeprop('DIPOLE', 'QUADRUPOLE', 'MULLIKEN_CHARGES')
f=open( 'psi4out.xyz', 'w' )
f.write( "11  " )
f.write( str(ee) + "\n" )
f.write( MOL.save_string_xyz() )
f.close()
--------------------------------------------------------------------------

    Molecular point group: c1
  Charge       = 0
  Multiplicity = 1
  Basis Set: 6-31G*
  Basis Set:
  @DF-RHF Final Energy:  -266.82899791967452
    Total Energy =                       -266.8289979196745207
    Molecular point group: c1
  Basis Set: 6-31G*
  Basis Set:
  Basis Set: 6-31G*
  Basis Set:
  @DF-RHF Final Energy:  -266.82899699698828
    Total Energy =                       -266.8289969969882804
  Basis Set: 6-31G*
  Basis Set:
  Basis Set: 6-31G*
  Basis Set:
  @DF-RHF Final Energy:  -266.82899407373088
    Total Energy =                       -266.8289940737308825
  Basis Set: 6-31G*
  Basis Set:
  Charge       = 0
  Multiplicity = 1
  Basis Set: 6-31G*
  Basis Set:

    Orbital Energies (a.u.)
    -----------------------

    Doubly Occupied:

       1A    -20.612994     2A    -20.557065     3A    -11.378381
       4A    -11.291883     5A    -11.226803     6A     -1.476446
       7A     -1.373998     8A     -1.052806     9A     -0.902529
      10A     -0.805618    11A     -0.737456    12A     -0.690652
      13A     -0.677897    14A     -0.590850    15A     -0.576169
      16A     -0.557007    17A     -0.517720    18A     -0.515014
      19A     -0.459975    20A     -0.454635

  @DF-RHF Final Energy:  -266.82899827727488

   => Energetics <=

    Nuclear Repulsion Energy =            179.3127416840736998
    One-Electron Energy =                -719.3716825854444323
    Two-Electron Energy =                 273.2299426240958837
    DFT Exchange-Correlation Energy =       0.0000000000000000
    Empirical Dispersion Energy =           0.0000000000000000
    PCM Polarization Energy =               0.0000000000000000
    EFP Energy =                            0.0000000000000000
    Total Energy =                       -266.8289982772748772
    Molecular point group: c1
  Basis Set: 6-31G*
  Basis Set:

  -Total Gradient:
     Atom            X                  Y                   Z
    ------   -----------------  -----------------  -----------------
       1       -0.000004788697     0.000000070773     0.000041519422
       2       -0.000000319506     0.000009990770    -0.000001511254
       3        0.000010413388     0.000029482390    -0.000151530348
       4       -0.000000697239    -0.000001251606     0.000034796223
       5       -0.000086850133    -0.000078913167     0.000159286556
       6       -0.000018409585    -0.000012009397    -0.000011545346
       7        0.000087728192     0.000060995240    -0.000066959416
       8        0.000013310765    -0.000008929966    -0.000003614560
       9        0.000003667291     0.000001349332     0.000000015082
      10        0.000002341140     0.000000418077    -0.000001295624
      11       -0.000006395611    -0.000001202448     0.000000839265

  **** Optimization is complete! (in 4 steps) ****
    Final optimized geometry and variables:
    Molecular point group: c1

    Geometry (in Angstrom), charge = 0, multiplicity = 1:

    H           -1.836028559025     1.387848305296    -0.004429882037
    C           -1.301796503751     0.443579532880    -0.006765660998
    O           -0.003819157125     0.658310174162    -0.005483065326
    O           -1.830124942338    -0.616065831041    -0.009445256280
    C            0.850689127614    -0.484983080423    -0.004644832064
    C            2.278547018871     0.015782634767     0.025960818107
    H            0.650349656071    -1.070716829494    -0.891372312121
    H            0.619748337459    -1.093658485263     0.858610964318
    H            2.489392449101     0.630250968299    -0.841707230271
    H            2.963698844889    -0.825583711993     0.026051385227
    H            2.459852234608     0.606475191008     0.916522144389

  Mulliken Charges: (a.u.)
   Center  Symbol    Alpha    Beta     Spin     Total
       1     H     0.41024  0.41024  0.00000  0.17952
       2     C     2.72763  2.72763  0.00000  0.54475
       3     O     4.29113  4.29113  0.00000 -0.58227
       4     O     4.26321  4.26321  0.00000 -0.52641
       5     C     3.00637  3.00637  0.00000 -0.01273
       6     C     3.24943  3.24943  0.00000 -0.49887
       7     H     0.40837  0.40837  0.00000  0.18327
       8     H     0.40781  0.40781  0.00000  0.18439
       9     H     0.41037  0.41037  0.00000  0.17927
      10     H     0.41502  0.41502  0.00000  0.16996
      11     H     0.41043  0.41043  0.00000  0.17913

   Total alpha = 20.00000, Total beta = 20.00000, Total charge =  0.00000
