  ==> Input File <==

--------------------------------------------------------------------------
set {
	reference rhf
	basis 6-31G*
}

set_num_threads( 1 )
memory 2 gb

molecule MOL {
0 1

O	 0.625848	 1.349995	 -0.000749
C	 0.486307	 0.169203	 0.000779
C	 1.608116	 -0.841643	 0.000302
O	 -0.698257	 -0.426125	 0.001050
C	 2.990107	 -0.200498	 -0.000684
H	 1.468623	 -1.481519	 -0.865924
H	 1.469683	 -1.481289	 0.866878
H	 3.129736	 0.423364	 -0.875135
H	 3.757882	 -0.966877	 -0.001197
H	 3.130964	 0.423383	 0.873533
C	 -1.650254	 0.003598	 0.968748
C	 -2.906462	 -0.816579	 0.764877
H	 -1.836728	 1.060404	 0.834687
H	 -1.236308	 -0.138147	 1.957762
H	 -3.305521	 -0.667800	 -0.232006
H	 -3.662127	 -0.520161	 1.485125
H	 -2.701935	 -1.872941	 0.897255

	symmetry c1
}
set optking {
	frozen_dihedral = ("
		2 4 11 13,
		4 2 3 6
	")
}

ee = energy('scf')
oeprop('DIPOLE', 'QUADRUPOLE', 'MULLIKEN_CHARGES')
f=open( 'psi4out.xyz', 'w' )
f.write( "17  " )
f.write( str(ee) + "\n" )
f.write( MOL.save_string_xyz() )
f.close()
--------------------------------------------------------------------------

    Molecular point group: c1

    Geometry (in Angstrom), charge = 0, multiplicity = 1:

       Center              X                  Y                   Z               Mass
    ------------   -----------------  -----------------  -----------------  -----------------
           O          0.573025041908     1.454986181681    -0.253450137239    15.994914619560
           C          0.433484041908     0.274194181681    -0.251922137239    12.000000000000
           C          1.555293041908    -0.736651818319    -0.252399137239    12.000000000000
           O         -0.751079958092    -0.321133818319    -0.251651137239    15.994914619560
           C          2.937284041908    -0.095506818319    -0.253385137239    12.000000000000
           H          1.415800041908    -1.376527818319    -1.118625137239     1.007825032070
           H          1.416860041908    -1.376297818319     0.614176862761     1.007825032070
           H          3.076913041908     0.528355181681    -1.127836137239     1.007825032070
           H          3.705059041908    -0.861885818319    -0.253898137239     1.007825032070
           H          3.078141041908     0.528374181681     0.620831862761     1.007825032070
           C         -1.703076958092     0.108589181681     0.716046862761    12.000000000000
           C         -2.959284958092    -0.711587818319     0.512175862761    12.000000000000
           H         -1.889550958092     1.165395181681     0.581985862761     1.007825032070
           H         -1.289130958092    -0.033155818319     1.705060862761     1.007825032070
           H         -3.358343958092    -0.562808818319    -0.484707137239     1.007825032070
           H         -3.714949958092    -0.415169818319     1.232423862761     1.007825032070
           H         -2.754757958092    -1.767949818319     0.644553862761     1.007825032070

  Charge       = 0
  Multiplicity = 1
  Basis Set: 6-31G*
  Basis Set:

    Orbital Energies (a.u.)
    -----------------------

    Doubly Occupied:

       1A    -20.590193     2A    -20.548994     3A    -11.371942
       4A    -11.291131     5A    -11.237804     6A    -11.224419
       7A    -11.215566     8A     -1.464296     9A     -1.363209
      10A     -1.068345    11A     -1.034386    12A     -0.908417
      13A     -0.855024    14A     -0.772936    15A     -0.699612
      16A     -0.683957    17A     -0.661433    18A     -0.631274
      19A     -0.596915    20A     -0.563687    21A     -0.558109
      22A     -0.526226    23A     -0.521187    24A     -0.518748
      25A     -0.503862    26A     -0.491661    27A     -0.450746
      28A     -0.433030

  @DF-RHF Final Energy:  -344.90049333673977

   => Energetics <=

    Nuclear Repulsion Energy =            314.7639692267156875
    One-Electron Energy =               -1093.7545376222356026
    Two-Electron Energy =                 434.0900750587800871
    DFT Exchange-Correlation Energy =       0.0000000000000000
    Empirical Dispersion Energy =           0.0000000000000000
    PCM Polarization Energy =               0.0000000000000000
    EFP Energy =                            0.0000000000000000
    Total Energy =                       -344.9004933367397712

  Mulliken Charges: (a.u.)
   Center  Symbol    Alpha    Beta     Spin     Total
       1     O     4.27392  4.27392  0.00000 -0.54785
       2     C     2.60633  2.60633  0.00000  0.78734
       3     C     3.20680  3.20680  0.00000 -0.41360
       4     O     4.31635  4.31635  0.00000 -0.63270
       5     C     3.23969  3.23969  0.00000 -0.47938
       6     H     0.39935  0.39935  0.00000  0.20129
       7     H     0.40492  0.40492  0.00000  0.19015
       8     H     0.40921  0.40921  0.00000  0.18158
       9     H     0.41859  0.41859  0.00000  0.16282
      10     H     0.41103  0.41103  0.00000  0.17795
      11     C     3.00493  3.00493  0.00000 -0.00986
      12     C     3.24822  3.24822  0.00000 -0.49645
      13     H     0.40388  0.40388  0.00000  0.19223
      14     H     0.41982  0.41982  0.00000  0.16036
      15     H     0.40819  0.40819  0.00000  0.18361
      16     H     0.41670  0.41670  0.00000  0.16661
      17     H     0.41206  0.41206  0.00000  0.17589

   Total alpha = 28.00000, Total beta = 28.00000, Total charge =  0.00000
