  ==> Input File <==

--------------------------------------------------------------------------
set {
	reference rhf
	basis 6-31G*
}

set_num_threads( 1 )
memory 2 gb

molecule MOL {
0 1

H	 -0.000158	 1.970498	 0.756846
O	 -0.000074	 1.880206	 -0.189275
C	 -0.000015	 0.544847	 -0.545111
C	 -1.278788	 -0.123820	 -0.051541
C	 1.278802	 -0.123718	 -0.051505
H	 -0.000001	 0.490777	 -1.623619
F	 -2.091852	 0.786104	 0.440914
F	 -1.913191	 -0.758957	 -1.014085
F	 -1.013987	 -0.992328	 0.911357
F	 2.323327	 0.466644	 -0.591854
F	 1.326242	 -1.401483	 -0.363667
F	 1.388946	 -0.015632	 1.262939

	symmetry c1
}
set optking {
	frozen_dihedral = ("
		6 3 2 1
	")
}

ee = energy('scf')
oeprop('DIPOLE', 'QUADRUPOLE', 'MULLIKEN_CHARGES')
f=open( 'psi4out.xyz', 'w' )
f.write( "12  " )
f.write( str(ee) + "\n" )
f.write( MOL.save_string_xyz() )
f.close()
--------------------------------------------------------------------------

    Molecular point group: c1

    Geometry (in Angstrom), charge = 0, multiplicity = 1:

       Center              X                  Y                   Z               Mass
    ------------   -----------------  -----------------  -----------------  -----------------
           H         -0.002353392016     1.972119134194     0.753354543523     1.007825032070
           O         -0.002269392016     1.881827134194    -0.192766456477    15.994914619560
           C         -0.002210392016     0.546468134194    -0.548602456477    12.000000000000
           C         -1.280983392016    -0.122198865806    -0.055032456477    12.000000000000
           C          1.276606607984    -0.122096865806    -0.054996456477    12.000000000000
           H         -0.002196392016     0.492398134194    -1.627110456477     1.007825032070
           F         -2.094047392016     0.787725134194     0.437422543523    18.998403224000
           F         -1.915386392016    -0.757335865806    -1.017576456477    18.998403224000
           F         -1.016182392016    -0.990706865806     0.907865543523    18.998403224000
           F          2.321131607984     0.468265134194    -0.595345456477    18.998403224000
           F          1.324046607984    -1.399861865806    -0.367158456477    18.998403224000
           F          1.386750607984    -0.014010865806     1.259447543523    18.998403224000

  Charge       = 0
  Multiplicity = 1
  Basis Set: 6-31G*
  Basis Set:

    Orbital Energies (a.u.)
    -----------------------

    Doubly Occupied:

       1A    -26.361955     2A    -26.361953     3A    -26.361089
       4A    -26.359634     5A    -26.359005     6A    -26.357609
       7A    -20.613691     8A    -11.525652     9A    -11.525336
      10A    -11.347251    11A     -1.764818    12A     -1.758115
      13A     -1.659776    14A     -1.659222    15A     -1.658188
      16A     -1.653701    17A     -1.433228    18A     -1.101338
      19A     -0.997105    20A     -0.936417    21A     -0.866635
      22A     -0.860894    23A     -0.850466    24A     -0.845857
      25A     -0.835042    26A     -0.811302    27A     -0.732847
      28A     -0.731088    29A     -0.727954    30A     -0.723282
      31A     -0.687796    32A     -0.684858    33A     -0.682848
      34A     -0.678123    35A     -0.667096    36A     -0.662161
      37A     -0.656006    38A     -0.650147    39A     -0.614643
      40A     -0.547954    41A     -0.506583

  @DF-RHF Final Energy:  -786.27055357652989

   => Energetics <=

    Nuclear Repulsion Energy =            671.5923100428954058
    One-Electron Energy =               -2430.0881724880800903
    Two-Electron Energy =                 972.2253088686547926
    DFT Exchange-Correlation Energy =       0.0000000000000000
    Empirical Dispersion Energy =           0.0000000000000000
    PCM Polarization Energy =               0.0000000000000000
    EFP Energy =                            0.0000000000000000
    Total Energy =                       -786.2705535765298919

  Mulliken Charges: (a.u.)
   Center  Symbol    Alpha    Beta     Spin     Total
       1     H     0.26771  0.26771  0.00000  0.46458
       2     O     4.35915  4.35915  0.00000 -0.71830
       3     C     3.07198  3.07198  0.00000 -0.14397
       4     C     2.43063  2.43063  0.00000  1.13874
       5     C     2.43522  2.43522  0.00000  1.12956
       6     H     0.37191  0.37191  0.00000  0.25619
       7     F     4.67504  4.67504  0.00000 -0.35008
       8     F     4.67529  4.67529  0.00000 -0.35057
       9     F     4.67921  4.67921  0.00000 -0.35841
      10     F     4.67496  4.67496  0.00000 -0.34993
      11     F     4.67591  4.67591  0.00000 -0.35182
      12     F     4.68299  4.68299  0.00000 -0.36599

   Total alpha = 41.00000, Total beta = 41.00000, Total charge = -0.00000
