                              Psi4 1.0.54 Driver

  ==> Input File <==

--------------------------------------------------------------------------
set {
	reference rhf
	basis cc-pvtz
}

set_num_threads( 4 )
memory 2 gb

molecule MOL {
0 1

H	 -3.162190	 0.493205	 -0.000107
C	 -2.363908	 -0.234727	 0.000005
O	 -1.158738	 0.454634	 -0.000087
H	 -2.464314	 -0.863616	 -0.882153
H	 -2.464327	 -0.863359	 0.882345
C	 -0.069092	 -0.288984	 -0.447323
C	 1.176774	 0.572324	 -0.398754
H	 -0.246167	 -0.636477	 -1.465424
H	 0.061155	 -1.173624	 0.176449
C	 2.418719	 -0.172761	 -0.874961
H	 1.012055	 1.452783	 -1.009970
H	 1.316955	 0.919856	 0.618852
H	 2.309190	 -0.508751	 -1.900729
H	 3.292826	 0.465156	 -0.830027
H	 2.616299	 -1.045057	 -0.260851

	symmetry c1
}
set optking {
	frozen_dihedral = ("
		6 3 2 4
	")
}

ee,wfn = optimize('scf', return_wfn=True)
oeprop( wfn, 'DIPOLE', 'QUADRUPOLE', 'MULLIKEN_CHARGES')
f=open( 'psi4out.xyz', 'w' )
f.write( "15  " )
f.write( str(ee) + "\n" )
f.write( MOL.save_string_xyz() )
f.close()
--------------------------------------------------------------------------

    Molecular point group: c1
  Charge       = 0
  Multiplicity = 1
  Basis Set: CC-PVTZ
  Basis Set:
  @DF-RHF Final Energy:  -232.22722755170489
    Total Energy =                       -232.2272275517049138
    Molecular point group: c1
  Basis Set: CC-PVTZ
  Basis Set:
  Basis Set: CC-PVTZ
  Basis Set:
  @DF-RHF Final Energy:  -232.22727122707406
    Total Energy =                       -232.2272712270743114
  Basis Set: CC-PVTZ
  Basis Set:
  Basis Set: CC-PVTZ
  Basis Set:
  @DF-RHF Final Energy:  -232.22728322358711
    Total Energy =                       -232.2272832235870510
  Basis Set: CC-PVTZ
  Basis Set:
  Charge       = 0
  Multiplicity = 1
  Basis Set: CC-PVTZ
  Basis Set:

    Orbital Energies (a.u.)
    -----------------------

    Doubly Occupied:

       1A    -20.546667     2A    -11.264626     3A    -11.261708
       4A    -11.212677     5A    -11.210703     6A     -1.380643
       7A     -1.058373     8A     -0.956127     9A     -0.877460
      10A     -0.809566    11A     -0.675939    12A     -0.655667
      13A     -0.632497    14A     -0.608047    15A     -0.565196
      16A     -0.541641    17A     -0.503537    18A     -0.490856
      19A     -0.478523    20A     -0.462822    21A     -0.414975

  @DF-RHF Final Energy:  -232.22728332755176

   => Energetics <=

    Nuclear Repulsion Energy =            189.9230031415861788
    One-Electron Energy =                -691.0840732289831294
    Two-Electron Energy =                 268.9337867598451339
    DFT Exchange-Correlation Energy =       0.0000000000000000
    Empirical Dispersion Energy =           0.0000000000000000
    PCM Polarization Energy =               0.0000000000000000
    EFP Energy =                            0.0000000000000000
    Total Energy =                       -232.2272833275518451
    Molecular point group: c1
  Basis Set: CC-PVTZ
  Basis Set:

  -Total Gradient:
     Atom            X                  Y                   Z
    ------   -----------------  -----------------  -----------------
       1       -0.000005518041     0.000002910942    -0.000002732514
       2       -0.001506226832     0.002670320442    -0.002376835783
       3        0.000730573905    -0.001385555198     0.003005776015
       4        0.001068369477    -0.001864792387     0.001244118080
       5        0.000005581713    -0.000002624050    -0.000001827080
       6       -0.000314206291     0.000583347044    -0.001853067260
       7        0.000001593724    -0.000010692138    -0.000008779615
       8       -0.000000128179     0.000006503795     0.000009500143
       9       -0.000003786999     0.000000885246    -0.000004077607
      10        0.000019986888     0.000008533312    -0.000003809192
      11        0.000003508429     0.000000408746     0.000001038939
      12       -0.000008771520    -0.000006933762    -0.000004814385
      13        0.000001350743    -0.000000802208     0.000000197765
      14        0.000010168038    -0.000004430767    -0.000004084113
      15       -0.000002495053     0.000002920986    -0.000000603393

  **** Optimization is complete! (in 4 steps) ****
    Final optimized geometry and variables:
    Molecular point group: c1

    Geometry (in Angstrom), charge = 0, multiplicity = 1:

    H           -3.138888375324     0.456501944265     0.333162682416
    C           -2.341540299304    -0.272676324810     0.328761879864
    O           -1.128808361723     0.406128394294     0.324269855030
    H           -2.446096243892    -0.912873854868    -0.543744493392
    H           -2.437218496605    -0.900724126832     1.212239590667
    C           -0.037506316429    -0.344963101118    -0.106628571048
    C            1.211926947563     0.510322086523    -0.043803188067
    H           -0.204594493807    -0.692234459671    -1.125996205325
    H            0.083192779107    -1.229782218387     0.519386498105
    C            2.454657365306    -0.238981930915    -0.511637127557
    H            1.056391662647     1.393498820538    -0.653660768438
    H            1.345007124013     0.854144765844     0.976030575716
    H            2.352629729879    -0.570861470573    -1.539567499567
    H            3.331504040642     0.394521945808    -0.456737683815
    H            2.642589346338    -1.114417598700     0.101118816601

  Mulliken Charges: (a.u.)
   Center  Symbol    Alpha    Beta     Spin     Total
       1     H     0.44846  0.44846  0.00000  0.10308
       2     C     3.03242  3.03242  0.00000 -0.06483
       3     O     4.17284  4.17284  0.00000 -0.34568
       4     H     0.47437  0.47437  0.00000  0.05125
       5     H     0.46771  0.46771  0.00000  0.06458
       6     C     2.95606  2.95606  0.00000  0.08789
       7     C     3.08077  3.08077  0.00000 -0.16154
       8     H     0.47447  0.47447  0.00000  0.05105
       9     H     0.47695  0.47695  0.00000  0.04611
      10     C     3.15580  3.15580  0.00000 -0.31160
      11     H     0.45118  0.45118  0.00000  0.09765
      12     H     0.45100  0.45100  0.00000  0.09801
      13     H     0.45591  0.45591  0.00000  0.08818
      14     H     0.44625  0.44625  0.00000  0.10750
      15     H     0.45582  0.45582  0.00000  0.08836

   Total alpha = 21.00000, Total beta = 21.00000, Total charge =  0.00000

*** Psi4 exiting successfully. Buy a developer a beer!
