  ==> Input File <==

--------------------------------------------------------------------------
set {
	reference rhf
	basis 6-31G*
}

set_num_threads( 4 )
memory 2 gb

molecule MOL {
0 1

H	 -3.418149	 0.987034	 1.529755
O	 -2.558754	 1.269833	 1.251833
C	 -2.026376	 0.340750	 0.341611
C	 -0.673256	 0.843270	 -0.132153
H	 -1.910917	 -0.631921	 0.816498
H	 -2.694500	 0.213447	 -0.509305
C	 0.486613	 -0.083066	 0.235839
H	 -0.715586	 0.970948	 -1.210718
H	 -0.508072	 1.829858	 0.297090
C	 1.840406	 0.433480	 -0.254303
H	 0.300215	 -1.068318	 -0.178947
H	 0.519509	 -0.203625	 1.318070
C	 3.000220	 -0.489290	 0.118523
H	 1.809207	 0.553576	 -1.335192
H	 2.021860	 1.424500	 0.157276
H	 2.864959	 -1.479103	 -0.307933
H	 3.946603	 -0.099227	 -0.243630
H	 3.080049	 -0.602997	 1.196117

	symmetry c1
}
set optking {
	frozen_dihedral = ("
		2 3 4 8
	")
}

ee = optimize('scf')
oeprop('DIPOLE', 'QUADRUPOLE', 'MULLIKEN_CHARGES')
f=open( 'psi4out.xyz', 'w' )
f.write( "18  " )
f.write( str(ee) + "\n" )
f.write( MOL.save_string_xyz() )
f.close()
--------------------------------------------------------------------------

    Molecular point group: c1
  Charge       = 0
  Multiplicity = 1
  Basis Set: 6-31G*
  Basis Set:
  @DF-RHF Final Energy:  -271.17352512314272
    Total Energy =                       -271.1735251231424400
    Molecular point group: c1
  Basis Set: 6-31G*
  Basis Set:
  Basis Set: 6-31G*
  Basis Set:
  @DF-RHF Final Energy:  -271.17385851556753
    Total Energy =                       -271.1738585155676446
  Basis Set: 6-31G*
  Basis Set:
  Basis Set: 6-31G*
  Basis Set:
  @DF-RHF Final Energy:  -271.17394988805813
    Total Energy =                       -271.1739498880581323
  Basis Set: 6-31G*
  Basis Set:
  Basis Set: 6-31G*
  Basis Set:
  @DF-RHF Final Energy:  -271.17394710460536
    Total Energy =                       -271.1739471046051335
  Basis Set: 6-31G*
  Basis Set:
  Basis Set: 6-31G*
  Basis Set:
  @DF-RHF Final Energy:  -271.17395323379162
    Total Energy =                       -271.1739532337915080
  Basis Set: 6-31G*
  Basis Set:
  Charge       = 0
  Multiplicity = 1
  Basis Set: 6-31G*
  Basis Set:

    Orbital Energies (a.u.)
    -----------------------

    Doubly Occupied:

       1A    -20.551346     2A    -11.267525     3A    -11.214078
       4A    -11.213460     5A    -11.210729     6A    -11.207563
       7A     -1.357382     8A     -1.077676     9A     -1.008039
      10A     -0.912558    11A     -0.820452    12A     -0.790657
      13A     -0.700524    14A     -0.642823    15A     -0.627228
      16A     -0.579833    17A     -0.570897    18A     -0.560445
      19A     -0.526619    20A     -0.496893    21A     -0.489556
      22A     -0.468820    23A     -0.462526    24A     -0.452336
      25A     -0.426089

  @DF-RHF Final Energy:  -271.17395337051960

   => Energetics <=

    Nuclear Repulsion Energy =            245.8838887711802954
    One-Electron Energy =                -854.8435825689292642
    Two-Electron Energy =                 337.7857404272293707
    DFT Exchange-Correlation Energy =       0.0000000000000000
    Empirical Dispersion Energy =           0.0000000000000000
    PCM Polarization Energy =               0.0000000000000000
    EFP Energy =                            0.0000000000000000
    Total Energy =                       -271.1739533705195981
    Molecular point group: c1
  Basis Set: 6-31G*
  Basis Set:

  -Total Gradient:
     Atom            X                  Y                   Z
    ------   -----------------  -----------------  -----------------
       1        0.000004642476    -0.000002358466    -0.000004583526
       2       -0.000253073797     0.000272305177    -0.000439437432
       3        0.000274434590    -0.000184239493     0.000596765191
       4        0.000199320691    -0.000797393990    -0.000246156342
       5       -0.000003520490    -0.000000799236     0.000002367207
       6        0.000003241200     0.000000436207    -0.000001636632
       7        0.000001660293     0.000001554445     0.000004069710
       8       -0.000223500806     0.000709576511     0.000091378306
       9        0.000004085999    -0.000000272427    -0.000000596187
      10       -0.000003424411    -0.000001803458    -0.000006483310
      11        0.000005189480     0.000007953522    -0.000001481628
      12       -0.000003408426    -0.000001329408     0.000002029423
      13       -0.000000397773    -0.000002518304     0.000003100356
      14       -0.000002443216     0.000001401853    -0.000000705329
      15       -0.000002714539    -0.000001800990     0.000001797846
      16        0.000000954760    -0.000000790913    -0.000000970740
      17       -0.000001133329     0.000001359645     0.000000515870
      18        0.000000087308    -0.000001280674     0.000000027216

  **** Optimization is complete! (in 6 steps) ****
    Final optimized geometry and variables:
    Molecular point group: c1

    Geometry (in Angstrom), charge = 0, multiplicity = 1:

    H           -3.345409423950     0.589863959919     1.293224628400
    O           -2.506152127591     0.887153287674     0.971138049276
    C           -1.994192901226    -0.053614846910     0.058256373756
    C           -0.629015028466     0.438259892728    -0.440712165947
    H           -1.893715534743    -1.024665978810     0.539519747225
    H           -2.683691146406    -0.177806245917    -0.773722950269
    C            0.533134707276    -0.482365922563    -0.063268154483
    H           -0.652829281822     0.570107935149    -1.519174338193
    H           -0.467976996799     1.422955895402    -0.015175526744
    C            1.890508521781     0.038597307522    -0.536384136008
    H            0.364113938834    -1.473383718133    -0.482657595920
    H            0.550489491658    -0.606741180734     1.017982148327
    C            3.049347881663    -0.882708149020    -0.157033667023
    H            1.870544520727     0.167177533445    -1.616684291997
    H            2.061676850693     1.026710894199    -0.115040987276
    H            2.924440240827    -1.870164518225    -0.592653911719
    H            3.997936281541    -0.485713677585    -0.505119554015
    H            3.116993871920    -1.003878447398     0.920402712838

  Mulliken Charges: (a.u.)
   Center  Symbol    Alpha    Beta     Spin     Total
       1     H     0.28208  0.28208  0.00000  0.43583
       2     O     4.37118  4.37118  0.00000 -0.74236
       3     C     2.99605  2.99605  0.00000  0.00789
       4     C     3.16582  3.16582  0.00000 -0.33163
       5     H     0.42928  0.42928  0.00000  0.14145
       6     H     0.43018  0.43018  0.00000  0.13963
       7     C     3.15734  3.15734  0.00000 -0.31469
       8     H     0.42083  0.42083  0.00000  0.15834
       9     H     0.40310  0.40310  0.00000  0.19381
      10     C     3.15227  3.15227  0.00000 -0.30453
      11     H     0.42568  0.42568  0.00000  0.14863
      12     H     0.41947  0.41947  0.00000  0.16105
      13     C     3.23928  3.23928  0.00000 -0.47857
      14     H     0.42340  0.42340  0.00000  0.15320
      15     H     0.42102  0.42102  0.00000  0.15795
      16     H     0.42243  0.42243  0.00000  0.15515
      17     H     0.41927  0.41927  0.00000  0.16146
      18     H     0.42131  0.42131  0.00000  0.15738

   Total alpha = 25.00000, Total beta = 25.00000, Total charge =  0.00000
