  ==> Input File <==

--------------------------------------------------------------------------
set {
	reference rhf
	basis 6-31G*
}

set_num_threads( 4 )
memory 2 gb

molecule MOL {
0 1

H	 -3.161837	 0.500524	 -0.000234
C	 -2.367097	 -0.232926	 -0.000000
O	 -1.158440	 0.455814	 -0.000122
H	 -2.468853	 -0.861886	 -0.882833
H	 -2.468942	 -0.861421	 0.883154
C	 -1.281072	 1.830684	 -0.206441
C	 0.103135	 2.455256	 -0.183159
H	 -1.908745	 2.272111	 0.568845
H	 -1.767981	 2.024758	 -1.163083
C	 0.065867	 3.967109	 -0.401776
H	 0.568348	 2.225713	 0.770544
H	 0.708157	 1.980172	 -0.949281
H	 -0.515382	 4.464974	 0.369395
H	 1.066273	 4.386147	 -0.380800
H	 -0.375286	 4.217795	 -1.362476

	symmetry c1
}
set optking {
	frozen_dihedral = ("
		6 3 2 4
	")
}

ee = optimize('scf')
oeprop('DIPOLE', 'QUADRUPOLE', 'MULLIKEN_CHARGES')
f=open( 'psi4out.xyz', 'w' )
f.write( "15  " )
f.write( str(ee) + "\n" )
f.write( MOL.save_string_xyz() )
f.close()
--------------------------------------------------------------------------

    Molecular point group: c1
  Charge       = 0
  Multiplicity = 1
  Basis Set: 6-31G*
  Basis Set:
  @DF-RHF Final Energy:  -232.13448989471829
    Total Energy =                       -232.1344898947181719
    Molecular point group: c1
  Basis Set: 6-31G*
  Basis Set:
  Basis Set: 6-31G*
  Basis Set:
  @DF-RHF Final Energy:  -232.13546069025284
    Total Energy =                       -232.1354606902528985
  Basis Set: 6-31G*
  Basis Set:
  Basis Set: 6-31G*
  Basis Set:
  @DF-RHF Final Energy:  -232.13579450952338
    Total Energy =                       -232.1357945095233504
  Basis Set: 6-31G*
  Basis Set:
  Charge       = 0
  Multiplicity = 1
  Basis Set: 6-31G*
  Basis Set:

    Orbital Energies (a.u.)
    -----------------------

    Doubly Occupied:

       1A    -20.549636     2A    -11.266706     3A    -11.263411
       4A    -11.213699     5A    -11.212648     6A     -1.373264
       7A     -1.056857     8A     -0.955353     9A     -0.877250
      10A     -0.808712    11A     -0.670982    12A     -0.651779
      13A     -0.629733    14A     -0.607268    15A     -0.564135
      16A     -0.545513    17A     -0.501949    18A     -0.488586
      19A     -0.478778    20A     -0.460373    21A     -0.408008

  @DF-RHF Final Energy:  -232.13579728773053

   => Energetics <=

    Nuclear Repulsion Energy =            189.4066275873673533
    One-Electron Energy =                -689.9155682114339925
    Two-Electron Energy =                 268.3731433363362271
    DFT Exchange-Correlation Energy =       0.0000000000000000
    Empirical Dispersion Energy =           0.0000000000000000
    PCM Polarization Energy =               0.0000000000000000
    EFP Energy =                            0.0000000000000000
    Total Energy =                       -232.1357972877304405
    Molecular point group: c1
  Basis Set: 6-31G*
  Basis Set:

  -Total Gradient:
     Atom            X                  Y                   Z
    ------   -----------------  -----------------  -----------------
       1       -0.000061832661     0.000004166201    -0.000006988632
       2       -0.000948151209     0.001829940497    -0.000360620887
       3        0.000255383299    -0.000769154850    -0.001765901959
       4        0.000855352431    -0.001204117486     0.000823120637
       5        0.000011859303    -0.000032753791    -0.000010042426
       6       -0.000125907016     0.000206482874     0.001292495101
       7        0.000005656521    -0.000032038547     0.000009702530
       8       -0.000003007154    -0.000026746934     0.000000604328
       9        0.000006243011    -0.000013094384     0.000019975644
      10        0.000006473462     0.000022170005    -0.000004235084
      11       -0.000000688324    -0.000000461115    -0.000002872302
      12       -0.000003521738     0.000002155235     0.000005320280
      13        0.000002760488     0.000000600660    -0.000000121204
      14        0.000000050998     0.000011006313    -0.000002705570
      15       -0.000000671413     0.000001845323     0.000002269543

  **** Optimization is complete! (in 4 steps) ****
    Final optimized geometry and variables:
    Molecular point group: c1

    Geometry (in Angstrom), charge = 0, multiplicity = 1:

    H           -2.287488162662    -1.266527762091     0.194303084722
    C           -1.421698146235    -1.921077581887     0.161253398141
    O           -0.221933018111    -1.206212188461     0.155875961532
    H           -1.489966601141    -2.548116946377    -0.722671922997
    H           -1.444708496710    -2.562863794073     1.034799944798
    C           -0.331007147869     0.170227742187    -0.056742109383
    C            1.060781343328     0.776830714770    -0.023613144317
    H           -0.957154894452     0.621246019621     0.713143473766
    H           -0.805419725884     0.370506721024    -1.017849009277
    C            1.044518900540     2.289131601455    -0.242734350980
    H            1.515872408387     0.540958523906     0.933439261423
    H            1.665178578000     0.293836833012    -0.785217370657
    H            0.464207165541     2.794609522505     0.524209643665
    H            2.049979474106     2.695534861058    -0.214523597277
    H            0.613450643487     2.545459821129    -1.206542147996

  Mulliken Charges: (a.u.)
   Center  Symbol    Alpha    Beta     Spin     Total
       1     H     0.42987  0.42987  0.00000  0.14025
       2     C     3.07614  3.07614  0.00000 -0.15229
       3     O     4.31043  4.31043  0.00000 -0.62086
       4     H     0.42307  0.42307  0.00000  0.15386
       5     H     0.41864  0.41864  0.00000  0.16272
       6     C     2.98136  2.98136  0.00000  0.03727
       7     C     3.15995  3.15995  0.00000 -0.31990
       8     H     0.43303  0.43303  0.00000  0.13394
       9     H     0.43341  0.43341  0.00000  0.13318
      10     C     3.24794  3.24794  0.00000 -0.49587
      11     H     0.41439  0.41439  0.00000  0.17122
      12     H     0.41436  0.41436  0.00000  0.17127
      13     H     0.42100  0.42100  0.00000  0.15799
      14     H     0.41545  0.41545  0.00000  0.16910
      15     H     0.42095  0.42095  0.00000  0.15811

   Total alpha = 21.00000, Total beta = 21.00000, Total charge = -0.00000
