  ==> Input File <==

--------------------------------------------------------------------------
set {
	reference rhf
	basis cc-pvtz
}

set_num_threads( 4 )
memory 2 gb

molecule MOL {
0 1

H	 -0.747652	 -1.289855	 -0.757334
N	 -0.625934	 -0.663929	 -0.000707
C	 -1.622780	 -0.647889	 1.043868
C	 0.468494	 0.129045	 -0.002160
H	 -2.596105	 -0.384406	 0.647379
H	 -1.334753	 0.086661	 1.776378
H	 -1.694779	 -1.614980	 1.527180
C	 1.785715	 -0.615093	 0.000603
O	 0.413285	 1.323206	 0.000532
H	 1.866994	 -1.243310	 -0.878792
H	 2.591506	 0.100263	 0.006422
H	 1.860358	 -1.250360	 0.875522

	symmetry c1
}
set optking {
	frozen_dihedral = ("
		3 2 4 9
	")
}

ee = optimize('scf')
oeprop('DIPOLE', 'QUADRUPOLE', 'MULLIKEN_CHARGES')
f=open( 'psi4out.xyz', 'w' )
f.write( "12  " )
f.write( str(ee) + "\n" )
f.write( MOL.save_string_xyz() )
f.close()
--------------------------------------------------------------------------

    Molecular point group: c1
  Charge       = 0
  Multiplicity = 1
  Basis Set: CC-PVTZ
  Basis Set:
  @DF-RHF Final Energy:  -247.07068268013145
    Total Energy =                       -247.0706826801315401
    Molecular point group: c1
  Basis Set: CC-PVTZ
  Basis Set:
  Basis Set: CC-PVTZ
  Basis Set:
  @DF-RHF Final Energy:  -247.07579799641653
    Total Energy =                       -247.0757979964163269
  Basis Set: CC-PVTZ
  Basis Set:
  Basis Set: CC-PVTZ
  Basis Set:
  @DF-RHF Final Energy:  -247.08193206610306
    Total Energy =                       -247.0819320661030360
  Basis Set: CC-PVTZ
  Basis Set:
  Basis Set: CC-PVTZ
  Basis Set:
  @DF-RHF Final Energy:  -247.08611249547334
    Total Energy =                       -247.0861124954733441
  Basis Set: CC-PVTZ
  Basis Set:
  @DF-RHF Final Energy:  -247.08706452088404
    Total Energy =                       -247.0870645208839846
  @DF-RHF Final Energy:  -247.08754975555127
    Total Energy =                       -247.0875497555512652
  Basis Set: CC-PVTZ
  Basis Set:
  @DF-RHF Final Energy:  -247.08775666008395
    Total Energy =                       -247.0877566600838691
  Basis Set: CC-PVTZ
  Basis Set:
  Basis Set: CC-PVTZ
  Basis Set:
  @DF-RHF Final Energy:  -247.08785962435380
    Total Energy =                       -247.0878596243538823
  Basis Set: CC-PVTZ
  Basis Set:
  Basis Set: CC-PVTZ
  Basis Set:
  @DF-RHF Final Energy:  -247.08786838015939
    Total Energy =                       -247.0878683801595912
  Basis Set: CC-PVTZ
  Basis Set:
  Charge       = 0
  Multiplicity = 1
  Basis Set: CC-PVTZ
  Basis Set:

    Orbital Energies (a.u.)
    -----------------------

    Doubly Occupied:

       1A    -20.524709     2A    -15.568716     3A    -11.342006
       4A    -11.257322     5A    -11.233583     6A     -1.401446
       7A     -1.227719     8A     -1.016416     9A     -0.931062
      10A     -0.773812    11A     -0.692505    12A     -0.653040
      13A     -0.634506    14A     -0.596495    15A     -0.586008
      16A     -0.560004    17A     -0.547269    18A     -0.509199
      19A     -0.428632    20A     -0.397017

  @DF-RHF Final Energy:  -247.08786880466931

   => Energetics <=

    Nuclear Repulsion Energy =            181.1685002607380284
    One-Electron Energy =                -694.7498035664702911
    Two-Electron Energy =                 266.4934345010631773
    DFT Exchange-Correlation Energy =       0.0000000000000000
    Empirical Dispersion Energy =           0.0000000000000000
    PCM Polarization Energy =               0.0000000000000000
    EFP Energy =                            0.0000000000000000
    Total Energy =                       -247.0878688046690854
    Molecular point group: c1
  Basis Set: CC-PVTZ
  Basis Set:

  -Total Gradient:
     Atom            X                  Y                   Z
    ------   -----------------  -----------------  -----------------
       1       -0.000032543281     0.000006744306    -0.000028053995
       2       -0.005283082630     0.014907646757    -0.009931322713
       3        0.003909331500    -0.008935737054     0.002934194594
       4        0.000337038240    -0.009833976372     0.019499533780
       5        0.000003279345     0.000002824126    -0.000013239837
       6        0.000010580526    -0.000001391366    -0.000017622293
       7       -0.000011741965     0.000005106865     0.000006515730
       8       -0.000001661705     0.000030416487     0.000014815480
       9        0.001082901801     0.003834228669    -0.012462384214
      10       -0.000000672227    -0.000015842420     0.000003653482
      11       -0.000007324756     0.000002173702     0.000001772560
      12       -0.000006104848    -0.000002193702    -0.000007862573

  **** Optimization is complete! (in 10 steps) ****
    Final optimized geometry and variables:
    Molecular point group: c1

    Geometry (in Angstrom), charge = 0, multiplicity = 1:

    H           -0.624388267214    -1.315101274848    -0.800188791877
    N           -0.777211921057    -0.410597898323    -0.412485314237
    C           -1.766591280735    -0.491859525674     0.656552687758
    C            0.428590989311     0.213138495458    -0.117889795381
    H           -2.688307324270    -0.888356902883     0.254771151755
    H           -1.959974932948     0.497356594632     1.040866735808
    H           -1.440734143466    -1.127213768844     1.475294728598
    C            1.669937128315    -0.596020651143    -0.413120764355
    O            0.482225953230     1.345646329477     0.234373424503
    H            1.622327968840    -1.006757623369    -1.415501972253
    H            2.541917724518     0.030642768028    -0.319500810258
    H            1.742422767238    -1.426563191819     0.280989456356

  Mulliken Charges: (a.u.)
   Center  Symbol    Alpha    Beta     Spin     Total
       1     H     0.43352  0.43352  0.00000  0.13296
       2     N     3.61623  3.61623  0.00000 -0.23246
       3     C     3.08650  3.08650  0.00000 -0.17301
       4     C     2.83395  2.83395  0.00000  0.33209
       5     H     0.44977  0.44977  0.00000  0.10045
       6     H     0.43721  0.43721  0.00000  0.12559
       7     H     0.46545  0.46545  0.00000  0.06909
       8     C     3.15329  3.15329  0.00000 -0.30657
       9     O     4.18894  4.18894  0.00000 -0.37788
      10     H     0.45069  0.45069  0.00000  0.09861
      11     H     0.43500  0.43500  0.00000  0.13000
      12     H     0.44944  0.44944  0.00000  0.10112

   Total alpha = 20.00000, Total beta = 20.00000, Total charge = -0.00000
