  ==> Input File <==

--------------------------------------------------------------------------
set {
	reference rhf
	basis cc-pvtz
}

set_num_threads( 4 )
memory 2 gb

molecule MOL {
0 1

H	 2.190573	 -0.629143	 -0.208718
O	 1.355408	 -0.529451	 0.208662
C	 0.700177	 0.619554	 -0.266242
C	 -0.713111	 0.588314	 0.266177
H	 0.678680	 0.627133	 -1.351786
H	 1.199747	 1.521489	 0.077736
O	 -1.421673	 -0.521378	 -0.196983
H	 -1.244794	 1.469161	 -0.069059
H	 -0.685100	 0.604721	 1.352683
H	 -1.297279	 -1.230361	 0.409559

	symmetry c1
}
set optking {
	frozen_dihedral = ("
		10 7 4 3
	")
}

ee = optimize('scf')
oeprop('DIPOLE', 'QUADRUPOLE', 'MULLIKEN_CHARGES')
f=open( 'psi4out.xyz', 'w' )
f.write( "10  " )
f.write( str(ee) + "\n" )
f.write( MOL.save_string_xyz() )
f.close()
--------------------------------------------------------------------------

    Molecular point group: c1
  Charge       = 0
  Multiplicity = 1
  Basis Set: CC-PVTZ
  Basis Set:
  @DF-RHF Final Energy:  -229.02641224498760
    Total Energy =                       -229.0264122449877391
    Molecular point group: c1
  Basis Set: CC-PVTZ
  Basis Set:
  Basis Set: CC-PVTZ
  Basis Set:
  @DF-RHF Final Energy:  -229.02677003530860
    Total Energy =                       -229.0267700353085729
  Basis Set: CC-PVTZ
  Basis Set:
  Basis Set: CC-PVTZ
  Basis Set:
  @DF-RHF Final Energy:  -229.02681959229866
    Total Energy =                       -229.0268195922986934
  Basis Set: CC-PVTZ
  Basis Set:
  Basis Set: CC-PVTZ
  Basis Set:
  @DF-RHF Final Energy:  -229.02682288408073
    Total Energy =                       -229.0268228840807296
  Basis Set: CC-PVTZ
  Basis Set:
  Charge       = 0
  Multiplicity = 1
  Basis Set: CC-PVTZ
  Basis Set:

    Orbital Energies (a.u.)
    -----------------------

    Doubly Occupied:

       1A    -20.552846     2A    -20.544572     3A    -11.268773
       4A    -11.267480     5A     -1.378571     6A     -1.356011
       7A     -1.003294     8A     -0.839528     9A     -0.726353
      10A     -0.693966    11A     -0.635278    12A     -0.605327
      13A     -0.580491    14A     -0.524161    15A     -0.494142
      16A     -0.451143    17A     -0.436424

  @DF-RHF Final Energy:  -229.02682323340147

   => Energetics <=

    Nuclear Repulsion Energy =            133.7963171310784958
    One-Electron Energy =                -578.9295561824724246
    Two-Electron Energy =                 216.1064158179923993
    DFT Exchange-Correlation Energy =       0.0000000000000000
    Empirical Dispersion Energy =           0.0000000000000000
    PCM Polarization Energy =               0.0000000000000000
    EFP Energy =                            0.0000000000000000
    Total Energy =                       -229.0268232334015579
    Molecular point group: c1
  Basis Set: CC-PVTZ
  Basis Set:

  -Total Gradient:
     Atom            X                  Y                   Z
    ------   -----------------  -----------------  -----------------
       1        0.000020531912     0.000003143356     0.000004582582
       2       -0.000020788699    -0.000000745339    -0.000009089866
       3       -0.000624229160     0.001154821866    -0.001505231950
       4        0.000285400677    -0.001365214879     0.002510405210
       5       -0.000008154757    -0.000000361239    -0.000018598682
       6        0.000005402571    -0.000020104122     0.000005657918
       7        0.002828102229    -0.000693660509    -0.002713001530
       8        0.000012144162     0.000001505310    -0.000000686729
       9        0.000005076631     0.000003009958     0.000012037802
      10       -0.002503485568     0.000917605598     0.001713925245

  **** Optimization is complete! (in 5 steps) ****
    Final optimized geometry and variables:
    Molecular point group: c1

    Geometry (in Angstrom), charge = 0, multiplicity = 1:

    H            2.217175978451    -0.617131185125    -0.203942169631
    O            1.398254397122    -0.504927735093     0.241457824597
    C            0.699701544230     0.591784626552    -0.285795508375
    C           -0.704766831255     0.569086945007     0.267615450371
    H            0.652942115281     0.538384888638    -1.369033114328
    H            1.181176196735     1.526584279408    -0.006194523249
    O           -1.446747814646    -0.506143107240    -0.232138226963
    H           -1.213440853797     1.477567045767    -0.031909457658
    H           -0.665647204564     0.551456328831     1.352164259122
    H           -1.342269000366    -1.252732299988     0.327473064344

  Mulliken Charges: (a.u.)
   Center  Symbol    Alpha    Beta     Spin     Total
       1     H     0.39264  0.39264  0.00000  0.21471
       2     O     4.20381  4.20381  0.00000 -0.40761
       3     C     2.96459  2.96459  0.00000  0.07081
       4     C     2.97132  2.97132  0.00000  0.05737
       5     H     0.47143  0.47143  0.00000  0.05714
       6     H     0.47623  0.47623  0.00000  0.04754
       7     O     4.20653  4.20653  0.00000 -0.41306
       8     H     0.45913  0.45913  0.00000  0.08174
       9     H     0.46661  0.46661  0.00000  0.06679
      10     H     0.38772  0.38772  0.00000  0.22457

   Total alpha = 17.00000, Total beta = 17.00000, Total charge = -0.00000
