  ==> Input File <==

--------------------------------------------------------------------------
set {
	reference rhf
	basis 6-31G*
}

set_num_threads( 1 )
memory 2 gb

molecule MOL {
0 1

O	 -1.337384	 -0.027807	 -1.038710
C	 -1.083277	 0.139568	 0.115197
C	 0.323299	 -0.082943	 0.642902
C	 -2.144332	 0.554017	 1.110296
C	 1.355627	 -0.005344	 -0.493127
H	 0.396251	 -1.044647	 1.143147
H	 0.528637	 0.693580	 1.371677
C	 2.786168	 -0.195604	 0.007473
H	 1.132807	 -0.760304	 -1.243899
H	 1.259610	 0.958506	 -0.981915
H	 3.495561	 -0.130713	 -0.811210
H	 2.912696	 -1.165395	 0.480041
H	 3.049284	 0.565503	 0.735850
H	 -2.146169	 -0.109441	 1.970231
H	 -3.116986	 0.546661	 0.638462
H	 -1.929298	 1.554011	 1.477686

	symmetry c1
}
set optking {
	frozen_dihedral = ("
		9 5 3 2
	")
}

ee = energy('scf')
oeprop('DIPOLE', 'QUADRUPOLE', 'MULLIKEN_CHARGES')
f=open( 'psi4out.xyz', 'w' )
f.write( "16  " )
f.write( str(ee) + "\n" )
f.write( MOL.save_string_xyz() )
f.close()
--------------------------------------------------------------------------

    Molecular point group: c1

    Geometry (in Angstrom), charge = 0, multiplicity = 1:

       Center              X                  Y                   Z               Mass
    ------------   -----------------  -----------------  -----------------  -----------------
           O         -1.326748310120    -0.092728357062    -1.094433388816    15.994914619560
           C         -1.072641310120     0.074646642938     0.059473611184    12.000000000000
           C          0.333934689880    -0.147864357062     0.587178611184    12.000000000000
           C         -2.133696310120     0.489095642938     1.054572611184    12.000000000000
           C          1.366262689880    -0.070265357062    -0.548850388816    12.000000000000
           H          0.406886689880    -1.109568357062     1.087423611184     1.007825032070
           H          0.539272689880     0.628658642938     1.315953611184     1.007825032070
           C          2.796803689880    -0.260525357062    -0.048250388816    12.000000000000
           H          1.143442689880    -0.825225357062    -1.299622388816     1.007825032070
           H          1.270245689880     0.893584642938    -1.037638388816     1.007825032070
           H          3.506196689880    -0.195634357062    -0.866933388816     1.007825032070
           H          2.923331689880    -1.230316357062     0.424317611184     1.007825032070
           H          3.059919689880     0.500581642938     0.680126611184     1.007825032070
           H         -2.135533310120    -0.174362357062     1.914507611184     1.007825032070
           H         -3.106350310120     0.481739642938     0.582738611184     1.007825032070
           H         -1.918662310120     1.489089642938     1.421962611184     1.007825032070

  Charge       = 0
  Multiplicity = 1
  Basis Set: 6-31G*
  Basis Set:

    Orbital Energies (a.u.)
    -----------------------

    Doubly Occupied:

       1A    -20.550173     2A    -11.326349     3A    -11.231486
       4A    -11.229544     5A    -11.219288     6A    -11.212212
       7A     -1.396107     8A     -1.075038     9A     -1.015358
      10A     -0.946914    11A     -0.821028    12A     -0.732392
      13A     -0.655054    14A     -0.651920    15A     -0.623329
      16A     -0.598364    17A     -0.567735    18A     -0.558729
      19A     -0.548317    20A     -0.499350    21A     -0.489103
      22A     -0.478884    23A     -0.476436    24A     -0.401495

  @DF-RHF Final Energy:  -270.03091123430005

   => Energetics <=

    Nuclear Repulsion Energy =            237.2903434796294846
    One-Electron Energy =                -836.0333516796193862
    Two-Electron Energy =                 328.7120969656897955
    DFT Exchange-Correlation Energy =       0.0000000000000000
    Empirical Dispersion Energy =           0.0000000000000000
    PCM Polarization Energy =               0.0000000000000000
    EFP Energy =                            0.0000000000000000
    Total Energy =                       -270.0309112343000493

  Mulliken Charges: (a.u.)
   Center  Symbol    Alpha    Beta     Spin     Total
       1     O     4.26068  4.26068  0.00000 -0.52136
       2     C     2.73676  2.73676  0.00000  0.52648
       3     C     3.20812  3.20812  0.00000 -0.41624
       4     C     3.28682  3.28682  0.00000 -0.57365
       5     C     3.15004  3.15004  0.00000 -0.30009
       6     H     0.40420  0.40420  0.00000  0.19160
       7     H     0.41442  0.41442  0.00000  0.17117
       8     C     3.24111  3.24111  0.00000 -0.48222
       9     H     0.40651  0.40651  0.00000  0.18697
      10     H     0.41631  0.41631  0.00000  0.16737
      11     H     0.41610  0.41610  0.00000  0.16780
      12     H     0.42242  0.42242  0.00000  0.15517
      13     H     0.42344  0.42344  0.00000  0.15312
      14     H     0.40925  0.40925  0.00000  0.18150
      15     H     0.39655  0.39655  0.00000  0.20690
      16     H     0.40727  0.40727  0.00000  0.18547

   Total alpha = 24.00000, Total beta = 24.00000, Total charge =  0.00000
