  ==> Input File <==

--------------------------------------------------------------------------
set {
	reference rhf
	basis 6-31G*
}

set_num_threads( 1 )
memory 2 gb

molecule MOL {
0 1

H	 5.163236	 -0.592095	 1.006542
C	 4.554514	 -0.759372	 0.123367
C	 3.065408	 -0.661338	 0.452196
H	 4.838738	 -0.019655	 -0.619181
H	 4.807132	 -1.739600	 -0.271774
C	 2.177425	 -0.899195	 -0.771211
H	 2.853958	 0.318606	 0.867647
H	 2.818713	 -1.389992	 1.222843
C	 0.680572	 -0.825251	 -0.469171
H	 2.417590	 -0.174694	 -1.541316
H	 2.394952	 -1.882415	 -1.182310
C	 0.169600	 0.576866	 -0.172154
H	 0.114473	 -1.186185	 -1.326510
H	 0.417401	 -1.484282	 0.355205
C	 -1.181045	 0.701995	 0.511084
O	 0.793410	 1.548135	 -0.478591
C	 -2.285934	 -0.139295	 -0.145128
H	 -1.449051	 1.751551	 0.493206
H	 -1.071135	 0.403303	 1.551943
C	 -3.651768	 0.085446	 0.506485
H	 -2.346596	 0.110469	 -1.202272
H	 -2.034737	 -1.195320	 -0.088721
C	 -4.759797	 -0.746382	 -0.137905
H	 -3.908762	 1.140117	 0.445781
H	 -3.588286	 -0.154158	 1.565709
H	 -4.868882	 -0.505166	 -1.191300
H	 -4.548009	 -1.809175	 -0.062213
H	 -5.715422	 -0.564821	 0.343442

	symmetry c1
}
set optking {
	frozen_dihedral = ("
		10 6 3 2,
		12 15 17 21
	")
}

ee = energy('scf')
oeprop('DIPOLE', 'QUADRUPOLE', 'MULLIKEN_CHARGES')
f=open( 'psi4out.xyz', 'w' )
f.write( "28  " )
f.write( str(ee) + "\n" )
f.write( MOL.save_string_xyz() )
f.close()
--------------------------------------------------------------------------

    Molecular point group: c1

    Geometry (in Angstrom), charge = 0, multiplicity = 1:

       Center              X                  Y                   Z               Mass
    ------------   -----------------  -----------------  -----------------  -----------------
           H          5.204150762574    -0.477558346596     1.066447229112     1.007825032070
           C          4.595428762574    -0.644835346596     0.183272229112    12.000000000000
           C          3.106322762574    -0.546801346596     0.512101229112    12.000000000000
           H          4.879652762574     0.094881653404    -0.559275770888     1.007825032070
           H          4.848046762574    -1.625063346596    -0.211868770888     1.007825032070
           C          2.218339762574    -0.784658346596    -0.711305770888    12.000000000000
           H          2.894872762574     0.433142653404     0.927552229112     1.007825032070
           H          2.859627762574    -1.275455346596     1.282748229112     1.007825032070
           C          0.721486762574    -0.710714346596    -0.409265770888    12.000000000000
           H          2.458504762574    -0.060157346596    -1.481410770888     1.007825032070
           H          2.435866762574    -1.767878346596    -1.122404770888     1.007825032070
           C          0.210514762574     0.691402653404    -0.112248770888    12.000000000000
           H          0.155387762574    -1.071648346596    -1.266604770888     1.007825032070
           H          0.458315762574    -1.369745346596     0.415110229112     1.007825032070
           C         -1.140130237426     0.816531653404     0.570989229112    12.000000000000
           O          0.834324762574     1.662671653404    -0.418685770888    15.994914619560
           C         -2.245019237426    -0.024758346596    -0.085222770888    12.000000000000
           H         -1.408136237426     1.866087653404     0.553111229112     1.007825032070
           H         -1.030220237426     0.517839653404     1.611848229112     1.007825032070
           C         -3.610853237426     0.199982653404     0.566390229112    12.000000000000
           H         -2.305681237426     0.225005653404    -1.142366770888     1.007825032070
           H         -1.993822237426    -1.080783346596    -0.028815770888     1.007825032070
           C         -4.718882237426    -0.631845346596    -0.077999770888    12.000000000000
           H         -3.867847237426     1.254653653404     0.505686229112     1.007825032070
           H         -3.547371237426    -0.039621346596     1.625614229112     1.007825032070
           H         -4.827967237426    -0.390629346596    -1.131394770888     1.007825032070
           H         -4.507094237426    -1.694638346596    -0.002307770888     1.007825032070
           H         -5.674507237426    -0.450284346596     0.403347229112     1.007825032070

  Charge       = 0
  Multiplicity = 1
  Basis Set: 6-31G*
  Basis Set:

    Orbital Energies (a.u.)
    -----------------------

    Doubly Occupied:

       1A    -20.547835     2A    -11.322403     3A    -11.231903
       4A    -11.229956     5A    -11.229287     6A    -11.226213
       7A    -11.216575     8A    -11.216354     9A    -11.212390
      10A    -11.205751    11A     -1.393073    12A     -1.096150
      13A     -1.077113    14A     -1.022912    15A     -0.990486
      16A     -0.906463    17A     -0.874511    18A     -0.809290
      19A     -0.800324    20A     -0.722377    21A     -0.668178
      22A     -0.655184    23A     -0.628137    24A     -0.619506
      25A     -0.609454    26A     -0.587317    27A     -0.579297
      28A     -0.574754    29A     -0.542806    30A     -0.531658
      31A     -0.519847    32A     -0.510292    33A     -0.496092
      34A     -0.485645    35A     -0.479661    36A     -0.476184
      37A     -0.470674    38A     -0.465242    39A     -0.455465
      40A     -0.392324

  @DF-RHF Final Energy:  -426.16884846044934

   => Energetics <=

    Nuclear Repulsion Energy =            532.2539739076938758
    One-Electron Energy =               -1632.6875243432421030
    Two-Electron Energy =                 674.2647019751002517
    DFT Exchange-Correlation Energy =       0.0000000000000000
    Empirical Dispersion Energy =           0.0000000000000000
    PCM Polarization Energy =               0.0000000000000000
    EFP Energy =                            0.0000000000000000
    Total Energy =                       -426.1688484604478617

  Mulliken Charges: (a.u.)
   Center  Symbol    Alpha    Beta     Spin     Total
       1     H     0.41936  0.41936  0.00000  0.16127
       2     C     3.24011  3.24011  0.00000 -0.48023
       3     C     3.15646  3.15646  0.00000 -0.31293
       4     H     0.41827  0.41827  0.00000  0.16346
       5     H     0.42362  0.42362  0.00000  0.15277
       6     C     3.14893  3.14893  0.00000 -0.29785
       7     H     0.41047  0.41047  0.00000  0.17906
       8     H     0.42779  0.42779  0.00000  0.14442
       9     C     3.21358  3.21358  0.00000 -0.42717
      10     H     0.40664  0.40664  0.00000  0.18672
      11     H     0.42196  0.42196  0.00000  0.15607
      12     C     2.72865  2.72865  0.00000  0.54270
      13     H     0.40244  0.40244  0.00000  0.19512
      14     H     0.41286  0.41286  0.00000  0.17427
      15     C     3.20322  3.20322  0.00000 -0.40645
      16     O     4.26782  4.26782  0.00000 -0.53564
      17     C     3.16473  3.16473  0.00000 -0.32946
      18     H     0.39959  0.39959  0.00000  0.20082
      19     H     0.40952  0.40952  0.00000  0.18097
      20     C     3.15168  3.15168  0.00000 -0.30337
      21     H     0.41603  0.41603  0.00000  0.16795
      22     H     0.41806  0.41806  0.00000  0.16388
      23     C     3.24019  3.24019  0.00000 -0.48038
      24     H     0.41867  0.41867  0.00000  0.16267
      25     H     0.42137  0.42137  0.00000  0.15725
      26     H     0.41994  0.41994  0.00000  0.16013
      27     H     0.42119  0.42119  0.00000  0.15762
      28     H     0.41684  0.41684  0.00000  0.16632

   Total alpha = 40.00000, Total beta = 40.00000, Total charge =  0.00000
