  ==> Input File <==

--------------------------------------------------------------------------
set {
	reference rhf
	basis 6-31G*
}

set_num_threads( 4 )
memory 2 gb

molecule MOL {
0 1

O	 1.214711	 1.306902	 -0.000018
C	 1.122059	 0.121804	 -0.000188
C	 -0.170150	 -0.657997	 -0.000612
O	 2.172624	 -0.688929	 0.000216
C	 -1.412532	 0.227344	 -0.000452
H	 -0.153702	 -1.313099	 -0.867402
H	 -0.153924	 -1.313811	 0.865644
C	 -1.395424	 1.253366	 -1.134627
H	 -1.489707	 0.736413	 0.955266
H	 -2.297180	 -0.396565	 -0.081920
C	 -2.637214	 2.143813	 -1.142667
H	 -0.506668	 1.875307	 -1.048728
H	 -1.315377	 0.738092	 -2.089696
H	 -2.726772	 2.699081	 -0.213522
H	 -2.599957	 2.862022	 -1.955726
H	 -3.541187	 1.553811	 -1.262548
C	 3.452279	 -0.082609	 0.000533
H	 3.583069	 0.529321	 -0.880332
H	 4.163299	 -0.894027	 0.001117
H	 3.582335	 0.529955	 0.881077

	symmetry c1
}
set optking {
	frozen_dihedral = ("
		9 5 3 6
	")
}

ee = optimize('scf')
oeprop('DIPOLE', 'QUADRUPOLE', 'MULLIKEN_CHARGES')
f=open( 'psi4out.xyz', 'w' )
f.write( "20  " )
f.write( str(ee) + "\n" )
f.write( MOL.save_string_xyz() )
f.close()
--------------------------------------------------------------------------

    Molecular point group: c1
  Charge       = 0
  Multiplicity = 1
  Basis Set: 6-31G*
  Basis Set:
  @DF-RHF Final Energy:  -383.93550145059578
    Total Energy =                       -383.9355014505960071
    Molecular point group: c1
  Basis Set: 6-31G*
  Basis Set:
  Basis Set: 6-31G*
  Basis Set:
  @DF-RHF Final Energy:  -383.93933572972037
    Total Energy =                       -383.9393357297204830
  Basis Set: 6-31G*
  Basis Set:
  Basis Set: 6-31G*
  Basis Set:
  @DF-RHF Final Energy:  -383.93976995135489
    Total Energy =                       -383.9397699513548332
  Basis Set: 6-31G*
  Basis Set:
  Basis Set: 6-31G*
  Basis Set:
  @DF-RHF Final Energy:  -383.93837313900684
    Total Energy =                       -383.9383731390066714
  Basis Set: 6-31G*
  Basis Set:
  @DF-RHF Final Energy:  -383.94022973215101
    Total Energy =                       -383.9402297321512378
  @DF-RHF Final Energy:  -383.94032790270882
    Total Energy =                       -383.9403279027087592
  Basis Set: 6-31G*
  Basis Set:
  @DF-RHF Final Energy:  -383.94035154468548
    Total Energy =                       -383.9403515446851998
  Basis Set: 6-31G*
  Basis Set:
  Basis Set: 6-31G*
  Basis Set:
  @DF-RHF Final Energy:  -383.94035527794250
    Total Energy =                       -383.9403552779426718
  Basis Set: 6-31G*
  Basis Set:
  Basis Set: 6-31G*
  Basis Set:
  @DF-RHF Final Energy:  -383.94035745264159
    Total Energy =                       -383.9403574526412513
  Basis Set: 6-31G*
  Basis Set:
  Charge       = 0
  Multiplicity = 1
  Basis Set: 6-31G*
  Basis Set:

    Orbital Energies (a.u.)
    -----------------------

    Doubly Occupied:

       1A    -20.605222     2A    -20.545242     3A    -11.373315
       4A    -11.281457     5A    -11.235919     6A    -11.221583
       7A    -11.213459     8A    -11.207364     9A     -1.470440
      10A     -1.363183    11A     -1.086457    12A     -1.022025
      13A     -0.969353    14A     -0.884711    15A     -0.806855
      16A     -0.766131    17A     -0.700124    18A     -0.680584
      19A     -0.671850    20A     -0.633754    21A     -0.603853
      22A     -0.588197    23A     -0.581099    24A     -0.538855
      25A     -0.535544    26A     -0.517671    27A     -0.510258
      28A     -0.477617    29A     -0.471255    30A     -0.463460
      31A     -0.455291    32A     -0.434592

  @DF-RHF Final Energy:  -383.94035762401307

   => Energetics <=

    Nuclear Repulsion Energy =            389.2803375445419647
    One-Electron Energy =               -1294.6079495953238165
    Two-Electron Energy =                 521.3872544267690046
    DFT Exchange-Correlation Energy =       0.0000000000000000
    Empirical Dispersion Energy =           0.0000000000000000
    PCM Polarization Energy =               0.0000000000000000
    EFP Energy =                            0.0000000000000000
    Total Energy =                       -383.9403576240129041
    Molecular point group: c1
  Basis Set: 6-31G*
  Basis Set:

  -Total Gradient:
     Atom            X                  Y                   Z
    ------   -----------------  -----------------  -----------------
       1       -0.000004083088    -0.000000951045    -0.000003610784
       2       -0.000009904000     0.000016330192     0.000001699184
       3        0.001804081201     0.002269407012    -0.002021460594
       4       -0.000002296892    -0.000006881689    -0.000004057112
       5        0.001882903889     0.002468614909    -0.001094739792
       6       -0.001769483316    -0.002276415238     0.001832184133
       7       -0.000006695852     0.000004072661    -0.000005125496
       8       -0.000021979473    -0.000025441369    -0.000009854913
       9       -0.001907291770    -0.002460907921     0.001286171787
      10        0.000003505928    -0.000001473769     0.000005361640
      11        0.000000732687    -0.000003693415     0.000005316536
      12        0.000024896373     0.000024774755     0.000000936070
      13        0.000001692587     0.000005023470     0.000010581500
      14        0.000004600245    -0.000005554426     0.000000248836
      15        0.000004693818    -0.000002080843    -0.000001320543
      16        0.000003146362    -0.000002648542    -0.000002061361
      17       -0.000011344955    -0.000004822666     0.000000682283
      18        0.000000207099     0.000001384401    -0.000000506932
      19        0.000002449758     0.000000709072    -0.000000509639
      20        0.000000169403     0.000000554457     0.000000065193

  **** Optimization is complete! (in 10 steps) ****
    Final optimized geometry and variables:
    Molecular point group: c1

    Geometry (in Angstrom), charge = 0, multiplicity = 1:

    O            0.971667923294     0.767108365208     0.803928076741
    C            0.820520856199    -0.343506915374     0.405520132836
    C           -0.503344370523    -1.060808387237     0.304379827146
    O            1.826590097877    -1.124215478147     0.036460794223
    C           -1.727016015923    -0.145643605030     0.247089246145
    H           -0.481983738297    -1.752151875139    -0.530367509320
    H           -0.562155758764    -1.687864330072     1.192477797897
    C           -1.757326341169     0.808500438980    -0.948022234556
    H           -1.809847865459     0.404580644770     1.178851420907
    H           -2.603588613767    -0.788998327367     0.204222041716
    C           -3.043098329989     1.632792297213    -1.001532627751
    H           -0.904001866783     1.475500116255    -0.903506888151
    H           -1.660811292987     0.232690858127    -1.867126624955
    H           -3.154251834515     2.239808161717    -0.107765154965
    H           -3.043915958452     2.301295031499    -1.856734373956
    H           -3.918885360650     0.994393672873    -1.079586990342
    C            3.131840178912    -0.585583685068     0.146482452135
    H            3.232585937231     0.294123965640    -0.472587105692
    H            3.800404383116    -1.361026276621    -0.193452447861
    H            3.350333979111    -0.325317191577     1.172162360079

  Mulliken Charges: (a.u.)
   Center  Symbol    Alpha    Beta     Spin     Total
       1     O     4.28792  4.28792  0.00000 -0.57584
       2     C     2.60436  2.60436  0.00000  0.79128
       3     C     3.21098  3.21098  0.00000 -0.42196
       4     O     4.30578  4.30578  0.00000 -0.61157
       5     C     3.15083  3.15083  0.00000 -0.30166
       6     H     0.40054  0.40054  0.00000  0.19893
       7     H     0.39829  0.39829  0.00000  0.20341
       8     C     3.15969  3.15969  0.00000 -0.31938
       9     H     0.41023  0.41023  0.00000  0.17954
      10     H     0.42011  0.42011  0.00000  0.15979
      11     C     3.24035  3.24035  0.00000 -0.48069
      12     H     0.40548  0.40548  0.00000  0.18904
      13     H     0.42589  0.42589  0.00000  0.14822
      14     H     0.41905  0.41905  0.00000  0.16191
      15     H     0.41853  0.41853  0.00000  0.16293
      16     H     0.42333  0.42333  0.00000  0.15334
      17     C     3.09271  3.09271  0.00000 -0.18542
      18     H     0.40862  0.40862  0.00000  0.18277
      19     H     0.40826  0.40826  0.00000  0.18347
      20     H     0.40905  0.40905  0.00000  0.18190

   Total alpha = 32.00000, Total beta = 32.00000, Total charge = -0.00000
