  ==> Input File <==

--------------------------------------------------------------------------
set {
	reference rhf
	basis cc-pvtz
}

set_num_threads( 4 )
memory 2 gb

molecule MOL {
0 1

H	 -1.835082	 1.385983	 0.000069
C	 -1.300516	 0.441153	 -0.000028
O	 -0.006604	 0.654344	 -0.000106
O	 -1.828920	 -0.612308	 0.000113
C	 0.852093	 -0.482521	 -0.000161
C	 0.578601	 -1.266876	 -1.261387
H	 0.654587	 -1.069409	 0.885566
H	 1.877875	 -0.145426	 0.045679
H	 -0.452638	 -1.594511	 -1.295617
H	 1.217721	 -2.141186	 -1.292388
H	 0.776775	 -0.665873	 -2.139733

	symmetry c1
}
set optking {
	frozen_dihedral = ("
		7 5 3 2
	")
}

ee = optimize('scf')
oeprop('DIPOLE', 'QUADRUPOLE', 'MULLIKEN_CHARGES')
f=open( 'psi4out.xyz', 'w' )
f.write( "11  " )
f.write( str(ee) + "\n" )
f.write( MOL.save_string_xyz() )
f.close()
--------------------------------------------------------------------------

    Molecular point group: c1
  Charge       = 0
  Multiplicity = 1
  Basis Set: CC-PVTZ
  Basis Set:
  @DF-RHF Final Energy:  -266.92341793846037
    Total Energy =                       -266.9234179384605454
    Molecular point group: c1
  Basis Set: CC-PVTZ
  Basis Set:
  Basis Set: CC-PVTZ
  Basis Set:
  @DF-RHF Final Energy:  -266.92875929724767
    Total Energy =                       -266.9287592972477228
  Basis Set: CC-PVTZ
  Basis Set:
  Basis Set: CC-PVTZ
  Basis Set:
  @DF-RHF Final Energy:  -266.92932543798668
    Total Energy =                       -266.9293254379865630
  Basis Set: CC-PVTZ
  Basis Set:
  Basis Set: CC-PVTZ
  Basis Set:
  @DF-RHF Final Energy:  -266.92482472736043
    Total Energy =                       -266.9248247273604875
  Basis Set: CC-PVTZ
  Basis Set:
  Basis Set: CC-PVTZ
  Basis Set:
  @DF-RHF Final Energy:  -266.92941776968939
    Total Energy =                       -266.9294177696895645
  Basis Set: CC-PVTZ
  Basis Set:
  Basis Set: CC-PVTZ
  Basis Set:
  @DF-RHF Final Energy:  -266.92946751686043
    Total Energy =                       -266.9294675168604272
  Basis Set: CC-PVTZ
  Basis Set:
  Charge       = 0
  Multiplicity = 1
  Basis Set: CC-PVTZ
  Basis Set:

    Orbital Energies (a.u.)
    -----------------------

    Doubly Occupied:

       1A    -20.604949     2A    -20.545311     3A    -11.370655
       4A    -11.291558     5A    -11.220216     6A     -1.477892
       7A     -1.377340     8A     -1.049055     9A     -0.915645
      10A     -0.796074    11A     -0.743152    12A     -0.687638
      13A     -0.658968    14A     -0.625835    15A     -0.577826
      16A     -0.544045    17A     -0.534953    18A     -0.502246
      19A     -0.462916    20A     -0.454494

  @DF-RHF Final Energy:  -266.92946793252378

   => Energetics <=

    Nuclear Repulsion Energy =            183.0147390650889179
    One-Electron Energy =                -727.0068733745090412
    Two-Electron Energy =                 277.0626663768963454
    DFT Exchange-Correlation Energy =       0.0000000000000000
    Empirical Dispersion Energy =           0.0000000000000000
    PCM Polarization Energy =               0.0000000000000000
    EFP Energy =                            0.0000000000000000
    Total Energy =                       -266.9294679325238349
    Molecular point group: c1
  Basis Set: CC-PVTZ
  Basis Set:

  -Total Gradient:
     Atom            X                  Y                   Z
    ------   -----------------  -----------------  -----------------
       1       -0.000002093640    -0.000012712463     0.000005806009
       2       -0.000071215697     0.000035003179    -0.003498070803
       3        0.000865584111     0.000507815111     0.005536988118
       4       -0.000048068245    -0.000016498297     0.000005555600
       5       -0.003550784735    -0.002447940000    -0.003894577531
       6       -0.000031298481    -0.000019932800     0.000014659678
       7        0.002814933185     0.001938901766     0.001851580566
       8       -0.000014106865     0.000005548640    -0.000005700883
       9        0.000025864341     0.000006809464    -0.000002498102
      10        0.000010772028     0.000002419125    -0.000006990813
      11        0.000000413998     0.000000586274    -0.000006751837

  **** Optimization is complete! (in 7 steps) ****
    Final optimized geometry and variables:
    Molecular point group: c1

    Geometry (in Angstrom), charge = 0, multiplicity = 1:

    H           -1.429228015593     1.734376635286     0.252432755597
    C           -0.958203946060     0.756799835526     0.288762557243
    O            0.345268815707     0.887701300724     0.237829457249
    O           -1.557787378564    -0.254255596651     0.377969816998
    C            1.166700159551    -0.278389756331     0.191937455141
    C            1.012963227281    -1.081697836331    -1.082800331625
    H            0.985928814713    -0.868774188533     1.079227997683
    H            2.168570490567     0.117513879911     0.262187640980
    H            0.036770464955    -1.534564275230    -1.157556669963
    H            1.759563665404    -1.867649699668    -1.092044667436
    H            1.178235770177    -0.450901384427    -1.948323062085

  Mulliken Charges: (a.u.)
   Center  Symbol    Alpha    Beta     Spin     Total
       1     H     0.44615  0.44615  0.00000  0.10770
       2     C     2.84149  2.84149  0.00000  0.31701
       3     O     4.14843  4.14843  0.00000 -0.29687
       4     O     4.19761  4.19761  0.00000 -0.39523
       5     C     2.97966  2.97966  0.00000  0.04068
       6     C     3.15180  3.15180  0.00000 -0.30359
       7     H     0.45165  0.45165  0.00000  0.09669
       8     H     0.44456  0.44456  0.00000  0.11088
       9     H     0.43650  0.43650  0.00000  0.12700
      10     H     0.45013  0.45013  0.00000  0.09975
      11     H     0.45201  0.45201  0.00000  0.09598

   Total alpha = 20.00000, Total beta = 20.00000, Total charge =  0.00000
