  ==> Input File <==

--------------------------------------------------------------------------
set {
	reference rhf
	basis cc-pvtz
}

set_num_threads( 4 )
memory 2 gb

molecule MOL {
0 1

H	 1.495603	 1.281024	 -0.277968
C	 0.848385	 0.440008	 0.000011
C	 -0.623497	 0.751021	 0.000090
O	 1.320976	 -0.609314	 0.269874
C	 -1.523725	 -0.474323	 -0.000013
H	 -0.813143	 1.382932	 -0.864897
H	 -0.813071	 1.382716	 0.865253
H	 -1.342980	 -1.087348	 -0.873016
H	 -2.565269	 -0.177464	 0.000070
H	 -1.342898	 -1.087564	 0.872820

	symmetry c1
}
set optking {
	frozen_dihedral = ("
		4 2 3 6
	")
}

ee = optimize('scf')
oeprop('DIPOLE', 'QUADRUPOLE', 'MULLIKEN_CHARGES')
f=open( 'psi4out.xyz', 'w' )
f.write( "10  " )
f.write( str(ee) + "\n" )
f.write( MOL.save_string_xyz() )
f.close()
--------------------------------------------------------------------------

    Molecular point group: c1
  Charge       = 0
  Multiplicity = 1
  Basis Set: CC-PVTZ
  Basis Set:
  @DF-RHF Final Energy:  -192.02422673317938
    Total Energy =                       -192.0242267331792050
    Molecular point group: c1
  Basis Set: CC-PVTZ
  Basis Set:
  Basis Set: CC-PVTZ
  Basis Set:
  @DF-RHF Final Energy:  -192.02320144272068
    Total Energy =                       -192.0232014427206195
  Basis Set: CC-PVTZ
  Basis Set:
  Basis Set: CC-PVTZ
  Basis Set:
  @DF-RHF Final Energy:  -192.02435454118250
    Total Energy =                       -192.0243545411825608
  Basis Set: CC-PVTZ
  Basis Set:
  Charge       = 0
  Multiplicity = 1
  Basis Set: CC-PVTZ
  Basis Set:

    Orbital Energies (a.u.)
    -----------------------

    Doubly Occupied:

       1A    -20.553487     2A    -11.323458     3A    -11.239669
       4A    -11.218634     5A     -1.409089     6A     -1.061787
       7A     -0.911665     8A     -0.774718     9A     -0.686105
      10A     -0.637731    11A     -0.631207    12A     -0.546255
      13A     -0.535916    14A     -0.520012    15A     -0.494732
      16A     -0.416626

  @DF-RHF Final Energy:  -192.02437764291693

   => Energetics <=

    Nuclear Repulsion Energy =            119.3126292723680280
    One-Electron Energy =                -496.7518335489395440
    Two-Electron Energy =                 185.4148266336546271
    DFT Exchange-Correlation Energy =       0.0000000000000000
    Empirical Dispersion Energy =           0.0000000000000000
    PCM Polarization Energy =               0.0000000000000000
    EFP Energy =                            0.0000000000000000
    Total Energy =                       -192.0243776429168747
    Molecular point group: c1
  Basis Set: CC-PVTZ
  Basis Set:

  -Total Gradient:
     Atom            X                  Y                   Z
    ------   -----------------  -----------------  -----------------
       1        0.000012198311     0.000022160608     0.000013882538
       2       -0.000000975393    -0.000365215659    -0.002305843943
       3       -0.000304692639    -0.001399238826    -0.000309316439
       4        0.000018748874     0.000462477534     0.001727605356
       5       -0.000011274183    -0.000047790619    -0.000078209715
       6        0.000248423253     0.001296123557     0.000984430748
       7        0.000035515457     0.000015534176    -0.000015069442
       8       -0.000021768487    -0.000052176208    -0.000018121326
       9       -0.000001544272     0.000005518431     0.000009990606
      10        0.000025369081     0.000062607005    -0.000009348383

  **** Optimization is complete! (in 4 steps) ****
    Final optimized geometry and variables:
    Molecular point group: c1

    Geometry (in Angstrom), charge = 0, multiplicity = 1:

    H            1.502202813074     1.282511735580    -0.295050997974
    C            0.848347298956     0.431553542263    -0.067997454604
    C           -0.624530389390     0.741136250259    -0.083885567962
    O            1.315525594284    -0.621116933585     0.198547355040
    C           -1.525335675697    -0.483768049977    -0.061085180418
    H           -0.824156112084     1.380664262365    -0.938947333745
    H           -0.803270248193     1.370786375801     0.786833081702
    H           -1.360197400202    -1.103115555966    -0.933682466628
    H           -2.566595256372    -0.186502632798    -0.047100585737
    H           -1.329368653964    -1.089640880498     0.812633603642

  Mulliken Charges: (a.u.)
   Center  Symbol    Alpha    Beta     Spin     Total
       1     H     0.45363  0.45363  0.00000  0.09275
       2     C     2.91622  2.91622  0.00000  0.16756
       3     C     3.08346  3.08346  0.00000 -0.16693
       4     O     4.16510  4.16510  0.00000 -0.33019
       5     C     3.14081  3.14081  0.00000 -0.28161
       6     H     0.44850  0.44850  0.00000  0.10300
       7     H     0.44831  0.44831  0.00000  0.10339
       8     H     0.44980  0.44980  0.00000  0.10040
       9     H     0.44935  0.44935  0.00000  0.10130
      10     H     0.44483  0.44483  0.00000  0.11034

   Total alpha = 16.00000, Total beta = 16.00000, Total charge = -0.00000
