  ==> Input File <==

--------------------------------------------------------------------------
set {
	reference rhf
	basis 6-31G*
}

set_num_threads( 4 )
memory 2 gb

molecule MOL {
0 1

H	 -2.266838	 -1.584777	 0.311136
O	 -2.310168	 -0.871793	 -0.309793
C	 -2.026376	 0.340750	 0.341611
C	 -0.673256	 0.843270	 -0.132153
H	 -2.792215	 1.080697	 0.115987
H	 -2.013526	 0.200402	 1.421792
C	 0.486613	 -0.083066	 0.235839
H	 -0.715586	 0.970948	 -1.210718
H	 -0.508072	 1.829858	 0.297090
C	 1.840406	 0.433480	 -0.254303
H	 0.300215	 -1.068318	 -0.178947
H	 0.519509	 -0.203625	 1.318070
C	 3.000220	 -0.489290	 0.118523
H	 1.809207	 0.553576	 -1.335192
H	 2.021860	 1.424500	 0.157276
H	 2.864959	 -1.479103	 -0.307933
H	 3.946603	 -0.099227	 -0.243630
H	 3.080049	 -0.602997	 1.196117

	symmetry c1
}
set optking {
	frozen_dihedral = ("
		1 2 3 4
	")
}

ee = optimize('scf')
oeprop('DIPOLE', 'QUADRUPOLE', 'MULLIKEN_CHARGES')
f=open( 'psi4out.xyz', 'w' )
f.write( "18  " )
f.write( str(ee) + "\n" )
f.write( MOL.save_string_xyz() )
f.close()
--------------------------------------------------------------------------

    Molecular point group: c1
  Charge       = 0
  Multiplicity = 1
  Basis Set: 6-31G*
  Basis Set:
  @DF-RHF Final Energy:  -271.17761665689034
    Total Energy =                       -271.1776166568903363
    Molecular point group: c1
  Basis Set: 6-31G*
  Basis Set:
  Basis Set: 6-31G*
  Basis Set:
  @DF-RHF Final Energy:  -271.17819258206981
    Total Energy =                       -271.1781925820695278
  Basis Set: 6-31G*
  Basis Set:
  Basis Set: 6-31G*
  Basis Set:
  @DF-RHF Final Energy:  -271.17835749914036
    Total Energy =                       -271.1783574991402475
  Basis Set: 6-31G*
  Basis Set:
  Charge       = 0
  Multiplicity = 1
  Basis Set: 6-31G*
  Basis Set:

    Orbital Energies (a.u.)
    -----------------------

    Doubly Occupied:

       1A    -20.552063     2A    -11.268246     3A    -11.214848
       4A    -11.212964     5A    -11.211916     6A    -11.208313
       7A     -1.358226     8A     -1.078122     9A     -1.010402
      10A     -0.917495    11A     -0.823354    12A     -0.787325
      13A     -0.703379    14A     -0.639627    15A     -0.624819
      16A     -0.586040    17A     -0.573407    18A     -0.565783
      19A     -0.523026    20A     -0.503405    21A     -0.482423
      22A     -0.475471    23A     -0.464099    24A     -0.459855
      25A     -0.421600

  @DF-RHF Final Energy:  -271.17835718729634

   => Energetics <=

    Nuclear Repulsion Energy =            248.7553116772139390
    One-Electron Energy =                -860.5349189760586341
    Two-Electron Energy =                 340.6012501115483246
    DFT Exchange-Correlation Energy =       0.0000000000000000
    Empirical Dispersion Energy =           0.0000000000000000
    PCM Polarization Energy =               0.0000000000000000
    EFP Energy =                            0.0000000000000000
    Total Energy =                       -271.1783571872963421
    Molecular point group: c1
  Basis Set: 6-31G*
  Basis Set:

  -Total Gradient:
     Atom            X                  Y                   Z
    ------   -----------------  -----------------  -----------------
       1       -0.000758696696     0.000138490298     0.000184962107
       2        0.000832846735     0.000033720681    -0.000335067777
       3        0.000152032271    -0.000330964768     0.000633070625
       4       -0.000187632235     0.000217070417    -0.000442372044
       5       -0.000012968456     0.000001711870     0.000004541037
       6       -0.000039751164    -0.000048878035    -0.000004276528
       7        0.000006088289     0.000003565928     0.000012883785
       8       -0.000000018816    -0.000026065917    -0.000013796127
       9       -0.000006427221    -0.000050147549    -0.000024144222
      10        0.000031803558     0.000022287554     0.000029708486
      11       -0.000006188875     0.000040909837    -0.000061761342
      12       -0.000019979778    -0.000019441097    -0.000015999547
      13        0.000009032533     0.000022722054     0.000026397978
      14       -0.000009959961    -0.000032646621     0.000019165650
      15        0.000010508213     0.000025537114    -0.000015198549
      16       -0.000006442857     0.000004046456    -0.000003593685
      17        0.000000164298     0.000002013828     0.000002467846
      18        0.000005590170    -0.000003932049     0.000003012308

  **** Optimization is complete! (in 4 steps) ****
    Final optimized geometry and variables:
    Molecular point group: c1

    Geometry (in Angstrom), charge = 0, multiplicity = 1:

    H           -2.341125806245    -1.585171687446     0.319070222211
    O           -2.375373418995    -0.870331079653    -0.297277898555
    C           -2.025738956503     0.338288886886     0.336964776159
    C           -0.672514820835     0.845372939210    -0.141813822918
    H           -2.794205358240     1.066296822363     0.100530089796
    H           -2.020518784622     0.216458613851     1.417950893807
    C            0.490707582845    -0.076958429843     0.223230870764
    H           -0.717285408579     0.968794137329    -1.220772710539
    H           -0.506851787259     1.834351493459     0.282912476665
    C            1.846521159392     0.443302535275    -0.257409603736
    H            0.311213827206    -1.059662323638    -0.204204668266
    H            0.522051774788    -0.207884187563     1.305049300047
    C            3.006004545772    -0.480618537807     0.113300576634
    H            1.818397545657     0.571120638935    -1.337208567513
    H            2.024201227877     1.431338688908     0.162292239975
    H            2.874333026853    -1.467635955074    -0.320993778251
    H            3.952890152241    -0.086527747157    -0.242675292150
    H            3.082481610350    -0.601705169698     1.190346568205

  Mulliken Charges: (a.u.)
   Center  Symbol    Alpha    Beta     Spin     Total
       1     H     0.27926  0.27926  0.00000  0.44149
       2     O     4.37177  4.37177  0.00000 -0.74355
       3     C     3.00050  3.00050  0.00000 -0.00100
       4     C     3.15666  3.15666  0.00000 -0.31332
       5     H     0.41838  0.41838  0.00000  0.16324
       6     H     0.43190  0.43190  0.00000  0.13621
       7     C     3.15654  3.15654  0.00000 -0.31308
       8     H     0.41507  0.41507  0.00000  0.16986
       9     H     0.42589  0.42589  0.00000  0.14822
      10     C     3.15092  3.15092  0.00000 -0.30184
      11     H     0.41643  0.41643  0.00000  0.16713
      12     H     0.42895  0.42895  0.00000  0.14209
      13     C     3.23926  3.23926  0.00000 -0.47852
      14     H     0.42126  0.42126  0.00000  0.15748
      15     H     0.42387  0.42387  0.00000  0.15226
      16     H     0.42138  0.42138  0.00000  0.15725
      17     H     0.41924  0.41924  0.00000  0.16151
      18     H     0.42271  0.42271  0.00000  0.15457

   Total alpha = 25.00000, Total beta = 25.00000, Total charge =  0.00000
