  ==> Input File <==

--------------------------------------------------------------------------
set {
	reference rhf
	basis 6-31G*
}

set_num_threads( 1 )
memory 2 gb

molecule MOL {
0 1

H	 3.463771	 0.168298	 -0.756243
C	 2.752674	 -0.045734	 0.033351
C	 1.322923	 0.120767	 -0.479465
H	 2.934561	 -1.059086	 0.377456
H	 2.958358	 0.631174	 0.856809
C	 0.306652	 -0.176050	 0.621399
H	 1.144658	 -0.551717	 -1.312180
H	 1.166477	 1.131798	 -0.836680
N	 -1.068537	 -0.011044	 0.085269
H	 0.372515	 -1.192590	 0.973735
H	 0.391664	 0.520566	 1.441230
O	 -1.973671	 -0.382382	 0.766600
O	 -1.170418	 0.454533	 -1.008753

	symmetry c1
}
set optking {
	frozen_dihedral = ("
		7 3 6 9
	")
}

ee = energy('scf')
oeprop('DIPOLE', 'QUADRUPOLE', 'MULLIKEN_CHARGES')
f=open( 'psi4out.xyz', 'w' )
f.write( "13  " )
f.write( str(ee) + "\n" )
f.write( MOL.save_string_xyz() )
f.close()
--------------------------------------------------------------------------

    Molecular point group: c1

    Geometry (in Angstrom), charge = 0, multiplicity = 1:

       Center              X                  Y                   Z               Mass
    ------------   -----------------  -----------------  -----------------  -----------------
           H          3.465297878314     0.174666642273    -0.758199046222     1.007825032070
           C          2.754200878314    -0.039365357727     0.031394953778    12.000000000000
           C          1.324449878314     0.127135642273    -0.481421046222    12.000000000000
           H          2.936087878314    -1.052717357727     0.375499953778     1.007825032070
           H          2.959884878314     0.637542642273     0.854852953778     1.007825032070
           C          0.308178878314    -0.169681357727     0.619442953778    12.000000000000
           H          1.146184878314    -0.545348357727    -1.314136046222     1.007825032070
           H          1.168003878314     1.138166642273    -0.838636046222     1.007825032070
           N         -1.067010121686    -0.004675357727     0.083312953778    14.003074004780
           H          0.374041878314    -1.186221357727     0.971778953778     1.007825032070
           H          0.393190878314     0.526934642273     1.439273953778     1.007825032070
           O         -1.972144121686    -0.376013357727     0.764643953778    15.994914619560
           O         -1.168891121686     0.460901642273    -1.010709046222    15.994914619560

  Charge       = 0
  Multiplicity = 1
  Basis Set: 6-31G*
  Basis Set:

    Orbital Energies (a.u.)
    -----------------------

    Doubly Occupied:

       1A    -20.602961     2A    -20.600377     3A    -15.848929
       4A    -11.300702     5A    -11.246670     6A    -11.234546
       7A     -1.632224     8A     -1.418084     9A     -1.133435
      10A     -1.025608    11A     -0.882707    12A     -0.822407
      13A     -0.762299    14A     -0.752121    15A     -0.726788
      16A     -0.655239    17A     -0.604715    18A     -0.579679
      19A     -0.550873    20A     -0.518149    21A     -0.509876
      22A     -0.484556    23A     -0.473028    24A     -0.448548

  @DF-RHF Final Energy:  -321.73289581741631

   => Energetics <=

    Nuclear Repulsion Energy =            248.3294112854675006
    One-Electron Energy =                -930.4956065846561160
    Two-Electron Energy =                 360.4332994817716553
    DFT Exchange-Correlation Energy =       0.0000000000000000
    Empirical Dispersion Energy =           0.0000000000000000
    PCM Polarization Energy =               0.0000000000000000
    EFP Energy =                            0.0000000000000000
    Total Energy =                       -321.7328958174169884

  Mulliken Charges: (a.u.)
   Center  Symbol    Alpha    Beta     Spin     Total
       1     H     0.40830  0.40830  0.00000  0.18340
       2     C     3.24880  3.24880  0.00000 -0.49759
       3     C     3.16471  3.16471  0.00000 -0.32943
       4     H     0.41775  0.41775  0.00000  0.16450
       5     H     0.41784  0.41784  0.00000  0.16432
       6     C     3.09182  3.09182  0.00000 -0.18365
       7     H     0.40317  0.40317  0.00000  0.19366
       8     H     0.39894  0.39894  0.00000  0.20211
       9     N     3.22254  3.22254  0.00000  0.55493
      10     H     0.38491  0.38491  0.00000  0.23018
      11     H     0.38501  0.38501  0.00000  0.22997
      12     O     4.22929  4.22929  0.00000 -0.45858
      13     O     4.22691  4.22691  0.00000 -0.45382

   Total alpha = 24.00000, Total beta = 24.00000, Total charge =  0.00000
