  ==> Input File <==

--------------------------------------------------------------------------
set {
	reference rhf
	basis 6-31G*
}

set_num_threads( 4 )
memory 2 gb

molecule MOL {
0 1

H	 2.354463	 0.548267	 -2.079842
O	 1.503570	 0.821315	 -1.768209
C	 1.412453	 0.596793	 -0.383849
C	 0.031547	 1.023609	 0.088541
H	 2.167136	 1.175123	 0.146130
H	 1.589056	 -0.451779	 -0.154920
C	 -1.134819	 0.293262	 -0.585751
H	 -0.068694	 2.090425	 -0.090744
H	 -0.016308	 0.878856	 1.166490
C	 -1.917817	 -0.639439	 0.339494
H	 -0.758119	 -0.268455	 -1.433105
H	 -1.813832	 1.041889	 -0.986690
H	 -2.777680	 -1.057197	 -0.174994
H	 -1.310268	 -1.471279	 0.680599
H	 -2.283753	 -0.111424	 1.216626

	symmetry c1
}
set optking {
	frozen_dihedral = ("
		8 4 7 11
	")
}

ee = optimize('scf')
oeprop('DIPOLE', 'QUADRUPOLE', 'MULLIKEN_CHARGES')
f=open( 'psi4out.xyz', 'w' )
f.write( "15  " )
f.write( str(ee) + "\n" )
f.write( MOL.save_string_xyz() )
f.close()
--------------------------------------------------------------------------

    Molecular point group: c1
  Charge       = 0
  Multiplicity = 1
  Basis Set: 6-31G*
  Basis Set:
  @DF-RHF Final Energy:  -232.13947777019405
    Total Energy =                       -232.1394777701941621
    Molecular point group: c1
  Basis Set: 6-31G*
  Basis Set:
  Basis Set: 6-31G*
  Basis Set:
  @DF-RHF Final Energy:  -232.14017749552102
    Total Energy =                       -232.1401774955210158
  Basis Set: 6-31G*
  Basis Set:
  Basis Set: 6-31G*
  Basis Set:
  @DF-RHF Final Energy:  -232.14024118272476
    Total Energy =                       -232.1402411827245942
  Basis Set: 6-31G*
  Basis Set:
  Charge       = 0
  Multiplicity = 1
  Basis Set: 6-31G*
  Basis Set:

    Orbital Energies (a.u.)
    -----------------------

    Doubly Occupied:

       1A    -20.553204     2A    -11.268490     3A    -11.211875
       4A    -11.209076     5A    -11.206211     6A     -1.360098
       7A     -1.062670     8A     -0.972881     9A     -0.859322
      10A     -0.784677    11A     -0.702917    12A     -0.648579
      13A     -0.601597    14A     -0.581922    15A     -0.557408
      16A     -0.535579    17A     -0.501709    18A     -0.474898
      19A     -0.469300    20A     -0.453443    21A     -0.429812

  @DF-RHF Final Energy:  -232.14024182139630

   => Energetics <=

    Nuclear Repulsion Energy =            189.2247347679074494
    One-Electron Energy =                -689.8386171357281000
    Two-Electron Energy =                 268.4736405464244626
    DFT Exchange-Correlation Energy =       0.0000000000000000
    Empirical Dispersion Energy =           0.0000000000000000
    PCM Polarization Energy =               0.0000000000000000
    EFP Energy =                            0.0000000000000000
    Total Energy =                       -232.1402418213962164
    Molecular point group: c1
  Basis Set: 6-31G*
  Basis Set:

  -Total Gradient:
     Atom            X                  Y                   Z
    ------   -----------------  -----------------  -----------------
       1        0.000008422066     0.000001806341     0.000025944122
       2        0.000026504136     0.000065750960     0.000092943769
       3       -0.000040767609    -0.000127260945    -0.000094441080
       4        0.001328780033    -0.000419762248    -0.001768592474
       5        0.000002484575     0.000013028566    -0.000052538055
       6       -0.000021091815    -0.000056310633     0.000010066005
       7       -0.000531788212     0.001863693670    -0.001117544022
       8       -0.001062301343     0.000206157970     0.001716359403
       9       -0.000003045393     0.000052026754     0.000013900259
      10       -0.000074649697     0.000065635559    -0.000015764844
      11        0.000315454263    -0.001553931502     0.001143972812
      12        0.000003153333    -0.000087619610    -0.000012491237
      13       -0.000067071901     0.000023629872     0.000027540267
      14        0.000033869255    -0.000013802248    -0.000032822433
      15        0.000082048307    -0.000033042507     0.000063467509

  **** Optimization is complete! (in 4 steps) ****
    Final optimized geometry and variables:
    Molecular point group: c1

    Geometry (in Angstrom), charge = 0, multiplicity = 1:

    H            2.333471782026     0.126361497910    -1.576109212421
    O            1.508943131954     0.462515311224    -1.255146534048
    C            1.362272663970     0.138352579804     0.104033976938
    C           -0.003604118232     0.611757093008     0.569187401722
    H            2.140427753245     0.618133130359     0.694856472369
    H            1.452934776438    -0.937436626829     0.252510357781
    C           -1.179028049535    -0.124313791663    -0.108839512639
    H           -0.071734194660     1.681459895033     0.399306951057
    H           -0.054169472026     0.475945911586     1.647562022245
    C           -1.920745956344    -1.068390163776     0.839642724915
    H           -0.805539565382    -0.695336742612    -0.952269785521
    H           -1.881748474798     0.595094369148    -0.516139512054
    H           -2.731346629043    -1.581437216612     0.330841371613
    H           -1.252600880836    -1.825890917669     1.241854920953
    H           -2.346673177971    -0.527452628902     1.680192474757

  Mulliken Charges: (a.u.)
   Center  Symbol    Alpha    Beta     Spin     Total
       1     H     0.28077  0.28077  0.00000  0.43845
       2     O     4.36884  4.36884  0.00000 -0.73769
       3     C     2.99982  2.99982  0.00000  0.00036
       4     C     3.16172  3.16172  0.00000 -0.32344
       5     H     0.42950  0.42950  0.00000  0.14100
       6     H     0.43300  0.43300  0.00000  0.13400
       7     C     3.15569  3.15569  0.00000 -0.31137
       8     H     0.41186  0.41186  0.00000  0.17628
       9     H     0.42189  0.42189  0.00000  0.15622
      10     C     3.24108  3.24108  0.00000 -0.48215
      11     H     0.41004  0.41004  0.00000  0.17993
      12     H     0.41832  0.41832  0.00000  0.16335
      13     H     0.42016  0.42016  0.00000  0.15968
      14     H     0.42465  0.42465  0.00000  0.15070
      15     H     0.42266  0.42266  0.00000  0.15469

   Total alpha = 21.00000, Total beta = 21.00000, Total charge =  0.00000
