                              Psi4 1.0.54 Driver

  ==> Input File <==

--------------------------------------------------------------------------
set {
	reference rhf
	basis cc-pvtz
}

set_num_threads( 4 )
memory 2 gb

molecule MOL {
0 1

H	 -2.644180	 -0.653737	 1.272255
C	 -2.092774	 -0.380414	 0.391915
O	 -0.808934	 -0.154049	 0.752536
F	 -2.163230	 -1.351640	 -0.507133
F	 -2.627232	 0.691260	 -0.169301
C	 0.085006	 0.250800	 -0.215074
C	 1.370439	 -0.548013	 -0.012993
Cl	 0.421658	 1.987697	 -0.091007
H	 -0.272219	 0.063284	 -1.212508
F	 1.195907	 -1.794975	 -0.370271
F	 1.686906	 -0.532880	 1.260166
F	 2.371173	 -0.054699	 -0.689323

	symmetry c1
}
set optking {
	frozen_dihedral = ("
		10 7 6 9
	")
}

ee,wfn = optimize('scf', return_wfn=True)
oeprop( wfn, 'DIPOLE', 'QUADRUPOLE', 'MULLIKEN_CHARGES')
f=open( 'psi4out.xyz', 'w' )
f.write( "12  " )
f.write( str(ee) + "\n" )
f.write( MOL.save_string_xyz() )
f.close()
--------------------------------------------------------------------------

    Molecular point group: c1
  Charge       = 0
  Multiplicity = 1
  Basis Set: CC-PVTZ
  Basis Set:
  @DF-RHF Final Energy: -1146.61867845713209
    Total Energy =                      -1146.6186784571316366
    Molecular point group: c1
  Basis Set: CC-PVTZ
  Basis Set:
  Basis Set: CC-PVTZ
  Basis Set:
  @DF-RHF Final Energy: -1146.61933282883274
    Total Energy =                      -1146.6193328288322846
  Basis Set: CC-PVTZ
  Basis Set:
  Basis Set: CC-PVTZ
  Basis Set:
  @DF-RHF Final Energy: -1146.61974214504562
    Total Energy =                      -1146.6197421450465299
  Basis Set: CC-PVTZ
  Basis Set:
  Basis Set: CC-PVTZ
  Basis Set:
  @DF-RHF Final Energy: -1146.61976090121811
    Total Energy =                      -1146.6197609012183420
  Basis Set: CC-PVTZ
  Basis Set:
  Basis Set: CC-PVTZ
  Basis Set:
  @DF-RHF Final Energy: -1146.61976373791504
    Total Energy =                      -1146.6197637379157186
  Basis Set: CC-PVTZ
  Basis Set:
  Charge       = 0
  Multiplicity = 1
  Basis Set: CC-PVTZ
  Basis Set:

    Orbital Energies (a.u.)
    -----------------------

    Doubly Occupied:

       1A   -104.857195     2A    -26.354226     3A    -26.353964
       4A    -26.353653     5A    -26.343084     6A    -26.342975
       7A    -20.640683     8A    -11.520303     9A    -11.483575
      10A    -11.400996    11A    -10.582729    12A     -8.049533
      13A     -8.047534    14A     -8.047467    15A     -1.767948
      16A     -1.724545    17A     -1.663297    18A     -1.660781
      19A     -1.644608    20A     -1.486552    21A     -1.178565
      22A     -1.053641    23A     -0.990301    24A     -0.924544
      25A     -0.864741    26A     -0.858076    27A     -0.852389
      28A     -0.829325    29A     -0.817736    30A     -0.794009
      31A     -0.732933    32A     -0.732353    33A     -0.712489
      34A     -0.708341    35A     -0.684790    36A     -0.681283
      37A     -0.665254    38A     -0.664014    39A     -0.649631
      40A     -0.638885    41A     -0.598594    42A     -0.581963
      43A     -0.526027    44A     -0.478312    45A     -0.470458

  @DF-RHF Final Energy: -1146.61976433597897

   => Energetics <=

    Nuclear Repulsion Energy =            738.2291005653303273
    One-Electron Energy =               -3059.6691271934450924
    Two-Electron Energy =                1174.8202622921348848
    DFT Exchange-Correlation Energy =       0.0000000000000000
    Empirical Dispersion Energy =           0.0000000000000000
    PCM Polarization Energy =               0.0000000000000000
    EFP Energy =                            0.0000000000000000
    Total Energy =                      -1146.6197643359796530
    Molecular point group: c1
  Basis Set: CC-PVTZ
  Basis Set:

  -Total Gradient:
     Atom            X                  Y                   Z
    ------   -----------------  -----------------  -----------------
       1       -0.000005600843     0.000000182593    -0.000003600500
       2        0.000057147163    -0.000019781525    -0.000079936267
       3        0.000013248173     0.000061736645     0.000027945065
       4       -0.000035049350    -0.000010948479     0.000011642195
       5       -0.000060763242    -0.000017870087     0.000019019062
       6        0.002628543878     0.003702110686    -0.002261680392
       7       -0.001490054748    -0.001475029021     0.004021223809
       8        0.000030790070    -0.000020074986     0.000004582202
       9       -0.001966741474    -0.002856414754     0.001243312039
      10        0.000825932233     0.000565889319    -0.002826760338
      11       -0.000041493485     0.000014148161    -0.000143799663
      12        0.000044041648     0.000056051556    -0.000011947205

  **** Optimization is complete! (in 6 steps) ****
    Final optimized geometry and variables:
    Molecular point group: c1

    Geometry (in Angstrom), charge = 0, multiplicity = 1:

    H           -2.633366199717    -0.735942988298     1.238074433564
    C           -2.083998727758    -0.424087616963     0.369237997735
    O           -0.804493539930    -0.192869342834     0.740467785444
    F           -2.139536795804    -1.364587992228    -0.563402989484
    F           -2.633463751949     0.658509875591    -0.155623524583
    C            0.087358213457     0.261170721245    -0.211635594393
    C            1.381811264450    -0.527551721951    -0.015353759089
    CL           0.377723479331     1.998534523932    -0.037900052193
    H           -0.271413281594     0.070957421621    -1.207967426216
    F            1.176387274577    -1.771077850843    -0.384260651752
    F            1.781395685519    -0.520349935584     1.225248494631
    F            2.339720048970    -0.047261464055    -0.767053647736

  Mulliken Charges: (a.u.)
   Center  Symbol    Alpha    Beta     Spin     Total
       1     H     0.45199  0.45199  0.00000  0.09601
       2     C     2.74031  2.74031  0.00000  0.51937
       3     O     4.15665  4.15665  0.00000 -0.31330
       4     F     4.61819  4.61819  0.00000 -0.23638
       5     F     4.61513  4.61513  0.00000 -0.23026
       6     C     2.93872  2.93872  0.00000  0.12257
       7     C     2.66982  2.66982  0.00000  0.66036
       8    CL     8.57234  8.57234  0.00000 -0.14468
       9     H     0.43024  0.43024  0.00000  0.13952
      10     F     4.60564  4.60564  0.00000 -0.21128
      11     F     4.59935  4.59935  0.00000 -0.19870
      12     F     4.60162  4.60162  0.00000 -0.20324

   Total alpha = 45.00000, Total beta = 45.00000, Total charge = -0.00000

*** Psi4 exiting successfully. Buy a developer a beer!
