  ==> Input File <==

--------------------------------------------------------------------------
set {
	reference rhf
	basis 6-31G*
}

set_num_threads( 4 )
memory 2 gb

molecule MOL {
0 1

H	 -3.892951	 0.981613	 -0.358725
C	 -3.196921	 0.361773	 0.172313
C	 -2.076860	 -0.007332	 -0.404944
H	 -3.439953	 0.057760	 1.173024
O	 -1.777607	 -1.314282	 -0.626735
H	 -1.342396	 0.697636	 -0.752477
C	 -0.505240	 -1.629289	 -1.078068
C	 0.468669	 -1.796968	 0.066343
H	 -0.108772	 -0.877531	 -1.751394
H	 -0.565560	 -2.571646	 -1.602292
F	 1.657797	 -2.132541	 -0.412377
F	 0.614495	 -0.676865	 0.754772
F	 0.088709	 -2.737898	 0.905790

	symmetry c1
}
set optking {
	frozen_dihedral = ("
		6 3 2 1
	")
}

ee = optimize('scf')
oeprop('DIPOLE', 'QUADRUPOLE', 'MULLIKEN_CHARGES')
f=open( 'psi4out.xyz', 'w' )
f.write( "13  " )
f.write( str(ee) + "\n" )
f.write( MOL.save_string_xyz() )
f.close()
--------------------------------------------------------------------------

    Molecular point group: c1
  Charge       = 0
  Multiplicity = 1
  Basis Set: 6-31G*
  Basis Set:
  @DF-RHF Final Energy:  -527.45957269475537
    Total Energy =                       -527.4595726947557068
    Molecular point group: c1
  Basis Set: 6-31G*
  Basis Set:
  Basis Set: 6-31G*
  Basis Set:
  @DF-RHF Final Energy:  -527.48630461273103
    Total Energy =                       -527.4863046127310326
  Basis Set: 6-31G*
  Basis Set:
  Basis Set: 6-31G*
  Basis Set:
  @DF-RHF Final Energy:  -527.50739171171313
    Total Energy =                       -527.5073917117128985
  Basis Set: 6-31G*
  Basis Set:
  Basis Set: 6-31G*
  Basis Set:
  @DF-RHF Final Energy:  -527.50969947671535
    Total Energy =                       -527.5096994767154683
  Basis Set: 6-31G*
  Basis Set:
  @DF-RHF Final Energy:  -527.50991296434734
    Total Energy =                       -527.5099129643472224
  @DF-RHF Final Energy:  -527.50994226656292
    Total Energy =                       -527.5099422665632574
  @DF-RHF Final Energy:  -527.50994848252185
    Total Energy =                       -527.5099484825218497
  @DF-RHF Final Energy:  -527.50994824199154
    Total Energy =                       -527.5099482419919923
  @DF-RHF Final Energy:  -527.50994391034885
    Total Energy =                       -527.5099439103491932
  @DF-RHF Final Energy:  -527.50994634703466
    Total Energy =                       -527.5099463470346564
  @DF-RHF Final Energy:  -527.50994758032039
    Total Energy =                       -527.5099475803201585
  @DF-RHF Final Energy:  -527.50993918931999
    Total Energy =                       -527.5099391893196525
  @DF-RHF Final Energy:  -527.50990804192736
    Total Energy =                       -527.5099080419272468
  @DF-RHF Final Energy:  -527.50994809835674
    Total Energy =                       -527.5099480983567446
  @DF-RHF Final Energy:  -527.50994763641302
    Total Energy =                       -527.5099476364130169
  @DF-RHF Final Energy:  -527.50994775634285
    Total Energy =                       -527.5099477563428536
  @DF-RHF Final Energy:  -527.47906898376243
    Total Energy =                       -527.4790689837625450
  @DF-RHF Final Energy:  -527.50761701046667
    Total Energy =                       -527.5076170104665607
  @DF-RHF Final Energy:  -527.50987767160257
    Total Energy =                       -527.5098776716026805
  @DF-RHF Final Energy:  -527.50993150876002
    Total Energy =                       -527.5099315087602463
  @DF-RHF Final Energy:  -527.50979932248185
    Total Energy =                       -527.5097993224815127
  @DF-RHF Final Energy:  -527.50981175671473
    Total Energy =                       -527.5098117567147256
  @DF-RHF Final Energy:  -527.50982252566428
    Total Energy =                       -527.5098225256640490
  @DF-RHF Final Energy:  -527.41828123108348
    Total Energy =                       -527.4182812310840518
  @DF-RHF Final Energy:  -527.49660775239886
    Total Energy =                       -527.4966077523991999
  @DF-RHF Final Energy:  -527.50943295756349
    Total Energy =                       -527.5094329575631491
  @DF-RHF Final Energy:  -527.50976630658533
    Total Energy =                       -527.5097663065852203
  @DF-RHF Final Energy:  -527.50981913496878
    Total Energy =                       -527.5098191349693479
  @DF-RHF Final Energy:  -527.50983173842917
    Total Energy =                       -527.5098317384289430
  @DF-RHF Final Energy:  -527.50983780142121
    Total Energy =                       -527.5098378014210994
  @DF-RHF Final Energy:  -527.50984182258230
    Total Energy =                       -527.5098418225820751
  @DF-RHF Final Energy:  -527.50984394752322
    Total Energy =                       -527.5098439475228815
  @DF-RHF Final Energy:  -527.50984424519311
    Total Energy =                       -527.5098442451933352
  @DF-RHF Final Energy:  -527.50984265005434
    Total Energy =                       -527.5098426500546793
  @DF-RHF Final Energy:  -527.50983955386357
    Total Energy =                       -527.5098395538636851
  @DF-RHF Final Energy:  -527.36645647048533
    Total Energy =                       -527.3664564704854456
  Basis Set: 6-31G*
  Basis Set:
  @DF-RHF Final Energy:  -527.35081363064705
    Total Energy =                       -527.3508136306467122
  Basis Set: 6-31G*
  Basis Set:
  Basis Set: 6-31G*
  Basis Set:
  @DF-RHF Final Energy:  -527.42653751098555
    Total Energy =                       -527.4265375109853267
  Basis Set: 6-31G*
  Basis Set:
  Basis Set: 6-31G*
  Basis Set:
  @DF-RHF Final Energy:  -527.37323186709227
    Total Energy =                       -527.3732318670920449
  Basis Set: 6-31G*
  Basis Set:
  Charge       = 0
  Multiplicity = 1
  Basis Set: 6-31G*
  Basis Set:

    Orbital Energies (a.u.)
    -----------------------

    Doubly Occupied:

       1A    -26.343419     2A    -26.341791     3A    -26.338010
       4A    -20.597680     5A    -11.506228     6A    -11.314102
       7A    -11.295169     8A    -11.216506     9A     -1.730676
      10A     -1.634180    11A     -1.628819    12A     -1.445863
      13A     -1.092685    14A     -1.007730    15A     -0.915428
      16A     -0.836199    17A     -0.823976    18A     -0.816885
      19A     -0.794035    20A     -0.721139    21A     -0.707408
      22A     -0.694784    23A     -0.682147    24A     -0.659839
      25A     -0.652501    26A     -0.640937    27A     -0.639888
      28A     -0.587951    29A     -0.541416    30A     -0.531742
      31A     -0.471112    32A     -0.344328

  @DF-RHF Final Energy:  -527.45625198066227

   => Energetics <=

    Nuclear Repulsion Energy =            417.2255672384283116
    One-Electron Energy =               -1558.2544923550422027
    Two-Electron Energy =                 613.5726731359519590
    DFT Exchange-Correlation Energy =       0.0000000000000000
    Empirical Dispersion Energy =           0.0000000000000000
    PCM Polarization Energy =               0.0000000000000000
    EFP Energy =                            0.0000000000000000
    Total Energy =                       -527.4562519806619321
    Molecular point group: c1
  Basis Set: 6-31G*
  Basis Set:

  -Total Gradient:
     Atom            X                  Y                   Z
    ------   -----------------  -----------------  -----------------
       1       -0.025900553426    -0.039914276299     0.001597668345
       2        0.112087281935    -0.089016456774    -0.030369222882
       3        0.005755734719     0.032420372332    -0.063646453028
       4       -0.029104616111     0.038008303451     0.014547543632
       5       -0.075552365706     0.053899832192     0.052038547093
       6        0.010281960196    -0.006844955577     0.021127299942
       7        0.011043147839     0.004920914036     0.000903279837
       8       -0.008847067413     0.000432564053    -0.016441108724
       9       -0.002632658657     0.001692022790    -0.000945224999
      10       -0.006900538288     0.002475922647     0.000319283274
      11        0.007480727142    -0.011987556730    -0.003674279024
      12        0.000253898434     0.018958678713     0.016031043228
      13        0.002035049338    -0.005045364832     0.008511623306

    Molecular point group: c1

    Geometry (in Angstrom), charge = 0, multiplicity = 1:

    H           -3.427582150649     2.407019435409     0.592536823826
    C           -2.682511923945     1.628526779822     0.267982795109
    C           -1.706561611357     1.210523943760    -0.595624606412
    H           -3.497979525256     1.399221329815     0.971570561104
    O           -1.282797774139    -0.110392730349    -0.738689345807
    H           -0.764111077620     1.715787696497    -0.778488087389
    C            0.045580460785    -0.423691383775    -1.086907127978
    C            0.917960184840    -0.446051299230     0.133279176812
    H            0.450957766644     0.281958846722    -1.800267282877
    H            0.053541593214    -1.416993763710    -1.515523308239
    F            2.138216576489    -0.790717210111    -0.200430260353
    F            0.979710476176     0.713293004646     0.750538794826
    F            0.506905642040    -1.306233978350     1.015311452703

  Mulliken Charges: (a.u.)
   Center  Symbol    Alpha    Beta     Spin     Total
       1     H     0.42523  0.42523  0.00000  0.14954
       2     C     3.19403  3.19403  0.00000 -0.38806
       3     C     2.94972  2.94972  0.00000  0.10057
       4     H     0.39830  0.39830  0.00000  0.20340
       5     O     4.27874  4.27874  0.00000 -0.55748
       6     H     0.38981  0.38981  0.00000  0.22039
       7     C     3.06741  3.06741  0.00000 -0.13482
       8     C     2.44972  2.44972  0.00000  1.10056
       9     H     0.40671  0.40671  0.00000  0.18658
      10     H     0.39059  0.39059  0.00000  0.21883
      11     F     4.68571  4.68571  0.00000 -0.37141
      12     F     4.68725  4.68725  0.00000 -0.37450
      13     F     4.67679  4.67679  0.00000 -0.35358

   Total alpha = 32.00000, Total beta = 32.00000, Total charge = -0.00000
