  ==> Input File <==

--------------------------------------------------------------------------
set {
	reference rhf
	basis 6-31G*
}

set_num_threads( 4 )
memory 2 gb

molecule MOL {
0 1

H	 1.373366	 0.427261	 -2.616194
C	 0.642153	 0.217360	 -1.844057
C	 1.322923	 0.120767	 -0.479465
H	 -0.096923	 1.012217	 -1.862613
H	 0.143757	 -0.711545	 -2.103538
C	 0.306652	 -0.176050	 0.621399
H	 1.828696	 1.052500	 -0.248173
H	 2.070374	 -0.663791	 -0.486371
N	 -1.068537	 -0.011044	 0.085269
H	 0.372515	 -1.192590	 0.973735
H	 0.391664	 0.520566	 1.441230
O	 -1.656956	 -0.997225	 -0.235017
O	 -1.478635	 1.104830	 -0.018026

	symmetry c1
}
set optking {
	frozen_dihedral = ("
		7 3 6 9
	")
}

ee = optimize('scf')
oeprop('DIPOLE', 'QUADRUPOLE', 'MULLIKEN_CHARGES')
f=open( 'psi4out.xyz', 'w' )
f.write( "13  " )
f.write( str(ee) + "\n" )
f.write( MOL.save_string_xyz() )
f.close()
--------------------------------------------------------------------------

    Molecular point group: c1
  Charge       = 0
  Multiplicity = 1
  Basis Set: 6-31G*
  Basis Set:
  @DF-RHF Final Energy:  -321.72397923690500
    Total Energy =                       -321.7239792369051088
    Molecular point group: c1
  Basis Set: 6-31G*
  Basis Set:
  Basis Set: 6-31G*
  Basis Set:
  @DF-RHF Final Energy:  -321.72349826606967
    Total Energy =                       -321.7234982660697256
  Basis Set: 6-31G*
  Basis Set:
  Basis Set: 6-31G*
  Basis Set:
  @DF-RHF Final Energy:  -321.72716249312816
    Total Energy =                       -321.7271624931282759
  Basis Set: 6-31G*
  Basis Set:
  Basis Set: 6-31G*
  Basis Set:
  @DF-RHF Final Energy:  -321.72829149326890
    Total Energy =                       -321.7282914932687845
  Basis Set: 6-31G*
  Basis Set:
  @DF-RHF Final Energy:  -321.72870538431448
    Total Energy =                       -321.7287053843144236
  @DF-RHF Final Energy:  -321.72871264023524
    Total Energy =                       -321.7287126402353579
  Basis Set: 6-31G*
  Basis Set:
  @DF-RHF Final Energy:  -321.72871490253704
    Total Energy =                       -321.7287149025369786
  Basis Set: 6-31G*
  Basis Set:
  Basis Set: 6-31G*
  Basis Set:
  @DF-RHF Final Energy:  -321.72871655850560
    Total Energy =                       -321.7287165585055391
  Basis Set: 6-31G*
  Basis Set:
  Basis Set: 6-31G*
  Basis Set:
  @DF-RHF Final Energy:  -321.72871766143476
    Total Energy =                       -321.7287176614347004
  Basis Set: 6-31G*
  Basis Set:
  Charge       = 0
  Multiplicity = 1
  Basis Set: 6-31G*
  Basis Set:

    Orbital Energies (a.u.)
    -----------------------

    Doubly Occupied:

       1A    -20.602087     2A    -20.599511     3A    -15.846505
       4A    -11.299278     5A    -11.258140     6A    -11.229833
       7A     -1.630649     8A     -1.415941     9A     -1.129849
      10A     -1.022478    11A     -0.896251    12A     -0.820424
      13A     -0.750983    14A     -0.733957    15A     -0.725798
      16A     -0.665789    17A     -0.605973    18A     -0.589761
      19A     -0.538232    20A     -0.518873    21A     -0.510049
      22A     -0.478611    23A     -0.474317    24A     -0.448181

  @DF-RHF Final Energy:  -321.72871790558906

   => Energetics <=

    Nuclear Repulsion Energy =            254.3744936631468363
    One-Electron Energy =                -942.6234884500609041
    Two-Electron Energy =                 366.5202768813250032
    DFT Exchange-Correlation Energy =       0.0000000000000000
    Empirical Dispersion Energy =           0.0000000000000000
    PCM Polarization Energy =               0.0000000000000000
    EFP Energy =                            0.0000000000000000
    Total Energy =                       -321.7287179055890647
    Molecular point group: c1
  Basis Set: 6-31G*
  Basis Set:

  -Total Gradient:
     Atom            X                  Y                   Z
    ------   -----------------  -----------------  -----------------
       1        0.000011916968    -0.000000996431    -0.000000903537
       2       -0.000009617188     0.000005565770    -0.000003496645
       3       -0.003704627342     0.001550136470    -0.002714742272
       4       -0.000009552911     0.000005147946    -0.000005506053
       5        0.000001636764     0.000003298125     0.000001865587
       6        0.000834983967     0.003594199009     0.001635285897
       7        0.002969678494    -0.002162688111     0.001977181551
       8        0.000011727621     0.000004423510     0.000007998928
       9       -0.000127355128    -0.002920281635    -0.000928319088
      10       -0.000014160906    -0.000007746823     0.000003220467
      11        0.000000015834    -0.000007957109     0.000012369436
      12        0.000000487224    -0.000049827043     0.000001700526
      13        0.000034866604    -0.000013273677     0.000013345203

  **** Optimization is complete! (in 10 steps) ****
    Final optimized geometry and variables:
    Molecular point group: c1

    Geometry (in Angstrom), charge = 0, multiplicity = 1:

    H            1.895018275226     0.342517891176    -2.369808642830
    C            1.093888174281     0.159220406425    -1.662885802727
    C            1.672322376229     0.098789385991    -0.248343278600
    H            0.370127442505     0.958789315222    -1.764298609474
    H            0.612047974282    -0.772482976566    -1.935484360609
    C            0.674588367676    -0.221919456286     0.891029907773
    H            2.186381630236     1.021813301137    -0.008968135853
    H            2.432550473573    -0.674245568105    -0.215060499261
    N           -0.736765625144    -0.056244287675     0.457790827424
    H            0.747402190479    -1.249002775594     1.206970736275
    H            0.799594131497     0.438766272795     1.733113961575
    O           -1.323341670501    -1.032832063343     0.106572713618
    O           -1.182860409160     1.050827517978     0.469340852664

  Mulliken Charges: (a.u.)
   Center  Symbol    Alpha    Beta     Spin     Total
       1     H     0.41057  0.41057  0.00000  0.17886
       2     C     3.25613  3.25613  0.00000 -0.51225
       3     C     3.17125  3.17125  0.00000 -0.34249
       4     H     0.40215  0.40215  0.00000  0.19570
       5     H     0.40492  0.40492  0.00000  0.19017
       6     C     3.08442  3.08442  0.00000 -0.16884
       7     H     0.40442  0.40442  0.00000  0.19116
       8     H     0.40710  0.40710  0.00000  0.18581
       9     N     3.23099  3.23099  0.00000  0.53802
      10     H     0.38728  0.38728  0.00000  0.22543
      11     H     0.38603  0.38603  0.00000  0.22793
      12     O     4.22541  4.22541  0.00000 -0.45081
      13     O     4.22934  4.22934  0.00000 -0.45868

   Total alpha = 24.00000, Total beta = 24.00000, Total charge =  0.00000
