  ==> Input File <==

--------------------------------------------------------------------------
set {
	reference rhf
	basis 6-31G*
}

set_num_threads( 4 )
memory 2 gb

molecule MOL {
0 1

H	 -3.684340	 1.286374	 -0.261175
C	 -2.975571	 0.676671	 0.264726
C	 -2.076860	 -0.007332	 -0.404944
H	 -3.022688	 0.643496	 1.336915
O	 -1.180634	 -0.819263	 0.215062
H	 -2.008340	 0.017887	 -1.478194
C	 0.051604	 -1.018856	 -0.387932
C	 1.043764	 0.054862	 -0.001873
H	 -0.017620	 -1.041351	 -1.469781
H	 0.437898	 -1.966374	 -0.042284
F	 2.212596	 -0.199467	 -0.571921
F	 0.652529	 1.252447	 -0.405055
F	 1.230877	 0.110694	 1.300533

	symmetry c1
}
set optking {
	frozen_dihedral = ("
		6 3 5 7
	")
}

ee = optimize('scf')
oeprop('DIPOLE', 'QUADRUPOLE', 'MULLIKEN_CHARGES')
f=open( 'psi4out.xyz', 'w' )
f.write( "13  " )
f.write( str(ee) + "\n" )
f.write( MOL.save_string_xyz() )
f.close()
--------------------------------------------------------------------------

    Molecular point group: c1
  Charge       = 0
  Multiplicity = 1
  Basis Set: 6-31G*
  Basis Set:
  @DF-RHF Final Energy:  -527.53553315213367
    Total Energy =                       -527.5355331521336666
    Molecular point group: c1
  Basis Set: 6-31G*
  Basis Set:
  Basis Set: 6-31G*
  Basis Set:
  @DF-RHF Final Energy:  -527.53553703231012
    Total Energy =                       -527.5355370323102306
  Basis Set: 6-31G*
  Basis Set:
  Basis Set: 6-31G*
  Basis Set:
  @DF-RHF Final Energy:  -527.53564912681691
    Total Energy =                       -527.5356491268166792
  Basis Set: 6-31G*
  Basis Set:
  Basis Set: 6-31G*
  Basis Set:
  @DF-RHF Final Energy:  -527.53565048072755
    Total Energy =                       -527.5356504807280089
  Basis Set: 6-31G*
  Basis Set:
  Charge       = 0
  Multiplicity = 1
  Basis Set: 6-31G*
  Basis Set:

    Orbital Energies (a.u.)
    -----------------------

    Doubly Occupied:

       1A    -26.343353     2A    -26.341993     3A    -26.339568
       4A    -20.607255     5A    -11.502044     6A    -11.317897
       7A    -11.298602     8A    -11.217804     9A     -1.740496
      10A     -1.638446    11A     -1.637084    12A     -1.436827
      13A     -1.082915    14A     -1.016792    15A     -0.924331
      16A     -0.835581    17A     -0.829659    18A     -0.819188
      19A     -0.792399    20A     -0.717917    21A     -0.710695
      22A     -0.692589    23A     -0.675553    24A     -0.661157
      25A     -0.653714    26A     -0.641830    27A     -0.638591
      28A     -0.582874    29A     -0.564511    30A     -0.524802
      31A     -0.505162    32A     -0.355343

  @DF-RHF Final Energy:  -527.53565086282583

   => Energetics <=

    Nuclear Repulsion Energy =            414.7168664454268310
    One-Electron Energy =               -1553.2110892243913440
    Two-Electron Energy =                 610.9585719161386805
    DFT Exchange-Correlation Energy =       0.0000000000000000
    Empirical Dispersion Energy =           0.0000000000000000
    PCM Polarization Energy =               0.0000000000000000
    EFP Energy =                            0.0000000000000000
    Total Energy =                       -527.5356508628258325
    Molecular point group: c1
  Basis Set: 6-31G*
  Basis Set:

  -Total Gradient:
     Atom            X                  Y                   Z
    ------   -----------------  -----------------  -----------------
       1        0.000004229558    -0.000002963517    -0.000000666447
       2        0.000019217700    -0.000010243401     0.000010481415
       3        0.000909533396     0.001216845071     0.000245363976
       4       -0.000006697091     0.000000122679     0.000001405380
       5       -0.000650848628    -0.001083225179    -0.000568791449
       6       -0.000624688125    -0.000702515383    -0.000064369932
       7        0.000321982570     0.000547842261     0.000379425945
       8       -0.000014163782     0.000036315838    -0.000023400958
       9        0.000000672407     0.000003078986     0.000008489677
      10        0.000003067558     0.000005245576    -0.000001724981
      11        0.000006900783    -0.000018364052    -0.000001506226
      12        0.000035801070     0.000008767808     0.000017606302
      13       -0.000005007403    -0.000000906682    -0.000002312701

  **** Optimization is complete! (in 5 steps) ****
    Final optimized geometry and variables:
    Molecular point group: c1

    Geometry (in Angstrom), charge = 0, multiplicity = 1:

    H           -3.725533254604     1.240581346386    -0.260380539414
    C           -3.011280988432     0.636181091717     0.264560586130
    C           -2.089728208666    -0.018369411535    -0.402431394196
    H           -3.076767631569     0.577713359877     1.334773764134
    O           -1.209707959543    -0.855866899359     0.209825269211
    H           -2.005547213335     0.022585042539    -1.475235646503
    C            0.023389780067    -1.055371678810    -0.392732564990
    C            1.019043968225     0.018945533632    -0.016726018611
    H           -0.047966634774    -1.082977543182    -1.474817094116
    H            0.410498033463    -2.000645098414    -0.042277004331
    F            2.192521186023    -0.259394941464    -0.566693859196
    F            0.646702754563     1.211235988815    -0.449351628968
    F            1.190771716696     0.099055637032     1.286845081597

  Mulliken Charges: (a.u.)
   Center  Symbol    Alpha    Beta     Spin     Total
       1     H     0.40689  0.40689  0.00000  0.18621
       2     C     3.23027  3.23027  0.00000 -0.46053
       3     C     2.89917  2.89917  0.00000  0.20166
       4     H     0.40104  0.40104  0.00000  0.19791
       5     O     4.30147  4.30147  0.00000 -0.60295
       6     H     0.40886  0.40886  0.00000  0.18227
       7     C     3.06190  3.06190  0.00000 -0.12379
       8     C     2.45622  2.45622  0.00000  1.08756
       9     H     0.40682  0.40682  0.00000  0.18636
      10     H     0.39089  0.39089  0.00000  0.21821
      11     F     4.68315  4.68315  0.00000 -0.36631
      12     F     4.67850  4.67850  0.00000 -0.35700
      13     F     4.67480  4.67480  0.00000 -0.34961

   Total alpha = 32.00000, Total beta = 32.00000, Total charge =  0.00000
