  ==> Input File <==

--------------------------------------------------------------------------
set {
	reference rhf
	basis 6-31G*
}

set_num_threads( 1 )
memory 2 gb

molecule MOL {
0 1

H	 1.385458	 -1.491931	 -0.452883
O	 1.586534	 -0.678666	 -0.000226
C	 0.489431	 0.077273	 0.000046
C	 -0.764129	 -0.759190	 0.000191
O	 0.537743	 1.263962	 0.000257
C	 -2.038368	 0.075731	 -0.000248
H	 -0.717284	 -1.412404	 -0.866059
H	 -0.717458	 -1.411724	 0.866967
H	 -2.086483	 0.712501	 -0.875098
H	 -2.908485	 -0.571682	 -0.000042
H	 -2.086576	 0.713280	 0.874068

	symmetry c1
}
set optking {
	frozen_dihedral = ("
		2 3 4 7
	")
}

ee = energy('scf')
oeprop('DIPOLE', 'QUADRUPOLE', 'MULLIKEN_CHARGES')
f=open( 'psi4out.xyz', 'w' )
f.write( "11  " )
f.write( str(ee) + "\n" )
f.write( MOL.save_string_xyz() )
f.close()
--------------------------------------------------------------------------

    Molecular point group: c1

    Geometry (in Angstrom), charge = 0, multiplicity = 1:

       Center              X                  Y                   Z               Mass
    ------------   -----------------  -----------------  -----------------  -----------------
           H          1.398502728875    -1.473000916714    -0.446720815901     1.007825032070
           O          1.599578728875    -0.659735916714     0.005936184099    15.994914619560
           C          0.502475728875     0.096203083286     0.006208184099    12.000000000000
           C         -0.751084271125    -0.740259916714     0.006353184099    12.000000000000
           O          0.550787728875     1.282892083286     0.006419184099    15.994914619560
           C         -2.025323271125     0.094661083286     0.005914184099    12.000000000000
           H         -0.704239271125    -1.393473916714    -0.859896815901     1.007825032070
           H         -0.704413271125    -1.392793916714     0.873129184099     1.007825032070
           H         -2.073438271125     0.731431083286    -0.868935815901     1.007825032070
           H         -2.895440271125    -0.552751916714     0.006120184099     1.007825032070
           H         -2.073531271125     0.732210083286     0.880230184099     1.007825032070

  Charge       = 0
  Multiplicity = 1
  Basis Set: 6-31G*
  Basis Set:

    Orbital Energies (a.u.)
    -----------------------

    Doubly Occupied:

       1A    -20.613037     2A    -20.553175     3A    -11.381924
       4A    -11.254951     5A    -11.226767     6A     -1.471653
       7A     -1.372190     8A     -1.071331     9A     -0.910711
      10A     -0.826047    11A     -0.719117    12A     -0.672758
      13A     -0.660403    14A     -0.617105    15A     -0.589341
      16A     -0.536000    17A     -0.526529    18A     -0.513412
      19A     -0.479325    20A     -0.443695

  @DF-RHF Final Energy:  -266.83052759605096

   => Energetics <=

    Nuclear Repulsion Energy =            180.0421209233503816
    One-Electron Energy =                -720.8663401399578561
    Two-Electron Energy =                 273.9936916205558077
    DFT Exchange-Correlation Energy =       0.0000000000000000
    Empirical Dispersion Energy =           0.0000000000000000
    PCM Polarization Energy =               0.0000000000000000
    EFP Energy =                            0.0000000000000000
    Total Energy =                       -266.8305275960516951

  Mulliken Charges: (a.u.)
   Center  Symbol    Alpha    Beta     Spin     Total
       1     H     0.26861  0.26861  0.00000  0.46278
       2     O     4.34827  4.34827  0.00000 -0.69654
       3     C     2.61250  2.61250  0.00000  0.77500
       4     C     3.23168  3.23168  0.00000 -0.46336
       5     O     4.26383  4.26383  0.00000 -0.52766
       6     C     3.23819  3.23819  0.00000 -0.47639
       7     H     0.41090  0.41090  0.00000  0.17819
       8     H     0.39670  0.39670  0.00000  0.20660
       9     H     0.40705  0.40705  0.00000  0.18590
      10     H     0.41698  0.41698  0.00000  0.16604
      11     H     0.40529  0.40529  0.00000  0.18942

   Total alpha = 20.00000, Total beta = 20.00000, Total charge =  0.00000
