  ==> Input File <==

--------------------------------------------------------------------------
set {
	reference rhf
	basis 6-31G*
}

set_num_threads( 1 )
memory 2 gb

molecule MOL {
0 1

O	 3.225979	 0.970355	 -0.599647
C	 2.701189	 0.057885	 -0.047330
C	 1.245376	 -0.013843	 0.345420
O	 3.347903	 -1.046386	 0.304773
C	 0.455112	 1.231400	 -0.050772
H	 0.838542	 -0.913825	 -0.103701
H	 1.208210	 -0.175333	 1.419774
C	 -0.998893	 1.219485	 0.433193
H	 0.482531	 1.345121	 -1.130325
H	 0.957290	 2.103070	 0.354729
C	 -1.883438	 0.145884	 -0.207175
H	 -1.431207	 2.195402	 0.224832
H	 -1.019646	 1.105716	 1.516076
C	 -3.377717	 0.435444	 -0.051339
H	 -1.640976	 0.067415	 -1.265889
H	 -1.667040	 -0.826826	 0.228691
C	 -4.271349	 -0.633505	 -0.682927
H	 -3.605248	 1.402188	 -0.497289
H	 -3.618790	 0.524672	 1.006783
C	 -5.761983	 -0.334897	 -0.526261
H	 -4.031069	 -0.724675	 -1.740091
H	 -4.048438	 -1.599829	 -0.235370
H	 -6.369055	 -1.110015	 -0.983713
H	 -6.023892	 0.609709	 -0.994575
H	 -6.041162	 -0.271599	 0.521750
C	 4.728119	 -1.109107	 -0.004993
H	 4.882018	 -1.033965	 -1.071845
H	 5.068212	 -2.067527	 0.355250
H	 5.265056	 -0.311663	 0.488280

	symmetry c1
}
set optking {
	frozen_dihedral = ("
		21 17 14 11,
		17 14 11 15,
		6 3 5 9,
		11 8 5 9,
		2 4 26 27,
		1 2 4 26,
		6 3 2 1
	")
}

ee = energy('scf')
oeprop('DIPOLE', 'QUADRUPOLE', 'MULLIKEN_CHARGES')
f=open( 'psi4out.xyz', 'w' )
f.write( "29  " )
f.write( str(ee) + "\n" )
f.write( MOL.save_string_xyz() )
f.close()
--------------------------------------------------------------------------

    Molecular point group: c1

    Geometry (in Angstrom), charge = 0, multiplicity = 1:

       Center              X                  Y                   Z               Mass
    ------------   -----------------  -----------------  -----------------  -----------------
           O          3.237183085163     0.900227132964    -0.497552675631    15.994914619560
           C          2.712393085163    -0.012242867036     0.054764324369    12.000000000000
           C          1.256580085163    -0.083970867036     0.447514324369    12.000000000000
           O          3.359107085163    -1.116513867036     0.406867324369    15.994914619560
           C          0.466316085163     1.161272132964     0.051322324369    12.000000000000
           H          0.849746085163    -0.983952867036    -0.001606675631     1.007825032070
           H          1.219414085163    -0.245460867036     1.521868324369     1.007825032070
           C         -0.987688914837     1.149357132964     0.535287324369    12.000000000000
           H          0.493735085163     1.274993132964    -1.028230675631     1.007825032070
           H          0.968494085163     2.032942132964     0.456823324369     1.007825032070
           C         -1.872233914837     0.075756132964    -0.105080675631    12.000000000000
           H         -1.420002914837     2.125274132964     0.326926324369     1.007825032070
           H         -1.008441914837     1.035588132964     1.618170324369     1.007825032070
           C         -3.366512914837     0.365316132964     0.050755324369    12.000000000000
           H         -1.629771914837    -0.002712867036    -1.163794675631     1.007825032070
           H         -1.655835914837    -0.896953867036     0.330785324369     1.007825032070
           C         -4.260144914837    -0.703632867036    -0.580832675631    12.000000000000
           H         -3.594043914837     1.332060132964    -0.395194675631     1.007825032070
           H         -3.607585914837     0.454544132964     1.108877324369     1.007825032070
           C         -5.750778914837    -0.405024867036    -0.424166675631    12.000000000000
           H         -4.019864914837    -0.794802867036    -1.637996675631     1.007825032070
           H         -4.037233914837    -1.669956867036    -0.133275675631     1.007825032070
           H         -6.357850914837    -1.180142867036    -0.881618675631     1.007825032070
           H         -6.012687914837     0.539581132964    -0.892480675631     1.007825032070
           H         -6.029957914837    -0.341726867036     0.623844324369     1.007825032070
           C          4.739323085163    -1.179234867036     0.097101324369    12.000000000000
           H          4.893222085163    -1.104092867036    -0.969750675631     1.007825032070
           H          5.079416085163    -2.137654867036     0.457344324369     1.007825032070
           H          5.276260085163    -0.381790867036     0.590374324369     1.007825032070

  Charge       = 0
  Multiplicity = 1
  Basis Set: 6-31G*
  Basis Set:

    Orbital Energies (a.u.)
    -----------------------

    Doubly Occupied:

       1A    -20.603376     2A    -20.545235     3A    -11.371993
       4A    -11.280662     5A    -11.234757     6A    -11.219065
       7A    -11.217300     8A    -11.215796     9A    -11.215661
      10A    -11.214455    11A    -11.208965    12A     -1.469071
      13A     -1.362523    14A     -1.097994    15A     -1.066761
      16A     -1.019461    17A     -0.977178    18A     -0.928355
      19A     -0.861617    20A     -0.799429    21A     -0.790428
      22A     -0.763739    23A     -0.700168    24A     -0.682424
      25A     -0.672111    26A     -0.651541    27A     -0.628322
      28A     -0.605024    29A     -0.593931    30A     -0.581060
      31A     -0.566793    32A     -0.549626    33A     -0.531468
      34A     -0.530159    35A     -0.516620    36A     -0.512549
      37A     -0.494934    38A     -0.477885    39A     -0.470437
      40A     -0.461286    41A     -0.459186    42A     -0.455943
      43A     -0.441390    44A     -0.434973

  @DF-RHF Final Energy:  -501.04343432670998

   => Energetics <=

    Nuclear Repulsion Energy =            609.8126420880430487
    One-Electron Energy =               -1890.7493476448660203
    Two-Electron Energy =                 779.8932712301136689
    DFT Exchange-Correlation Energy =       0.0000000000000000
    Empirical Dispersion Energy =           0.0000000000000000
    PCM Polarization Energy =               0.0000000000000000
    EFP Energy =                            0.0000000000000000
    Total Energy =                       -501.0434343267093027

  Mulliken Charges: (a.u.)
   Center  Symbol    Alpha    Beta     Spin     Total
       1     O     4.28596  4.28596  0.00000 -0.57193
       2     C     2.60513  2.60513  0.00000  0.78974
       3     C     3.20929  3.20929  0.00000 -0.41859
       4     O     4.30747  4.30747  0.00000 -0.61494
       5     C     3.15427  3.15427  0.00000 -0.30854
       6     H     0.39853  0.39853  0.00000  0.20293
       7     H     0.40127  0.40127  0.00000  0.19745
       8     C     3.15704  3.15704  0.00000 -0.31408
       9     H     0.41300  0.41300  0.00000  0.17399
      10     H     0.40903  0.40903  0.00000  0.18193
      11     C     3.15506  3.15506  0.00000 -0.31012
      12     H     0.41802  0.41802  0.00000  0.16395
      13     H     0.42316  0.42316  0.00000  0.15369
      14     C     3.15098  3.15098  0.00000 -0.30196
      15     H     0.42296  0.42296  0.00000  0.15409
      16     H     0.42302  0.42302  0.00000  0.15396
      17     C     3.15159  3.15159  0.00000 -0.30317
      18     H     0.42311  0.42311  0.00000  0.15378
      19     H     0.42376  0.42376  0.00000  0.15247
      20     C     3.23936  3.23936  0.00000 -0.47872
      21     H     0.42283  0.42283  0.00000  0.15434
      22     H     0.42341  0.42341  0.00000  0.15317
      23     H     0.41925  0.41925  0.00000  0.16151
      24     H     0.42155  0.42155  0.00000  0.15690
      25     H     0.42180  0.42180  0.00000  0.15639
      26     C     3.09240  3.09240  0.00000 -0.18480
      27     H     0.40909  0.40909  0.00000  0.18182
      28     H     0.40852  0.40852  0.00000  0.18297
      29     H     0.40913  0.40913  0.00000  0.18174

   Total alpha = 44.00000, Total beta = 44.00000, Total charge =  0.00000
