                              Psi4 1.0.54 Driver

  ==> Input File <==

--------------------------------------------------------------------------
set {
	reference rhf
	basis cc-pvtz
}

set_num_threads( 4 )
memory 2 gb

molecule MOL {
0 1

H	 1.134428	 -0.024332	 1.359926
C	 1.114652	 -0.021444	 0.261546
C	 0.062554	 0.862911	 -0.350953
O	 1.889045	 -0.676048	 -0.345878
C	 -1.339253	 0.577611	 0.196911
H	 0.099615	 0.748449	 -1.426601
H	 0.338114	 1.887736	 -0.112469
C	 -1.813142	 -0.849710	 -0.061612
H	 -2.032833	 1.276441	 -0.256032
H	 -1.357249	 0.782269	 1.263793
H	 -1.839268	 -1.063526	 -1.124230
H	 -2.810118	 -1.001930	 0.334000
H	 -1.159274	 -1.579980	 0.402282

	symmetry c1
}
set optking {
	frozen_dihedral = ("
		6 3 5 9
	")
}

ee,wfn = optimize('scf', return_wfn=True)
oeprop( wfn, 'DIPOLE', 'QUADRUPOLE', 'MULLIKEN_CHARGES')
f=open( 'psi4out.xyz', 'w' )
f.write( "13  " )
f.write( str(ee) + "\n" )
f.write( MOL.save_string_xyz() )
f.close()
--------------------------------------------------------------------------

    Molecular point group: c1
  Charge       = 0
  Multiplicity = 1
  Basis Set: CC-PVTZ
  Basis Set:
  @DF-RHF Final Energy:  -231.07056003595366
    Total Energy =                       -231.0705600359536334
    Molecular point group: c1
  Basis Set: CC-PVTZ
  Basis Set:
  Basis Set: CC-PVTZ
  Basis Set:
  @DF-RHF Final Energy:  -231.07058113024425
    Total Energy =                       -231.0705811302443067
  Basis Set: CC-PVTZ
  Basis Set:
  Basis Set: CC-PVTZ
  Basis Set:
  @DF-RHF Final Energy:  -231.07015530372203
    Total Energy =                       -231.0701553037221174
  Basis Set: CC-PVTZ
  Basis Set:
  Basis Set: CC-PVTZ
  Basis Set:
  @DF-RHF Final Energy:  -231.07060061178265
    Total Energy =                       -231.0706006117827087
  Basis Set: CC-PVTZ
  Basis Set:
  Basis Set: CC-PVTZ
  Basis Set:
  @DF-RHF Final Energy:  -231.07060428108295
    Total Energy =                       -231.0706042810831207
  Basis Set: CC-PVTZ
  Basis Set:
  Charge       = 0
  Multiplicity = 1
  Basis Set: CC-PVTZ
  Basis Set:

    Orbital Energies (a.u.)
    -----------------------

    Doubly Occupied:

       1A    -20.552379     2A    -11.321979     3A    -11.236970
       4A    -11.234807     5A    -11.219725     6A     -1.407368
       7A     -1.088084     8A     -0.974049     9A     -0.849443
      10A     -0.788762    11A     -0.668477    12A     -0.651418
      13A     -0.629926    14A     -0.597639    15A     -0.559948
      16A     -0.535871    17A     -0.508968    18A     -0.493130
      19A     -0.483983    20A     -0.412959

  @DF-RHF Final Energy:  -231.07060459604770

   => Energetics <=

    Nuclear Repulsion Energy =            174.2244424817640720
    One-Electron Energy =                -658.1583231040868895
    Two-Electron Energy =                 252.8632760262751731
    DFT Exchange-Correlation Energy =       0.0000000000000000
    Empirical Dispersion Energy =           0.0000000000000000
    PCM Polarization Energy =               0.0000000000000000
    EFP Energy =                            0.0000000000000000
    Total Energy =                       -231.0706045960476445
    Molecular point group: c1
  Basis Set: CC-PVTZ
  Basis Set:

  -Total Gradient:
     Atom            X                  Y                   Z
    ------   -----------------  -----------------  -----------------
       1       -0.000004309101     0.000004110527    -0.000027199282
       2       -0.000014345615     0.000022607720    -0.000026323193
       3        0.000430776453    -0.001862671849    -0.000005269771
       4       -0.000010621144    -0.000016235597     0.000013735560
       5        0.000146391932     0.001408273543     0.001163904705
       6       -0.000333105176     0.001323224262    -0.000141102941
       7       -0.000012970090     0.000002257477     0.000016810078
       8        0.000017071548    -0.000018443365     0.000030034871
       9       -0.000229688938    -0.000861952586    -0.001001442824
      10        0.000010072789    -0.000007210518    -0.000021630849
      11        0.000006172641     0.000007348201     0.000007488390
      12        0.000001017465     0.000006450132    -0.000002736078
      13       -0.000006462768    -0.000007757948    -0.000006268664

  **** Optimization is complete! (in 6 steps) ****
    Final optimized geometry and variables:
    Molecular point group: c1

    Geometry (in Angstrom), charge = 0, multiplicity = 1:

    H            1.154630679407     0.023925737780     1.422958468660
    C            1.136471485749     0.023888424406     0.324604894375
    C            0.073841155727     0.891711051211    -0.291411348392
    O            1.922521524812    -0.619315903058    -0.280036011000
    C           -1.325094221162     0.610614822732     0.265903176746
    H            0.103449008189     0.775229662654    -1.367028278834
    H            0.344255255530     1.921181715359    -0.065469643151
    C           -1.812082150096    -0.811129304936    -0.002932283337
    H           -2.016470615529     1.312162677134    -0.186235943079
    H           -1.337605080343     0.807497235867     1.333752922859
    H           -1.829233962713    -1.020893917933    -1.066583393104
    H           -2.814998988457    -0.952836604884     0.381343011419
    H           -1.173001707003    -1.551668208819     0.465258324891

  Mulliken Charges: (a.u.)
   Center  Symbol    Alpha    Beta     Spin     Total
       1     H     0.46406  0.46406  0.00000  0.07189
       2     C     2.90585  2.90585  0.00000  0.18830
       3     C     3.08805  3.08805  0.00000 -0.17609
       4     O     4.16482  4.16482  0.00000 -0.32964
       5     C     3.10359  3.10359  0.00000 -0.20718
       6     H     0.44228  0.44228  0.00000  0.11545
       7     H     0.44330  0.44330  0.00000  0.11339
       8     C     3.14440  3.14440  0.00000 -0.28880
       9     H     0.44379  0.44379  0.00000  0.11242
      10     H     0.45029  0.45029  0.00000  0.09941
      11     H     0.45035  0.45035  0.00000  0.09931
      12     H     0.44680  0.44680  0.00000  0.10641
      13     H     0.45244  0.45244  0.00000  0.09512

   Total alpha = 20.00000, Total beta = 20.00000, Total charge =  0.00000

*** Psi4 exiting successfully. Buy a developer a beer!
