  ==> Input File <==

--------------------------------------------------------------------------
set {
	reference rhf
	basis 6-31G*
}

set_num_threads( 1 )
memory 2 gb

molecule MOL {
0 1

H	 2.556795	 0.233191	 -1.081261
O	 1.703527	 -0.185944	 -1.136454
C	 1.050492	 0.053836	 0.000068
C	 -0.318135	 -0.576402	 0.000164
O	 1.527515	 0.692347	 0.880833
C	 -1.454360	 0.441875	 -0.000474
H	 -0.374042	 -1.230163	 -0.866135
H	 -0.374274	 -1.229227	 0.867154
C	 -2.826123	 -0.230780	 0.000056
H	 -1.357605	 1.085198	 -0.868380
H	 -1.357504	 1.086451	 0.866496
H	 -2.959731	 -0.858053	 -0.876869
H	 -3.619374	 0.509403	 -0.000080
H	 -2.959371	 -0.857318	 0.877556

	symmetry c1
}
set optking {
	frozen_dihedral = ("
		7 4 6 10,
		1 2 3 5
	")
}

ee = energy('scf')
oeprop('DIPOLE', 'QUADRUPOLE', 'MULLIKEN_CHARGES')
f=open( 'psi4out.xyz', 'w' )
f.write( "14  " )
f.write( str(ee) + "\n" )
f.write( MOL.save_string_xyz() )
f.close()
--------------------------------------------------------------------------

    Molecular point group: c1

    Geometry (in Angstrom), charge = 0, multiplicity = 1:

       Center              X                  Y                   Z               Mass
    ------------   -----------------  -----------------  -----------------  -----------------
           H          2.572968436387     0.198077384487    -1.022422759869     1.007825032070
           O          1.719700436387    -0.221057615513    -1.077615759869    15.994914619560
           C          1.066665436387     0.018722384487     0.058906240131    12.000000000000
           C         -0.301961563613    -0.611515615513     0.059002240131    12.000000000000
           O          1.543688436387     0.657233384487     0.939671240131    15.994914619560
           C         -1.438186563613     0.406761384487     0.058364240131    12.000000000000
           H         -0.357868563613    -1.265276615513    -0.807296759869     1.007825032070
           H         -0.358100563613    -1.264340615513     0.925992240131     1.007825032070
           C         -2.809949563613    -0.265893615513     0.058894240131    12.000000000000
           H         -1.341431563613     1.050084384487    -0.809541759869     1.007825032070
           H         -1.341330563613     1.051337384487     0.925334240131     1.007825032070
           H         -2.943557563613    -0.893166615513    -0.818030759869     1.007825032070
           H         -3.603200563613     0.474289384487     0.058758240131     1.007825032070
           H         -2.943197563613    -0.892431615513     0.936394240131     1.007825032070

  Charge       = 0
  Multiplicity = 1
  Basis Set: 6-31G*
  Basis Set:

    Orbital Energies (a.u.)
    -----------------------

    Doubly Occupied:

       1A    -20.614045     2A    -20.549803     3A    -11.380861
       4A    -11.239262     5A    -11.234247     6A    -11.220865
       7A     -1.474676     8A     -1.365068     9A     -1.086399
      10A     -0.980392    11A     -0.856328    12A     -0.802601
      13A     -0.702503    14A     -0.685725    15A     -0.648065
      16A     -0.629272    17A     -0.594737    18A     -0.570915
      19A     -0.548646    20A     -0.515279    21A     -0.498768
      22A     -0.487097    23A     -0.472111    24A     -0.440032

  @DF-RHF Final Energy:  -305.87837003349466

   => Energetics <=

    Nuclear Repulsion Energy =            239.8047916554011181
    One-Electron Energy =                -892.1708134932904386
    Two-Electron Energy =                 346.4876518043947158
    DFT Exchange-Correlation Energy =       0.0000000000000000
    Empirical Dispersion Energy =           0.0000000000000000
    PCM Polarization Energy =               0.0000000000000000
    EFP Energy =                            0.0000000000000000
    Total Energy =                       -305.8783700334946047

  Mulliken Charges: (a.u.)
   Center  Symbol    Alpha    Beta     Spin     Total
       1     H     0.26862  0.26862  0.00000  0.46277
       2     O     4.34745  4.34745  0.00000 -0.69490
       3     C     2.62872  2.62872  0.00000  0.74255
       4     C     3.20438  3.20438  0.00000 -0.40876
       5     O     4.27876  4.27876  0.00000 -0.55752
       6     C     3.16129  3.16129  0.00000 -0.32258
       7     H     0.39989  0.39989  0.00000  0.20023
       8     H     0.39960  0.39960  0.00000  0.20081
       9     C     3.24217  3.24217  0.00000 -0.48434
      10     H     0.41338  0.41338  0.00000  0.17324
      11     H     0.40468  0.40468  0.00000  0.19064
      12     H     0.41877  0.41877  0.00000  0.16246
      13     H     0.41420  0.41420  0.00000  0.17160
      14     H     0.41810  0.41810  0.00000  0.16380

   Total alpha = 24.00000, Total beta = 24.00000, Total charge =  0.00000
