                              Psi4 1.0.54 Driver

  ==> Input File <==

--------------------------------------------------------------------------
set {
	reference rhf
	basis cc-pvtz
}

set_num_threads( 4 )
memory 2 gb

molecule MOL {
0 1

H	 2.238528	 -0.950395	 -0.422729
O	 2.063695	 -0.083403	 -0.105237
C	 0.742924	 0.005675	 0.350750
H	 0.731380	 0.039219	 1.440080
C	 -0.064076	 -1.193495	 -0.124425
C	 -0.047832	 1.190568	 -0.194462
H	 0.194729	 -1.376165	 -1.161308
H	 0.163013	 -2.094508	 0.429933
C	 -1.533112	 -0.752002	 0.006102
H	 0.148003	 1.266545	 -1.259275
H	 0.226235	 2.136493	 0.259722
C	 -1.506634	 0.799189	 0.067162
H	 -2.124360	 -1.110499	 -0.826089
H	 -1.983103	 -1.158030	 0.903403
H	 -2.183808	 1.252169	 -0.644677
H	 -1.813926	 1.138698	 1.049457

	symmetry c1
}
set optking {
	frozen_dihedral = ("
		1 2 3 6
	")
}

ee,wfn = optimize('scf', return_wfn=True)
oeprop( wfn, 'DIPOLE', 'QUADRUPOLE', 'MULLIKEN_CHARGES')
f=open( 'psi4out.xyz', 'w' )
f.write( "16  " )
f.write( str(ee) + "\n" )
f.write( MOL.save_string_xyz() )
f.close()
--------------------------------------------------------------------------

    Molecular point group: c1
  Charge       = 0
  Multiplicity = 1
  Basis Set: CC-PVTZ
  Basis Set:
  @DF-RHF Final Energy:  -270.11341697756961
    Total Energy =                       -270.1134169775696137
    Molecular point group: c1
  Basis Set: CC-PVTZ
  Basis Set:
  Basis Set: CC-PVTZ
  Basis Set:
  @DF-RHF Final Energy:  -270.11405929580354
    Total Energy =                       -270.1140592958035427
  Basis Set: CC-PVTZ
  Basis Set:
  Basis Set: CC-PVTZ
  Basis Set:
  @DF-RHF Final Energy:  -270.11485861161532
    Total Energy =                       -270.1148586116152046
  Basis Set: CC-PVTZ
  Basis Set:
  Basis Set: CC-PVTZ
  Basis Set:
  @DF-RHF Final Energy:  -270.11487241116976
    Total Energy =                       -270.1148724111696424
  Basis Set: CC-PVTZ
  Basis Set:
  Charge       = 0
  Multiplicity = 1
  Basis Set: CC-PVTZ
  Basis Set:

    Orbital Energies (a.u.)
    -----------------------

    Doubly Occupied:

       1A    -20.543497     2A    -11.267240     3A    -11.218369
       4A    -11.217595     5A    -11.214804     6A    -11.206967
       7A     -1.363934     8A     -1.117101     9A     -0.969666
      10A     -0.950016    11A     -0.798871    12A     -0.782431
      13A     -0.685287    14A     -0.666835    15A     -0.613665
      16A     -0.601455    17A     -0.575986    18A     -0.531442
      19A     -0.502735    20A     -0.484669    21A     -0.473266
      22A     -0.459025    23A     -0.447265    24A     -0.424027

  @DF-RHF Final Energy:  -270.11487336784000

   => Energetics <=

    Nuclear Repulsion Energy =            255.6308034746090527
    One-Electron Energy =                -873.2590557516953140
    Two-Electron Energy =                 347.5133789092462280
    DFT Exchange-Correlation Energy =       0.0000000000000000
    Empirical Dispersion Energy =           0.0000000000000000
    PCM Polarization Energy =               0.0000000000000000
    EFP Energy =                            0.0000000000000000
    Total Energy =                       -270.1148733678400617
    Molecular point group: c1
  Basis Set: CC-PVTZ
  Basis Set:

  -Total Gradient:
     Atom            X                  Y                   Z
    ------   -----------------  -----------------  -----------------
       1       -0.000236512448     0.000340032510    -0.000924946750
       2        0.000269956214    -0.000597729738     0.000881500414
       3        0.000026706170     0.000593488923     0.000654591986
       4        0.000006948570    -0.000019654728     0.000008267915
       5        0.000078303412     0.000025841371    -0.000070702936
       6       -0.000087885762    -0.000325785886    -0.000596660910
       7        0.000014534583    -0.000029925197    -0.000005404283
       8        0.000009781133     0.000028200004    -0.000001717344
       9       -0.000021824281     0.000019819511     0.000060331088
      10        0.000021305606     0.000002479517    -0.000015556746
      11        0.000014312003    -0.000009268474    -0.000002003073
      12       -0.000036432868    -0.000015538648     0.000016519417
      13        0.000002249157    -0.000004546384    -0.000017673796
      14       -0.000041580742     0.000004912872    -0.000019108123
      15       -0.000013285874    -0.000012408705     0.000014708433
      16       -0.000006574870     0.000000083050     0.000017854706

  **** Optimization is complete! (in 5 steps) ****
    Final optimized geometry and variables:
    Molecular point group: c1

    Geometry (in Angstrom), charge = 0, multiplicity = 1:

    H            2.390065606266    -0.662825960540    -0.329241869367
    O            2.079004023541     0.132614417524     0.059571191464
    C            0.721102600213     0.021232439312     0.390920570715
    H            0.637160013104    -0.020029916520     1.475146789635
    C            0.006921593630    -1.185839702885    -0.210682859403
    C           -0.102541320397     1.191805286691    -0.126418521107
    H            0.312096774688    -1.281031767025    -1.249507340641
    H            0.252980950796    -2.115165779566     0.289480224745
    C           -1.489300715323    -0.832937902071    -0.123804809211
    H            0.142533165092     1.343630998072    -1.172710401503
    H            0.103619623448     2.116999317196     0.396076402112
    C           -1.548552602974     0.710324715836     0.035278191076
    H           -2.020808523201    -1.168567112583    -1.004409428926
    H           -1.953205506792    -1.321402586194     0.723624622672
    H           -2.215499188622     1.171927778359    -0.680557673798
    H           -1.920563855965     0.967869987848     1.019916035206

  Mulliken Charges: (a.u.)
   Center  Symbol    Alpha    Beta     Spin     Total
       1     H     0.39101  0.39101  0.00000  0.21798
       2     O     4.20776  4.20776  0.00000 -0.41551
       3     C     2.92349  2.92349  0.00000  0.15302
       4     H     0.45933  0.45933  0.00000  0.08133
       5     C     3.11963  3.11963  0.00000 -0.23926
       6     C     3.09075  3.09075  0.00000 -0.18150
       7     H     0.45611  0.45611  0.00000  0.08779
       8     H     0.44174  0.44174  0.00000  0.11651
       9     C     3.10970  3.10970  0.00000 -0.21940
      10     H     0.45715  0.45715  0.00000  0.08570
      11     H     0.44389  0.44389  0.00000  0.11222
      12     C     3.11436  3.11436  0.00000 -0.22871
      13     H     0.44504  0.44504  0.00000  0.10991
      14     H     0.44700  0.44700  0.00000  0.10601
      15     H     0.44335  0.44335  0.00000  0.11331
      16     H     0.44970  0.44970  0.00000  0.10061

   Total alpha = 24.00000, Total beta = 24.00000, Total charge =  0.00000

*** Psi4 exiting successfully. Buy a developer a beer!
