  ==> Input File <==

--------------------------------------------------------------------------
set {
	reference rhf
	basis 6-31G*
}

set_num_threads( 4 )
memory 2 gb

molecule MOL {
0 1

H	 -2.098997	 -0.674324	 -0.616650
O	 -2.035884	 -0.060112	 0.102722
C	 -0.955155	 0.788182	 -0.092531
C	 0.353668	 0.040312	 -0.004810
H	 -0.985057	 1.290372	 -1.054184
H	 -0.974469	 1.533190	 0.688632
F	 1.342081	 0.864796	 0.323577
F	 0.288525	 -0.899033	 0.925021
F	 0.681891	 -0.537488	 -1.142337

	symmetry c1
}
set optking {
	frozen_dihedral = ("
		7 4 3 5
	")
}

ee = optimize('scf')
oeprop('DIPOLE', 'QUADRUPOLE', 'MULLIKEN_CHARGES')
f=open( 'psi4out.xyz', 'w' )
f.write( "9  " )
f.write( str(ee) + "\n" )
f.write( MOL.save_string_xyz() )
f.close()
--------------------------------------------------------------------------

    Molecular point group: c1
  Charge       = 0
  Multiplicity = 1
  Basis Set: 6-31G*
  Basis Set:
  @DF-RHF Final Energy:  -450.65923948650021
    Total Energy =                       -450.6592394865003826
    Molecular point group: c1
  Basis Set: 6-31G*
  Basis Set:
  Basis Set: 6-31G*
  Basis Set:
  @DF-RHF Final Energy:  -450.65966582144699
    Total Energy =                       -450.6596658214471063
  Basis Set: 6-31G*
  Basis Set:
  Basis Set: 6-31G*
  Basis Set:
  @DF-RHF Final Energy:  -450.65978555737991
    Total Energy =                       -450.6597855573801326
  Basis Set: 6-31G*
  Basis Set:
  Basis Set: 6-31G*
  Basis Set:
  @DF-RHF Final Energy:  -450.65979531583997
    Total Energy =                       -450.6597953158399150
  Basis Set: 6-31G*
  Basis Set:
  Charge       = 0
  Multiplicity = 1
  Basis Set: 6-31G*
  Basis Set:

    Orbital Energies (a.u.)
    -----------------------

    Doubly Occupied:

       1A    -26.342759     2A    -26.341283     3A    -26.336472
       4A    -20.589697     5A    -11.499281     6A    -11.310059
       7A     -1.738792     8A     -1.637979     9A     -1.634103
      10A     -1.401094    11A     -1.045775    12A     -0.922808
      13A     -0.829567    14A     -0.826073    15A     -0.802741
      16A     -0.728687    17A     -0.711366    18A     -0.695764
      19A     -0.663706    20A     -0.656375    21A     -0.640511
      22A     -0.628306    23A     -0.610056    24A     -0.530700
      25A     -0.479873

  @DF-RHF Final Energy:  -450.65979642741445

   => Energetics <=

    Nuclear Repulsion Energy =            276.5671170496246987
    One-Electron Energy =               -1175.2461681560878333
    Two-Electron Energy =                 448.0192546790490269
    DFT Exchange-Correlation Energy =       0.0000000000000000
    Empirical Dispersion Energy =           0.0000000000000000
    PCM Polarization Energy =               0.0000000000000000
    EFP Energy =                            0.0000000000000000
    Total Energy =                       -450.6597964274141077
    Molecular point group: c1
  Basis Set: 6-31G*
  Basis Set:

  -Total Gradient:
     Atom            X                  Y                   Z
    ------   -----------------  -----------------  -----------------
       1       -0.000012295493    -0.000022201684    -0.000000378734
       2       -0.000042259446    -0.000012777814    -0.000009765026
       3        0.002806705069     0.005474151778     0.004111774031
       4        0.000505733996     0.000052438403    -0.006502329034
       5       -0.002480044707    -0.004683641112    -0.002195473316
       6        0.000003948613    -0.000019790658    -0.000009977928
       7       -0.000760402688    -0.000797371542     0.004598174204
       8       -0.000036135645    -0.000020081533     0.000013638302
       9        0.000014750295     0.000029274160    -0.000005662498

  **** Optimization is complete! (in 5 steps) ****
    Final optimized geometry and variables:
    Molecular point group: c1

    Geometry (in Angstrom), charge = 0, multiplicity = 1:

    H           -2.141406539296    -0.640327745044    -0.673396668448
    O           -2.049926960350    -0.064858187710     0.074264419805
    C           -0.962711386354     0.783878709263    -0.100977039848
    C            0.355495711949     0.038127482056    -0.007114861991
    H           -0.998376542786     1.263597152296    -1.073188366911
    H           -0.995870391749     1.525300396999     0.681459737012
    F            1.338454329764     0.871848298039     0.294708808387
    F            0.331314735559    -0.895544182527     0.922313931452
    F            0.659006115055    -0.554881979310    -1.154769628772

  Mulliken Charges: (a.u.)
   Center  Symbol    Alpha    Beta     Spin     Total
       1     H     0.27402  0.27402  0.00000  0.45197
       2     O     4.36016  4.36016  0.00000 -0.72031
       3     C     3.05719  3.05719  0.00000 -0.11439
       4     C     2.46508  2.46508  0.00000  1.06983
       5     H     0.40846  0.40846  0.00000  0.18308
       6     H     0.39401  0.39401  0.00000  0.21199
       7     F     4.68228  4.68228  0.00000 -0.36456
       8     F     4.67472  4.67472  0.00000 -0.34944
       9     F     4.68408  4.68408  0.00000 -0.36817

   Total alpha = 25.00000, Total beta = 25.00000, Total charge =  0.00000
