  ==> Input File <==

--------------------------------------------------------------------------
set {
	reference rhf
	basis cc-pvtz
}

set_num_threads( 4 )
memory 2 gb

molecule MOL {
0 1

H	 -2.249742	 -0.523525	 -0.688013
O	 -2.041679	 -0.058866	 0.103463
C	 -0.959304	 0.780994	 -0.094939
C	 0.354905	 0.037902	 -0.006215
H	 -0.985899	 1.279578	 -1.057596
H	 -0.969809	 1.529522	 0.682889
F	 0.412060	 -0.931028	 -0.902708
F	 1.359641	 0.856111	 -0.239961
F	 0.545380	 -0.506387	 1.171682

	symmetry c1
}
set optking {
	frozen_dihedral = ("
		1 2 3 5
	")
}

ee = optimize('scf')
oeprop('DIPOLE', 'QUADRUPOLE', 'MULLIKEN_CHARGES')
f=open( 'psi4out.xyz', 'w' )
f.write( "9  " )
f.write( str(ee) + "\n" )
f.write( MOL.save_string_xyz() )
f.close()
--------------------------------------------------------------------------

    Molecular point group: c1
  Charge       = 0
  Multiplicity = 1
  Basis Set: CC-PVTZ
  Basis Set:
  @DF-RHF Final Energy:  -450.84697094720661
    Total Energy =                       -450.8469709472067279
    Molecular point group: c1
  Basis Set: CC-PVTZ
  Basis Set:
  Basis Set: CC-PVTZ
  Basis Set:
  @DF-RHF Final Energy:  -450.84699985804878
    Total Energy =                       -450.8469998580486617
  Basis Set: CC-PVTZ
  Basis Set:
  Basis Set: CC-PVTZ
  Basis Set:
  @DF-RHF Final Energy:  -450.84700618752828
    Total Energy =                       -450.8470061875284500
  Basis Set: CC-PVTZ
  Basis Set:
  Charge       = 0
  Multiplicity = 1
  Basis Set: CC-PVTZ
  Basis Set:

    Orbital Energies (a.u.)
    -----------------------

    Doubly Occupied:

       1A    -26.337623     2A    -26.337175     3A    -26.333748
       4A    -20.583894     5A    -11.491566     6A    -11.310268
       7A     -1.745714     8A     -1.642710     9A     -1.640887
      10A     -1.407380    11A     -1.050027    12A     -0.928227
      13A     -0.836081    14A     -0.834433    15A     -0.806879
      16A     -0.735247    17A     -0.716891    18A     -0.704646
      19A     -0.670348    20A     -0.663540    21A     -0.647248
      22A     -0.633773    23A     -0.613483    24A     -0.536039
      25A     -0.484324

  @DF-RHF Final Energy:  -450.84700655809866

   => Energetics <=

    Nuclear Repulsion Energy =            277.5930027743777373
    One-Electron Energy =               -1177.4957149277356621
    Two-Electron Energy =                 449.0557055952591554
    DFT Exchange-Correlation Energy =       0.0000000000000000
    Empirical Dispersion Energy =           0.0000000000000000
    PCM Polarization Energy =               0.0000000000000000
    EFP Energy =                            0.0000000000000000
    Total Energy =                       -450.8470065580987693
    Molecular point group: c1
  Basis Set: CC-PVTZ
  Basis Set:

  -Total Gradient:
     Atom            X                  Y                   Z
    ------   -----------------  -----------------  -----------------
       1       -0.000802226659     0.000960983646    -0.000352105158
       2        0.001209883315    -0.001424785041     0.000292125348
       3       -0.001001805554     0.001364707714     0.000533932473
       4        0.000095548247     0.000053155064     0.000003549787
       5        0.000588292923    -0.000883006850    -0.000452491755
       6       -0.000013048789     0.000004498326    -0.000001795661
       7       -0.000018061125    -0.000080227742    -0.000104929770
       8       -0.000063468565    -0.000036081494     0.000050093613
       9        0.000004886211     0.000040756382     0.000031621121

  **** Optimization is complete! (in 4 steps) ****
    Final optimized geometry and variables:
    Molecular point group: c1

    Geometry (in Angstrom), charge = 0, multiplicity = 1:

    H           -2.240593243177    -0.534751509257    -0.674804954400
    O           -2.036776666987    -0.059095516626     0.110209605454
    C           -0.957089441997     0.783288619273    -0.095076142634
    C            0.354766669637     0.034816478613    -0.007259330752
    H           -0.981289216217     1.269927578490    -1.063344451646
    H           -0.960992089050     1.538134134052     0.676907900085
    F            0.417701544488    -0.923282531946    -0.913055643837
    F            1.362136033882     0.855669992537    -0.225723921463
    F            0.537280724300    -0.519970123656     1.166928152294

  Mulliken Charges: (a.u.)
   Center  Symbol    Alpha    Beta     Spin     Total
       1     H     0.38627  0.38627  0.00000  0.22746
       2     O     4.19228  4.19228  0.00000 -0.38457
       3     C     2.99354  2.99354  0.00000  0.01292
       4     C     2.68198  2.68198  0.00000  0.63604
       5     H     0.46113  0.46113  0.00000  0.07775
       6     H     0.44729  0.44729  0.00000  0.10543
       7     F     4.61659  4.61659  0.00000 -0.23318
       8     F     4.61324  4.61324  0.00000 -0.22648
       9     F     4.60768  4.60768  0.00000 -0.21536

   Total alpha = 25.00000, Total beta = 25.00000, Total charge = -0.00000
