  ==> Input File <==

--------------------------------------------------------------------------
set {
	reference rhf
	basis 6-31G*
}

set_num_threads( 1 )
memory 2 gb

molecule MOL {
0 1

O	 -2.439739	 -0.935931	 -0.423848
C	 -1.921153	 0.064240	 -0.045697
C	 -2.624470	 1.379923	 0.150949
O	 -0.632575	 0.154573	 0.251549
H	 -2.168117	 2.136577	 -0.476876
H	 -3.669540	 1.273223	 -0.098610
H	 -2.519365	 1.700893	 1.180846
C	 0.160891	 -1.019931	 0.106212
C	 1.589627	 -0.672828	 0.480843
H	 0.089836	 -1.367806	 -0.916050
H	 -0.238459	 -1.792301	 0.749618
C	 1.793419	 -0.407574	 1.973662
H	 1.871368	 0.210430	 -0.088727
H	 2.243510	 -1.477335	 0.154557
C	 3.236466	 -0.035148	 2.311175
H	 1.129606	 0.394966	 2.288910
H	 1.503707	 -1.288205	 2.537502
H	 3.355231	 0.146890	 3.374561
H	 3.544606	 0.864163	 1.785279
H	 3.921745	 -0.831043	 2.033647

	symmetry c1
}
set optking {
	frozen_dihedral = ("
		16 12 9 8,
		2 4 8 10,
		1 2 4 8
	")
}

ee = energy('scf')
oeprop('DIPOLE', 'QUADRUPOLE', 'MULLIKEN_CHARGES')
f=open( 'psi4out.xyz', 'w' )
f.write( "20  " )
f.write( str(ee) + "\n" )
f.write( MOL.save_string_xyz() )
f.close()
--------------------------------------------------------------------------

    Molecular point group: c1

    Geometry (in Angstrom), charge = 0, multiplicity = 1:

       Center              X                  Y                   Z               Mass
    ------------   -----------------  -----------------  -----------------  -----------------
           O         -2.326122862192    -0.756548843872    -1.023350473552    15.994914619560
           C         -1.807536862192     0.243622156128    -0.645199473552    12.000000000000
           C         -2.510853862192     1.559305156128    -0.448553473552    12.000000000000
           O         -0.518958862192     0.333955156128    -0.347953473552    15.994914619560
           H         -2.054500862192     2.315959156128    -1.076378473552     1.007825032070
           H         -3.555923862192     1.452605156128    -0.698112473552     1.007825032070
           H         -2.405748862192     1.880275156128     0.581343526448     1.007825032070
           C          0.274507137808    -0.840548843872    -0.493290473552    12.000000000000
           C          1.703243137808    -0.493445843872    -0.118659473552    12.000000000000
           H          0.203452137808    -1.188423843872    -1.515552473552     1.007825032070
           H         -0.124842862192    -1.612918843872     0.150115526448     1.007825032070
           C          1.907035137808    -0.228191843872     1.374159526448    12.000000000000
           H          1.984984137808     0.389812156128    -0.688229473552     1.007825032070
           H          2.357126137808    -1.297952843872    -0.444945473552     1.007825032070
           C          3.350082137808     0.144234156128     1.711672526448    12.000000000000
           H          1.243222137808     0.574348156128     1.689407526448     1.007825032070
           H          1.617323137808    -1.108822843872     1.937999526448     1.007825032070
           H          3.468847137808     0.326272156128     2.775058526448     1.007825032070
           H          3.658222137808     1.043545156128     1.185776526448     1.007825032070
           H          4.035361137808    -0.651660843872     1.434144526448     1.007825032070

  Charge       = 0
  Multiplicity = 1
  Basis Set: 6-31G*
  Basis Set:

    Orbital Energies (a.u.)
    -----------------------

    Doubly Occupied:

       1A    -20.602027     2A    -20.544130     3A    -11.374621
       4A    -11.282171     5A    -11.233498     6A    -11.225249
       7A    -11.221066     8A    -11.213652     9A     -1.468068
      10A     -1.362294    11A     -1.086194    12A     -1.028455
      13A     -0.981361    14A     -0.880242    15A     -0.810438
      16A     -0.776970    17A     -0.689766    18A     -0.682974
      19A     -0.666927    20A     -0.631083    21A     -0.602099
      22A     -0.592543    23A     -0.572151    24A     -0.550790
      25A     -0.545315    26A     -0.530728    27A     -0.512389
      28A     -0.483169    29A     -0.475354    30A     -0.472239
      31A     -0.448728    32A     -0.438792

  @DF-RHF Final Energy:  -383.94535928299445

   => Energetics <=

    Nuclear Repulsion Energy =            384.6590572987823862
    One-Electron Energy =               -1285.2377397521800049
    Two-Electron Energy =                 516.6333231704030595
    DFT Exchange-Correlation Energy =       0.0000000000000000
    Empirical Dispersion Energy =           0.0000000000000000
    PCM Polarization Energy =               0.0000000000000000
    EFP Energy =                            0.0000000000000000
    Total Energy =                       -383.9453592829945592

  Mulliken Charges: (a.u.)
   Center  Symbol    Alpha    Beta     Spin     Total
       1     O     4.28321  4.28321  0.00000 -0.56642
       2     C     2.61926  2.61926  0.00000  0.76147
       3     C     3.28163  3.28163  0.00000 -0.56326
       4     O     4.30875  4.30875  0.00000 -0.61750
       5     H     0.40053  0.40053  0.00000  0.19895
       6     H     0.39684  0.39684  0.00000  0.20632
       7     H     0.40080  0.40080  0.00000  0.19839
       8     C     3.00285  3.00285  0.00000 -0.00570
       9     C     3.16477  3.16477  0.00000 -0.32953
      10     H     0.40778  0.40778  0.00000  0.18443
      11     H     0.41137  0.41137  0.00000  0.17727
      12     C     3.15559  3.15559  0.00000 -0.31118
      13     H     0.41420  0.41420  0.00000  0.17161
      14     H     0.41737  0.41737  0.00000  0.16526
      15     C     3.24040  3.24040  0.00000 -0.48080
      16     H     0.41324  0.41324  0.00000  0.17353
      17     H     0.42199  0.42199  0.00000  0.15601
      18     H     0.41751  0.41751  0.00000  0.16497
      19     H     0.42024  0.42024  0.00000  0.15953
      20     H     0.42167  0.42167  0.00000  0.15665

   Total alpha = 32.00000, Total beta = 32.00000, Total charge =  0.00000
