                              Psi4 1.0.54 Driver

  ==> Input File <==

--------------------------------------------------------------------------
set {
	reference rhf
	basis cc-pvtz
}

set_num_threads( 4 )
memory 2 gb

molecule MOL {
0 1

O	 -3.175900	 0.572480	 0.975704
C	 -2.664672	 0.129869	 0.003507
C	 -3.288663	 0.180042	 -1.364851
O	 -1.481217	 -0.452708	 0.001092
H	 -3.478015	 1.214276	 -1.618985
H	 -2.657865	 -0.273775	 -2.112369
H	 -4.242168	 -0.329324	 -1.326795
C	 -0.332055	 0.384012	 -0.000250
C	 0.892252	 -0.506059	 -0.000295
H	 -0.360822	 1.020205	 -0.874146
H	 -0.359817	 1.021310	 0.872861
C	 2.188199	 0.299473	 -0.001416
H	 0.857046	 -1.152781	 -0.871031
H	 0.857910	 -1.151798	 0.871202
C	 3.437151	 -0.577593	 -0.000991
H	 2.209565	 0.950707	 -0.871712
H	 2.210062	 0.952234	 0.867721
C	 4.732399	 0.226982	 -0.000914
H	 3.417321	 -1.229122	 -0.869998
H	 3.416993	 -1.228707	 0.868337
H	 4.797903	 0.863451	 -0.876963
H	 5.598517	 -0.424436	 -0.000420
H	 4.797415	 0.864118	 0.874691

	symmetry c1
}
set optking {
	frozen_dihedral = ("
		1 2 4 8
	")
}

ee,wfn = optimize('scf', return_wfn=True)
oeprop( wfn, 'DIPOLE', 'QUADRUPOLE', 'MULLIKEN_CHARGES')
f=open( 'psi4out.xyz', 'w' )
f.write( "23  " )
f.write( str(ee) + "\n" )
f.write( MOL.save_string_xyz() )
f.close()
--------------------------------------------------------------------------

    Molecular point group: c1
  Charge       = 0
  Multiplicity = 1
  Basis Set: CC-PVTZ
  Basis Set:
  @DF-RHF Final Energy:  -423.11438715745862
    Total Energy =                       -423.1143871574587365
    Molecular point group: c1
  Basis Set: CC-PVTZ
  Basis Set:
  Basis Set: CC-PVTZ
  Basis Set:
  @DF-RHF Final Energy:  -423.06305046925308
    Total Energy =                       -423.0630504692528575
  Basis Set: CC-PVTZ
  Basis Set:
  Basis Set: CC-PVTZ
  Basis Set:
  @DF-RHF Final Energy:  -423.11190494723098
    Total Energy =                       -423.1119049472313236
  Basis Set: CC-PVTZ
  Basis Set:
  Basis Set: CC-PVTZ
  Basis Set:
  @DF-RHF Final Energy:  -423.11573847966264
    Total Energy =                       -423.1157384796622409
  Basis Set: CC-PVTZ
  Basis Set:
  @DF-RHF Final Energy:  -423.11581618822800
    Total Energy =                       -423.1158161882279956
  @DF-RHF Final Energy:  -423.11583943920022
    Total Energy =                       -423.1158394391999309
  @DF-RHF Final Energy:  -423.11585986728392
    Total Energy =                       -423.1158598672842572
  @DF-RHF Final Energy:  -423.11591156059990
    Total Energy =                       -423.1159115606001251
  @DF-RHF Final Energy:  -423.11592650460364
    Total Energy =                       -423.1159265046035216
  @DF-RHF Final Energy:  -423.11603926964000
    Total Energy =                       -423.1160392696402823
  @DF-RHF Final Energy:  -423.11583395543533
    Total Energy =                       -423.1158339554356189
  @DF-RHF Final Energy:  -423.11628990553839
    Total Energy =                       -423.1162899055382240
  @DF-RHF Final Energy:  -423.11635927320668
    Total Energy =                       -423.1163592732068537
  @DF-RHF Final Energy:  -423.11641742165909
    Total Energy =                       -423.1164174216594347
  @DF-RHF Final Energy:  -423.11661166390803
    Total Energy =                       -423.1166116639083157
  @DF-RHF Final Energy:  -423.11679414793554
    Total Energy =                       -423.1167941479353658
  @DF-RHF Final Energy:  -423.11585639474714
    Total Energy =                       -423.1158563947469702
  @DF-RHF Final Energy:  -423.11725533653356
    Total Energy =                       -423.1172553365333897
  @DF-RHF Final Energy:  -423.11755083665776
    Total Energy =                       -423.1175508366575286
  @DF-RHF Final Energy:  -423.11788675603549
    Total Energy =                       -423.1178867560356593
  @DF-RHF Final Energy:  -423.11794969120592
    Total Energy =                       -423.1179496912060358
  Basis Set: CC-PVTZ
  Basis Set:
  @DF-RHF Final Energy:  -423.11797057546914
    Total Energy =                       -423.1179705754691440
  Basis Set: CC-PVTZ
  Basis Set:
  Basis Set: CC-PVTZ
  Basis Set:
  @DF-RHF Final Energy:  -423.11797757131001
    Total Energy =                       -423.1179775713100071
  Basis Set: CC-PVTZ
  Basis Set:
  Basis Set: CC-PVTZ
  Basis Set:
  @DF-RHF Final Energy:  -423.11797986767181
    Total Energy =                       -423.1179798676723749
  Basis Set: CC-PVTZ
  Basis Set:
  Charge       = 0
  Multiplicity = 1
  Basis Set: CC-PVTZ
  Basis Set:

    Orbital Energies (a.u.)
    -----------------------

    Doubly Occupied:

       1A    -20.575322     2A    -20.543722     3A    -11.369010
       4A    -11.288487     5A    -11.234796     6A    -11.223841
       7A    -11.223193     8A    -11.220647     9A    -11.212052
      10A     -1.460606    11A     -1.368045    12A     -1.095409
      13A     -1.038630    14A     -1.008703    15A     -0.933759
      16A     -0.842358    17A     -0.804532    18A     -0.775168
      19A     -0.699408    20A     -0.688775    21A     -0.656464
      22A     -0.651364    23A     -0.618835    24A     -0.591182
      25A     -0.584100    26A     -0.575262    27A     -0.559405
      28A     -0.549775    29A     -0.515565    30A     -0.502151
      31A     -0.495562    32A     -0.479501    33A     -0.473109
      34A     -0.472125    35A     -0.453206    36A     -0.436812

  @DF-RHF Final Energy:  -423.11798046398582

   => Energetics <=

    Nuclear Repulsion Energy =            449.6521113966751386
    One-Electron Energy =               -1467.0984181262861057
    Two-Electron Energy =                 594.3283262656251509
    DFT Exchange-Correlation Energy =       0.0000000000000000
    Empirical Dispersion Energy =           0.0000000000000000
    PCM Polarization Energy =               0.0000000000000000
    EFP Energy =                            0.0000000000000000
    Total Energy =                       -423.1179804639858730
    Molecular point group: c1
  Basis Set: CC-PVTZ
  Basis Set:

  -Total Gradient:
     Atom            X                  Y                   Z
    ------   -----------------  -----------------  -----------------
       1       -0.001435890312    -0.004196618008     0.002239638894
       2        0.002375044549     0.005689037492    -0.005061647693
       3        0.000026853001     0.000019786977    -0.000120944009
       4       -0.000953749294    -0.000234862231     0.006321131178
       5       -0.000007644630     0.000029163429     0.000054570262
       6       -0.000027949436    -0.000046388591     0.000120451953
       7        0.000001579715    -0.000150859024     0.000020756304
       8        0.000040605955    -0.001097930936    -0.003549030412
       9       -0.000040738670     0.000032257869    -0.000015181607
      10       -0.000006030707    -0.000014123758    -0.000043691126
      11       -0.000006939545    -0.000013136332     0.000029624168
      12        0.000032946177     0.000001607367     0.000030743380
      13        0.000010747404    -0.000016208211    -0.000017856901
      14        0.000005770941    -0.000003695632     0.000024064381
      15       -0.000029916543    -0.000001968910    -0.000034573108
      16       -0.000002588419     0.000003970202    -0.000032072907
      17       -0.000008506250     0.000005087733     0.000005620111
      18        0.000015270772    -0.000007459294     0.000033504943
      19        0.000010653454    -0.000002619222    -0.000000430691
      20        0.000001966188    -0.000004481910     0.000032063191
      21        0.000000939245     0.000009356269    -0.000032273325
      22        0.000006214404    -0.000003926021    -0.000008519004
      23       -0.000008637990     0.000004010741     0.000004052021

  **** Optimization is complete! (in 25 steps) ****
    Final optimized geometry and variables:
    Molecular point group: c1

    Geometry (in Angstrom), charge = 0, multiplicity = 1:

    O           -3.201130894911     0.356663620356     0.980547806409
    C           -2.674448808615    -0.290495161678     0.150917211347
    C           -3.363497101703    -0.841079306903    -1.065179706446
    O           -1.391259491989    -0.685072782274     0.257662690229
    H           -4.386385502481    -0.502450225776    -1.100729518681
    H           -2.836019875700    -0.533395014969    -1.959823496913
    H           -3.328990903926    -1.923005707879    -1.025872965558
    C           -0.395616947737     0.268653570165    -0.075334827646
    C            0.962828678605    -0.355738914396     0.159036977806
    H           -0.508460421109     0.557558086702    -1.116789644579
    H           -0.528546775842     1.150646041631     0.539538496472
    C            2.105156666534     0.599559949539    -0.173618905841
    H            1.041794004305    -1.255434315343    -0.442389633913
    H            1.024082903855    -0.664542042859     1.196919458384
    C            3.482812381501    -0.013842304878     0.060868699550
    H            2.027012203976     0.913295877619    -1.212079273659
    H            2.009608656219     1.501636054394     0.425643470190
    C            4.625559180638     0.939814766117    -0.270248036600
    H            3.580105335206    -0.915231416621    -0.537623325255
    H            3.562922710706    -0.326652283461     1.097999008457
    H            4.592434269264     1.244665427042    -1.311022554934
    H            5.588005782039     0.474183417442    -0.093116082688
    H            4.575369443003     1.836938370669     0.337681136744

  Mulliken Charges: (a.u.)
   Center  Symbol    Alpha    Beta     Spin     Total
       1     O     4.17249  4.17249  0.00000 -0.34498
       2     C     2.80632  2.80632  0.00000  0.38736
       3     C     3.14182  3.14182  0.00000 -0.28364
       4     O     4.17104  4.17104  0.00000 -0.34207
       5     H     0.43719  0.43719  0.00000  0.12562
       6     H     0.45028  0.45028  0.00000  0.09943
       7     H     0.44357  0.44357  0.00000  0.11286
       8     C     2.97243  2.97243  0.00000  0.05515
       9     C     3.08508  3.08508  0.00000 -0.17015
      10     H     0.46740  0.46740  0.00000  0.06520
      11     H     0.45258  0.45258  0.00000  0.09485
      12     C     3.09993  3.09993  0.00000 -0.19987
      13     H     0.45008  0.45008  0.00000  0.09984
      14     H     0.44577  0.44577  0.00000  0.10846
      15     C     3.08525  3.08525  0.00000 -0.17049
      16     H     0.45461  0.45461  0.00000  0.09077
      17     H     0.45216  0.45216  0.00000  0.09568
      18     C     3.14951  3.14951  0.00000 -0.29901
      19     H     0.45344  0.45344  0.00000  0.09313
      20     H     0.45228  0.45228  0.00000  0.09544
      21     H     0.45519  0.45519  0.00000  0.08963
      22     H     0.44730  0.44730  0.00000  0.10539
      23     H     0.45429  0.45429  0.00000  0.09141

   Total alpha = 36.00000, Total beta = 36.00000, Total charge =  0.00000

*** Psi4 exiting successfully. Buy a developer a beer!
