  ==> Input File <==

--------------------------------------------------------------------------
set {
	reference rhf
	basis 6-31G*
}

set_num_threads( 1 )
memory 2 gb

molecule MOL {
0 1

H	 -2.484090	 1.101190	 1.337800
C	 -1.830134	 1.688005	 1.979775
O	 -0.494527	 1.345407	 1.795064
H	 -1.936702	 2.733623	 1.725868
H	 -2.141539	 1.543844	 3.013541
C	 -0.200255	 0.017064	 2.091979
C	 1.244560	 -0.262687	 1.750721
H	 -0.362275	 -0.178086	 3.152809
H	 -0.839503	 -0.656996	 1.525404
O	 1.392611	 -0.295398	 0.366430
H	 1.872653	 0.510224	 2.189028
H	 1.536610	 -1.219695	 2.184930
C	 2.706965	 -0.449871	 -0.062409
H	 2.756559	 -0.644779	 -1.131878
H	 3.305899	 0.433456	 0.155466
H	 3.125548	 -1.294566	 0.467107

	symmetry c1
}
set optking {
	frozen_dihedral = ("
		3 6 7 11,
		2 3 6 7
	")
}

ee = energy('scf')
oeprop('DIPOLE', 'QUADRUPOLE', 'MULLIKEN_CHARGES')
f=open( 'psi4out.xyz', 'w' )
f.write( "16  " )
f.write( str(ee) + "\n" )
f.write( MOL.save_string_xyz() )
f.close()
--------------------------------------------------------------------------

    Molecular point group: c1

    Geometry (in Angstrom), charge = 0, multiplicity = 1:

       Center              X                  Y                   Z               Mass
    ------------   -----------------  -----------------  -----------------  -----------------
           H         -2.953616926075     0.756435567425     0.022925939010     1.007825032070
           C         -2.299660926075     1.343250567425     0.664900939010    12.000000000000
           O         -0.964053926075     1.000652567425     0.480189939010    15.994914619560
           H         -2.406228926075     2.388868567425     0.410993939010     1.007825032070
           H         -2.611065926075     1.199089567425     1.698666939010     1.007825032070
           C         -0.669781926075    -0.327690432575     0.777104939010    12.000000000000
           C          0.775033073925    -0.607441432575     0.435846939010    12.000000000000
           H         -0.831801926075    -0.522840432575     1.837934939010     1.007825032070
           H         -1.309029926075    -1.001750432575     0.210529939010     1.007825032070
           O          0.923084073925    -0.640152432575    -0.948444060990    15.994914619560
           H          1.403126073925     0.165469567425     0.874153939010     1.007825032070
           H          1.067083073925    -1.564449432575     0.870055939010     1.007825032070
           C          2.237438073925    -0.794625432575    -1.377283060990    12.000000000000
           H          2.287032073925    -0.989533432575    -2.446752060990     1.007825032070
           H          2.836372073925     0.088701567425    -1.159408060990     1.007825032070
           H          2.656021073925    -1.639320432575    -0.847767060990     1.007825032070

  Charge       = 0
  Multiplicity = 1
  Basis Set: 6-31G*
  Basis Set:

    Orbital Energies (a.u.)
    -----------------------

    Doubly Occupied:

       1A    -20.553594     2A    -20.552238     3A    -11.269552
       4A    -11.268780     5A    -11.263918     6A    -11.263535
       7A     -1.388122     8A     -1.370492     9A     -1.030657
      10A     -0.935588    11A     -0.892340    12A     -0.824413
      13A     -0.684267    14A     -0.680896    15A     -0.656759
      16A     -0.635209    17A     -0.629648    18A     -0.598842
      19A     -0.549930    20A     -0.536220    21A     -0.509798
      22A     -0.476795    23A     -0.461780    24A     -0.419199
      25A     -0.410124

  @DF-RHF Final Energy:  -306.97627956300113

   => Energetics <=

    Nuclear Repulsion Energy =            258.8850635958169164
    One-Electron Energy =                -931.9971865105919733
    Two-Electron Energy =                 366.1358433517741560
    DFT Exchange-Correlation Energy =       0.0000000000000000
    Empirical Dispersion Energy =           0.0000000000000000
    PCM Polarization Energy =               0.0000000000000000
    EFP Energy =                            0.0000000000000000
    Total Energy =                       -306.9762795630008441

  Mulliken Charges: (a.u.)
   Center  Symbol    Alpha    Beta     Spin     Total
       1     H     0.42804  0.42804  0.00000  0.14392
       2     C     3.07955  3.07955  0.00000 -0.15910
       3     O     4.30079  4.30079  0.00000 -0.60158
       4     H     0.41126  0.41126  0.00000  0.17748
       5     H     0.43191  0.43191  0.00000  0.13619
       6     C     2.99310  2.99310  0.00000  0.01380
       7     C     2.99360  2.99360  0.00000  0.01280
       8     H     0.43224  0.43224  0.00000  0.13551
       9     H     0.42263  0.42263  0.00000  0.15474
      10     O     4.30190  4.30190  0.00000 -0.60379
      11     H     0.42266  0.42266  0.00000  0.15468
      12     H     0.43216  0.43216  0.00000  0.13569
      13     C     3.07830  3.07830  0.00000 -0.15660
      14     H     0.41201  0.41201  0.00000  0.17598
      15     H     0.42731  0.42731  0.00000  0.14539
      16     H     0.43255  0.43255  0.00000  0.13489

   Total alpha = 25.00000, Total beta = 25.00000, Total charge = -0.00000
