  ==> Input File <==

--------------------------------------------------------------------------
set {
	reference rhf
	basis cc-pvtz
}

set_num_threads( 4 )
memory 2 gb

molecule MOL {
0 1

H	 -2.149496	 -2.244167	 0.000000
O	 -2.454378	 -1.354528	 0.000000
C	 -1.430628	 -0.482077	 0.000000
C	 -0.157520	 -0.990171	 -0.213794
C	 -1.607477	 0.870420	 0.201737
H	 -0.041010	 -2.044442	 -0.368606
C	 0.927354	 -0.143561	 -0.224252
H	 -2.586755	 1.276896	 0.368287
C	 -0.502499	 1.710937	 0.188161
H	 1.908212	 -0.544441	 -0.390233
C	 0.768859	 1.216710	 -0.023572
C	 -0.696702	 3.124681	 0.400102
H	 1.611353	 1.877861	 -0.031199
N	 -0.852156	 4.229643	 0.566171

	symmetry c1
}
set optking {
	frozen_dihedral = ("
		5 3 2 1
	")
}

ee = optimize('scf')
oeprop('DIPOLE', 'QUADRUPOLE', 'MULLIKEN_CHARGES')
f=open( 'psi4out.xyz', 'w' )
f.write( "14  " )
f.write( str(ee) + "\n" )
f.write( MOL.save_string_xyz() )
f.close()
--------------------------------------------------------------------------

    Molecular point group: c1
  Charge       = 0
  Multiplicity = 1
  Basis Set: CC-PVTZ
  Basis Set:
  @DF-RHF Final Energy:  -397.43023653705637
    Total Energy =                       -397.4302365370566577
    Molecular point group: c1
  Basis Set: CC-PVTZ
  Basis Set:
  Basis Set: CC-PVTZ
  Basis Set:
  @DF-RHF Final Energy:  -397.40588924140974
    Total Energy =                       -397.4058892414099091
  Basis Set: CC-PVTZ
  Basis Set:
  Basis Set: CC-PVTZ
  Basis Set:
  @DF-RHF Final Energy:  -397.42399306802412
    Total Energy =                       -397.4239930680240604
  Basis Set: CC-PVTZ
  Basis Set:
  Basis Set: CC-PVTZ
  Basis Set:
  @DF-RHF Final Energy:  -397.43231504277628
    Total Energy =                       -397.4323150427762812
  Basis Set: CC-PVTZ
  Basis Set:
  @DF-RHF Final Energy:  -397.43092368805503
    Total Energy =                       -397.4309236880551452
  @DF-RHF Final Energy:  -397.43221710994123
    Total Energy =                       -397.4322171099411207
  @DF-RHF Final Energy:  -397.43226722995013
    Total Energy =                       -397.4322672299506394
  @DF-RHF Final Energy:  -397.43248384937505
    Total Energy =                       -397.4324838493749894
  @DF-RHF Final Energy:  -397.42113167051292
    Total Energy =                       -397.4211316705132049
  @DF-RHF Final Energy:  -397.42861934814209
    Total Energy =                       -397.4286193481423197
  @DF-RHF Final Energy:  -397.43231022932110
    Total Energy =                       -397.4323102293211605
  @DF-RHF Final Energy:  -397.43251081909193
    Total Energy =                       -397.4325108190920446
  @DF-RHF Final Energy:  -397.42589803915484
    Total Energy =                       -397.4258980391550722
  @DF-RHF Final Energy:  -397.43014321932492
    Total Energy =                       -397.4301432193246910
  @DF-RHF Final Energy:  -397.43196189534444
    Total Energy =                       -397.4319618953442159
  @DF-RHF Final Energy:  -397.43246685712830
    Total Energy =                       -397.4324668571289294
  @DF-RHF Final Energy:  -397.43130792761690
    Total Energy =                       -397.4313079276171266
  @DF-RHF Final Energy:  -397.43170521552321
    Total Energy =                       -397.4317052155231522
  @DF-RHF Final Energy:  -397.43230346169651
    Total Energy =                       -397.4323034616962786
  @DF-RHF Final Energy:  -397.43244160662778
    Total Energy =                       -397.4324416066277763
  @DF-RHF Final Energy:  -397.41311581277796
    Total Energy =                       -397.4131158127785284
  @DF-RHF Final Energy:  -397.42251229024100
    Total Energy =                       -397.4225122902408884
  @DF-RHF Final Energy:  -397.43022643952690
    Total Energy =                       -397.4302264395266775
  @DF-RHF Final Energy:  -397.43242654062328
    Total Energy =                       -397.4324265406233962
  @DF-RHF Final Energy:  -397.36454282956691
    Total Energy =                       -397.3645428295666306
  @DF-RHF Final Energy:  -397.41086269561146
    Total Energy =                       -397.4108626956118542
  @DF-RHF Final Energy:  -397.42169380888186
    Total Energy =                       -397.4216938088818551
  @DF-RHF Final Energy:  -397.42976847178056
    Total Energy =                       -397.4297684717805623
  @DF-RHF Final Energy:  -397.43232069917718
    Total Energy =                       -397.4323206991768984
  @DF-RHF Final Energy:  -397.40646398761368
    Total Energy =                       -397.4064639876136198
  @DF-RHF Final Energy:  -397.42344758691092
    Total Energy =                       -397.4234475869110383
  @DF-RHF Final Energy:  -397.43236151525070
    Total Energy =                       -397.4323615152510456
  @DF-RHF Final Energy:  -397.43215208448402
    Total Energy =                       -397.4321520844839597
  @DF-RHF Final Energy:  -397.43206060053393
    Total Energy =                       -397.4320606005343279
  @DF-RHF Final Energy:  -397.43184914251225
    Total Energy =                       -397.4318491425117372
  @DF-RHF Final Energy:  -397.43230251037630
    Total Energy =                       -397.4323025103758482
  Basis Set: CC-PVTZ
  Basis Set:
  @DF-RHF Final Energy:  -397.35192869834640
    Total Energy =                       -397.3519286983465122
  Basis Set: CC-PVTZ
  Basis Set:
  Basis Set: CC-PVTZ
  Basis Set:
  @DF-RHF Final Energy:  -397.41982830216676
    Total Energy =                       -397.4198283021663656
  Basis Set: CC-PVTZ
  Basis Set:
  Basis Set: CC-PVTZ
  Basis Set:
  @DF-RHF Final Energy:  -397.43103982741638
    Total Energy =                       -397.4310398274162708
  Basis Set: CC-PVTZ
  Basis Set:
  Charge       = 0
  Multiplicity = 1
  Basis Set: CC-PVTZ
  Basis Set:

    Orbital Energies (a.u.)
    -----------------------

    Doubly Occupied:

       1A    -20.606573     2A    -15.570462     3A    -11.324695
       4A    -11.292016     5A    -11.272531     6A    -11.262099
       7A    -11.256529     8A    -11.256064     9A    -11.255039
      10A     -1.438971    11A     -1.230670    12A     -1.185433
      13A     -1.065958    14A     -1.043080    15A     -0.902582
      16A     -0.861534    17A     -0.799136    18A     -0.718003
      19A     -0.696210    20A     -0.674940    21A     -0.631913
      22A     -0.621727    23A     -0.597993    24A     -0.568872
      25A     -0.550781    26A     -0.542165    27A     -0.528731
      28A     -0.476707    29A     -0.472984    30A     -0.366393
      31A     -0.341713

  @DF-RHF Final Energy:  -397.42887204936892

   => Energetics <=

    Nuclear Repulsion Energy =            380.1870015751831033
    One-Electron Energy =               -1292.4067312119268536
    Two-Electron Energy =                 514.7908575873750578
    DFT Exchange-Correlation Energy =       0.0000000000000000
    Empirical Dispersion Energy =           0.0000000000000000
    PCM Polarization Energy =               0.0000000000000000
    EFP Energy =                            0.0000000000000000
    Total Energy =                       -397.4288720493686924
    Molecular point group: c1
  Basis Set: CC-PVTZ
  Basis Set:

  -Total Gradient:
     Atom            X                  Y                   Z
    ------   -----------------  -----------------  -----------------
       1        0.000062612806    -0.000175049780     0.000993583788
       2       -0.000007388830     0.000239903639    -0.000856742396
       3        0.000069249850     0.000242657694     0.001100508668
       4        0.000534833185     0.000314940105    -0.000201396921
       5       -0.001418056736     0.001192032075    -0.000619640287
       6        0.000029378540    -0.000067459307    -0.000173984235
       7        0.000667259376    -0.000860114845     0.001261409310
       8        0.000003673807     0.000213115708    -0.000513863278
       9        0.005365863485     0.003547366532    -0.010391965447
      10        0.000029658848    -0.000131248102     0.000152040528
      11       -0.001640812773    -0.000539818299    -0.001470758661
      12       -0.003313078819    -0.047838186096     0.023018700564
      13        0.000223679615     0.000040933496    -0.000474208688
      14       -0.000606872356     0.043820927181    -0.011823682945

    Molecular point group: c1

    Geometry (in Angstrom), charge = 0, multiplicity = 1:

    H           -1.572694419087    -3.029435365459    -0.089396783105
    O           -1.801528845956    -2.117389585452    -0.088828328567
    C           -0.705573577883    -1.337188897420    -0.101184004475
    C            0.565862681659    -1.837517191678    -0.315714722622
    C           -0.886969216640     0.017182923247     0.111357055419
    H            0.706537580243    -2.889809570338    -0.481456053732
    C            1.653721690265    -0.984767791945    -0.320821556162
    H           -1.873308571421     0.398812706723     0.280291271972
    C            0.210817009414     0.857494485112     0.095543337600
    H            2.635197948851    -1.383295865363    -0.488497964393
    C            1.490191719202     0.367977617880    -0.117227101212
    C            0.019747919848     2.274593259967     0.303794909183
    H            2.329052041359     1.033675581183    -0.124099409271
    N           -0.114294348850     3.391409530501     0.461473866557

  Mulliken Charges: (a.u.)
   Center  Symbol    Alpha    Beta     Spin     Total
       1     H     0.38541  0.38541  0.00000  0.22917
       2     O     4.16905  4.16905  0.00000 -0.33810
       3     C     2.84133  2.84133  0.00000  0.31733
       4     C     3.13063  3.13063  0.00000 -0.26125
       5     C     3.12401  3.12401  0.00000 -0.24803
       6     H     0.42911  0.42911  0.00000  0.14177
       7     C     3.05677  3.05677  0.00000 -0.11353
       8     H     0.40984  0.40984  0.00000  0.18032
       9     C     2.91602  2.91602  0.00000  0.16796
      10     H     0.41657  0.41657  0.00000  0.16685
      11     C     3.10474  3.10474  0.00000 -0.20949
      12     C     3.02484  3.02484  0.00000 -0.04968
      13     H     0.41413  0.41413  0.00000  0.17174
      14     N     3.57754  3.57754  0.00000 -0.15507

   Total alpha = 31.00000, Total beta = 31.00000, Total charge = -0.00000
