                              Psi4 1.0.54 Driver

  ==> Input File <==

--------------------------------------------------------------------------
set {
	reference rhf
	basis cc-pvtz
}

set_num_threads( 4 )
memory 2 gb

molecule MOL {
0 1

H	 -0.000342	 -0.223902	 -3.352295
C	 -0.027146	 0.371068	 -2.446756
C	 0.024493	 -0.518541	 -1.216015
H	 -0.932586	 0.964979	 -2.449855
H	 0.819708	 1.049865	 -2.473332
N	 -0.042516	 0.263377	 0.000000
H	 -0.822211	 -1.197105	 -1.225584
H	 0.921114	 -1.142847	 -1.255206
C	 0.024493	 -0.518541	 1.216015
H	 0.682568	 0.950412	 0.000000
C	 -0.932782	 0.015704	 2.268156
H	 -0.242066	 -1.541706	 0.972031
H	 1.036497	 -0.552902	 1.628192
H	 -1.949111	 0.014160	 1.894478
H	 -0.893298	 -0.589634	 3.166330
H	 -0.678679	 1.034045	 2.545728

	symmetry c1
}
set optking {
	frozen_dihedral = ("
		12 9 6 3
	")
}

ee,wfn = optimize('scf', return_wfn=True)
oeprop( wfn, 'DIPOLE', 'QUADRUPOLE', 'MULLIKEN_CHARGES')
f=open( 'psi4out.xyz', 'w' )
f.write( "16  " )
f.write( str(ee) + "\n" )
f.write( MOL.save_string_xyz() )
f.close()
--------------------------------------------------------------------------

    Molecular point group: c1
  Charge       = 0
  Multiplicity = 1
  Basis Set: CC-PVTZ
  Basis Set:
  @DF-RHF Final Energy:  -212.39079778807036
    Total Energy =                       -212.3907977880705289
    Molecular point group: c1
  Basis Set: CC-PVTZ
  Basis Set:
  Basis Set: CC-PVTZ
  Basis Set:
  @DF-RHF Final Energy:  -212.39106104455524
    Total Energy =                       -212.3910610445552720
  Basis Set: CC-PVTZ
  Basis Set:
  Basis Set: CC-PVTZ
  Basis Set:
  @DF-RHF Final Energy:  -212.39122046413780
    Total Energy =                       -212.3912204641378025
  Basis Set: CC-PVTZ
  Basis Set:
  Basis Set: CC-PVTZ
  Basis Set:
  @DF-RHF Final Energy:  -212.39122641731262
    Total Energy =                       -212.3912264173126232
  Basis Set: CC-PVTZ
  Basis Set:
  Charge       = 0
  Multiplicity = 1
  Basis Set: CC-PVTZ
  Basis Set:

    Orbital Energies (a.u.)
    -----------------------

    Doubly Occupied:

       1A    -15.526336     2A    -11.239845     3A    -11.239152
       4A    -11.206493     5A    -11.201184     6A     -1.203503
       7A     -1.027307     8A     -0.963821     9A     -0.834809
      10A     -0.817920    11A     -0.664341    12A     -0.627220
      13A     -0.606287    14A     -0.570199    15A     -0.559819
      16A     -0.524161    17A     -0.506605    18A     -0.489176
      19A     -0.483921    20A     -0.473337    21A     -0.356129

  @DF-RHF Final Energy:  -212.39122727317852

   => Energetics <=

    Nuclear Repulsion Energy =            189.2733304110441850
    One-Electron Energy =                -661.0859912430003078
    Two-Electron Energy =                 259.4214335587776077
    DFT Exchange-Correlation Energy =       0.0000000000000000
    Empirical Dispersion Energy =           0.0000000000000000
    PCM Polarization Energy =               0.0000000000000000
    EFP Energy =                            0.0000000000000000
    Total Energy =                       -212.3912272731785151
    Molecular point group: c1
  Basis Set: CC-PVTZ
  Basis Set:

  -Total Gradient:
     Atom            X                  Y                   Z
    ------   -----------------  -----------------  -----------------
       1        0.000003186596     0.000001122077    -0.000005045741
       2       -0.000009417884     0.000005891009     0.000000758424
       3       -0.002356969370    -0.000330256564    -0.000132187199
       4       -0.000006802170     0.000003004629     0.000000164637
       5        0.000010715702     0.000005257780     0.000000703763
       6        0.004094457267     0.000351173020     0.000095281878
       7       -0.000007909448    -0.000003315894     0.000003200280
       8       -0.000005848386     0.000011157432     0.000009070818
       9       -0.004737873570     0.000478060009     0.000416319489
      10        0.000009870199     0.000025892163    -0.000002540867
      11        0.000042945702     0.000006938088    -0.000026963266
      12        0.002956697894    -0.000566764129    -0.000346421640
      13        0.000014158024     0.000011464743    -0.000002799279
      14       -0.000000002327    -0.000004836239    -0.000000131818
      15       -0.000004781247     0.000002946793    -0.000006827035
      16       -0.000002426983     0.000002265082    -0.000002582442

  **** Optimization is complete! (in 5 steps) ****
    Final optimized geometry and variables:
    Molecular point group: c1

    Geometry (in Angstrom), charge = 0, multiplicity = 1:

    H            0.399463287696    -0.165841792765    -3.307182469280
    C            0.293516586901     0.426798853439    -2.405925575529
    C            0.306366908267    -0.461382835973    -1.173196946053
    H           -0.633495774537     0.983595532830    -2.464371201965
    H            1.112471581513     1.139173782921    -2.382165509783
    N            0.126195895475     0.319307328282     0.031494672053
    H           -0.508496143114    -1.174386277951    -1.235791621719
    H            1.230422249115    -1.045848889804    -1.160466273090
    C            0.132355062380    -0.426994224967     1.278580526539
    H            0.779583803642     1.070938782551     0.064096688773
    C           -0.880781977724     0.115591295278     2.273867781103
    H           -0.078523604979    -1.467474540051     1.058921926559
    H            1.122188925839    -0.426857292170     1.736050943406
    H           -1.881644054403     0.064177601937     1.863259702972
    H           -0.855327179735    -0.448320585938     3.200708473349
    H           -0.671372009066     1.153882706673     2.506946631341

  Mulliken Charges: (a.u.)
   Center  Symbol    Alpha    Beta     Spin     Total
       1     H     0.45410  0.45410  0.00000  0.09180
       2     C     3.14383  3.14383  0.00000 -0.28766
       3     C     3.02011  3.02011  0.00000 -0.04021
       4     H     0.44973  0.44973  0.00000  0.10054
       5     H     0.45942  0.45942  0.00000  0.08117
       6     N     3.64353  3.64353  0.00000 -0.28705
       7     H     0.45935  0.45935  0.00000  0.08130
       8     H     0.47426  0.47426  0.00000  0.05149
       9     C     3.03377  3.03377  0.00000 -0.06753
      10     H     0.44150  0.44150  0.00000  0.11701
      11     C     3.12964  3.12964  0.00000 -0.25927
      12     H     0.45712  0.45712  0.00000  0.08576
      13     H     0.46232  0.46232  0.00000  0.07536
      14     H     0.45400  0.45400  0.00000  0.09200
      15     H     0.45945  0.45945  0.00000  0.08110
      16     H     0.45790  0.45790  0.00000  0.08420

   Total alpha = 21.00000, Total beta = 21.00000, Total charge =  0.00000

*** Psi4 exiting successfully. Buy a developer a beer!
