  ==> Input File <==

--------------------------------------------------------------------------
set {
	reference rhf
	basis 6-31G*
}

set_num_threads( 4 )
memory 2 gb

molecule MOL {
0 1

H	 1.234569	 -2.321500	 -0.694183
C	 0.490490	 -2.589245	 0.065726
C	 -0.798112	 -1.810380	 0.003990
O	 0.728739	 -3.439916	 0.860536
C	 -0.558097	 -0.297372	 0.091132
H	 -1.442288	 -2.155208	 0.804372
H	 -1.282613	 -2.044678	 -0.943214
C	 -1.850991	 0.512573	 -0.019058
H	 -0.066296	 -0.066121	 1.033166
H	 0.126442	 0.008994	 -0.697794
C	 -3.096943	 -0.368295	 -0.099594
H	 -1.800724	 1.150330	 -0.898172
H	 -1.931651	 1.177355	 0.838044
H	 -3.060452	 -1.020287	 -0.967456
H	 -3.996858	 0.233488	 -0.175704
H	 -3.191959	 -0.995686	 0.782074

	symmetry c1
}
set optking {
	frozen_dihedral = ("
		9 5 8 12
	")
}

ee = optimize('scf')
oeprop('DIPOLE', 'QUADRUPOLE', 'MULLIKEN_CHARGES')
f=open( 'psi4out.xyz', 'w' )
f.write( "16  " )
f.write( str(ee) + "\n" )
f.write( MOL.save_string_xyz() )
f.close()
--------------------------------------------------------------------------

    Molecular point group: c1
  Charge       = 0
  Multiplicity = 1
  Basis Set: 6-31G*
  Basis Set:
  @DF-RHF Final Energy:  -270.00568033075990
    Total Energy =                       -270.0056803307597875
    Molecular point group: c1
  Basis Set: 6-31G*
  Basis Set:
  Basis Set: 6-31G*
  Basis Set:
  @DF-RHF Final Energy:  -270.00577540731217
    Total Energy =                       -270.0057754073121146
  Basis Set: 6-31G*
  Basis Set:
  Basis Set: 6-31G*
  Basis Set:
  @DF-RHF Final Energy:  -270.00959238762448
    Total Energy =                       -270.0095923876241955
  Basis Set: 6-31G*
  Basis Set:
  Basis Set: 6-31G*
  Basis Set:
  @DF-RHF Final Energy:  -270.01001752983996
    Total Energy =                       -270.0100175298398995
  Basis Set: 6-31G*
  Basis Set:
  Basis Set: 6-31G*
  Basis Set:
  @DF-RHF Final Energy:  -270.01016056867695
    Total Energy =                       -270.0101605686770654
  Basis Set: 6-31G*
  Basis Set:
  Basis Set: 6-31G*
  Basis Set:
  @DF-RHF Final Energy:  -270.01028321145583
    Total Energy =                       -270.0102832114559419
  Basis Set: 6-31G*
  Basis Set:
  Basis Set: 6-31G*
  Basis Set:
  @DF-RHF Final Energy:  -270.01029369619414
    Total Energy =                       -270.0102936961940827
  Basis Set: 6-31G*
  Basis Set:
  Charge       = 0
  Multiplicity = 1
  Basis Set: 6-31G*
  Basis Set:

    Orbital Energies (a.u.)
    -----------------------

    Doubly Occupied:

       1A    -20.562307     2A    -11.326279     3A    -11.237078
       4A    -11.234859     5A    -11.229711     6A    -11.218949
       7A     -1.402118     8A     -1.092155     9A     -1.014733
      10A     -0.915534    11A     -0.811006    12A     -0.785490
      13A     -0.677722    14A     -0.644828    15A     -0.637071
      16A     -0.589233    17A     -0.577083    18A     -0.563062
      19A     -0.535609    20A     -0.514903    21A     -0.486089
      22A     -0.476447    23A     -0.463413    24A     -0.409645

  @DF-RHF Final Energy:  -270.01029450087191

   => Energetics <=

    Nuclear Repulsion Energy =            232.0085356430102479
    One-Electron Energy =                -825.2270158578890005
    Two-Electron Energy =                 323.2081857140069587
    DFT Exchange-Correlation Energy =       0.0000000000000000
    Empirical Dispersion Energy =           0.0000000000000000
    PCM Polarization Energy =               0.0000000000000000
    EFP Energy =                            0.0000000000000000
    Total Energy =                       -270.0102945008718507
    Molecular point group: c1
  Basis Set: 6-31G*
  Basis Set:

  -Total Gradient:
     Atom            X                  Y                   Z
    ------   -----------------  -----------------  -----------------
       1        0.000002223107     0.000010593559     0.000011646744
       2        0.000016177791     0.000005991377    -0.000010933251
       3        0.000053330029     0.000066670381     0.000004979030
       4       -0.000012612611    -0.000026721398    -0.000008926363
       5       -0.001285113653    -0.001721956427     0.001566884336
       6        0.000008383504     0.000019633863    -0.000002966690
       7       -0.000002977402    -0.000027753115    -0.000001771484
       8       -0.000910932604    -0.001667313904    -0.001827284163
       9        0.001240197182     0.001644120525    -0.001005943529
      10       -0.000001787666    -0.000034790469     0.000011334126
      11       -0.000000485024     0.000048873320     0.000019963252
      12        0.000908287949     0.001668322520     0.001260401674
      13       -0.000031061734    -0.000007072484    -0.000016529596
      14        0.000015713602     0.000009557015    -0.000000413498
      15       -0.000005938074     0.000008774831     0.000003816398
      16        0.000006595607     0.000003070405    -0.000004256987

  **** Optimization is complete! (in 8 steps) ****
    Final optimized geometry and variables:
    Molecular point group: c1

    Geometry (in Angstrom), charge = 0, multiplicity = 1:

    H            2.164472611688    -0.907254124104    -0.827442227976
    C            1.425979415531    -1.228426452681    -0.083089119400
    C            0.087277420316    -0.540967133544    -0.167566931072
    O            1.707702103248    -2.062034110067     0.715618370157
    C            0.247083413717     0.982619275391    -0.054353316987
    H           -0.545346996097    -0.945208086375     0.611849441295
    H           -0.351921201673    -0.799039753874    -1.129227398809
    C           -1.047896415450     1.830432619159    -0.194768724412
    H            0.725059953730     1.213141569489     0.893131608012
    H            0.954141472681     1.304699591211    -0.814846204563
    C           -2.376821803163     1.073554439150    -0.245790730778
    H           -0.965245866071     2.456835579235    -1.077693735580
    H           -1.090036651602     2.523388009907     0.639990618910
    H           -2.437731100030     0.407723210014    -1.100134070489
    H           -3.197738853425     1.779034065062    -0.325502184974
    H           -2.540661654241     0.483368176357     0.649851551516

  Mulliken Charges: (a.u.)
   Center  Symbol    Alpha    Beta     Spin     Total
       1     H     0.43228  0.43228  0.00000  0.13544
       2     C     2.82966  2.82966  0.00000  0.34068
       3     C     3.20933  3.20933  0.00000 -0.41867
       4     O     4.23711  4.23711  0.00000 -0.47422
       5     C     3.17042  3.17042  0.00000 -0.34085
       6     H     0.39801  0.39801  0.00000  0.20399
       7     H     0.40930  0.40930  0.00000  0.18140
       8     C     3.15526  3.15526  0.00000 -0.31053
       9     H     0.41034  0.41034  0.00000  0.17932
      10     H     0.41723  0.41723  0.00000  0.16554
      11     C     3.24388  3.24388  0.00000 -0.48776
      12     H     0.41743  0.41743  0.00000  0.16514
      13     H     0.41589  0.41589  0.00000  0.16821
      14     H     0.42032  0.42032  0.00000  0.15936
      15     H     0.41563  0.41563  0.00000  0.16875
      16     H     0.41790  0.41790  0.00000  0.16420

   Total alpha = 24.00000, Total beta = 24.00000, Total charge = -0.00000
