  ==> Input File <==

--------------------------------------------------------------------------
set {
	reference rhf
	basis 6-31G*
}

set_num_threads( 1 )
memory 2 gb

molecule MOL {
0 1

H	 2.616038	 -1.765169	 -0.581647
O	 2.826016	 -1.159218	 0.122261
C	 2.077727	 -0.067559	 -0.035091
C	 0.624473	 -0.343591	 0.253101
O	 2.542965	 0.974826	 -0.363729
C	 -0.265902	 0.883932	 0.072916
H	 0.324016	 -1.163849	 -0.390541
H	 0.565024	 -0.726111	 1.268924
C	 -1.728698	 0.646073	 0.462102
H	 -0.209144	 1.219470	 -0.958188
H	 0.135059	 1.692851	 0.673903
C	 -2.482460	 -0.343073	 -0.431425
H	 -2.245265	 1.602650	 0.432430
H	 -1.779332	 0.308348	 1.496285
C	 -3.960546	 -0.461025	 -0.060175
H	 -2.395034	 -0.026811	 -1.468912
H	 -2.024850	 -1.327147	 -0.371646
H	 -4.472726	 -1.168004	 -0.705284
H	 -4.465146	 0.496508	 -0.151489
H	 -4.081218	 -0.800940	 0.964585

	symmetry c1
}
set optking {
	frozen_dihedral = ("
		16 12 9 6,
		7 4 6 10,
		12 9 6 10,
		5 3 4 7
	")
}

ee = energy('scf')
oeprop('DIPOLE', 'QUADRUPOLE', 'MULLIKEN_CHARGES')
f=open( 'psi4out.xyz', 'w' )
f.write( "20  " )
f.write( str(ee) + "\n" )
f.write( MOL.save_string_xyz() )
f.close()
--------------------------------------------------------------------------

    Molecular point group: c1

    Geometry (in Angstrom), charge = 0, multiplicity = 1:

       Center              X                  Y                   Z               Mass
    ------------   -----------------  -----------------  -----------------  -----------------
           H          2.625704839752    -1.757903297918    -0.577209916941     1.007825032070
           O          2.835682839752    -1.151952297918     0.126698083059    15.994914619560
           C          2.087393839752    -0.060293297918    -0.030653916941    12.000000000000
           C          0.634139839752    -0.336325297918     0.257538083059    12.000000000000
           O          2.552631839752     0.982091702082    -0.359291916941    15.994914619560
           C         -0.256235160248     0.891197702082     0.077353083059    12.000000000000
           H          0.333682839752    -1.156583297918    -0.386103916941     1.007825032070
           H          0.574690839752    -0.718845297918     1.273361083059     1.007825032070
           C         -1.719031160248     0.653338702082     0.466539083059    12.000000000000
           H         -0.199477160248     1.226735702082    -0.953750916941     1.007825032070
           H          0.144725839752     1.700116702082     0.678340083059     1.007825032070
           C         -2.472793160248    -0.335807297918    -0.426987916941    12.000000000000
           H         -2.235598160248     1.609915702082     0.436867083059     1.007825032070
           H         -1.769665160248     0.315613702082     1.500722083059     1.007825032070
           C         -3.950879160248    -0.453759297918    -0.055737916941    12.000000000000
           H         -2.385367160248    -0.019545297918    -1.464474916941     1.007825032070
           H         -2.015183160248    -1.319881297918    -0.367208916941     1.007825032070
           H         -4.463059160248    -1.160738297918    -0.700846916941     1.007825032070
           H         -4.455479160248     0.503773702082    -0.147051916941     1.007825032070
           H         -4.071551160248    -0.793674297918     0.969022083059     1.007825032070

  Charge       = 0
  Multiplicity = 1
  Basis Set: 6-31G*
  Basis Set:

    Orbital Energies (a.u.)
    -----------------------

    Doubly Occupied:

       1A    -20.600477     2A    -20.559038     3A    -11.379931
       4A    -11.244223     5A    -11.225214     6A    -11.224047
       7A    -11.222713     8A    -11.215260     9A     -1.468538
      10A     -1.369939    11A     -1.098763    12A     -1.042514
      13A     -0.959987    14A     -0.865748    15A     -0.822472
      16A     -0.787211    17A     -0.716748    18A     -0.675832
      19A     -0.665703    20A     -0.637118    21A     -0.618577
      22A     -0.588619    23A     -0.564184    24A     -0.561465
      25A     -0.529075    26A     -0.514067    27A     -0.495520
      28A     -0.494754    29A     -0.472572    30A     -0.466225
      31A     -0.460576    32A     -0.442652

  @DF-RHF Final Energy:  -383.92595165900690

   => Energetics <=

    Nuclear Repulsion Energy =            376.2969319673896393
    One-Electron Energy =               -1268.4662358163211593
    Two-Electron Energy =                 508.2433521899251332
    DFT Exchange-Correlation Energy =       0.0000000000000000
    Empirical Dispersion Energy =           0.0000000000000000
    PCM Polarization Energy =               0.0000000000000000
    EFP Energy =                            0.0000000000000000
    Total Energy =                       -383.9259516590064436

  Mulliken Charges: (a.u.)
   Center  Symbol    Alpha    Beta     Spin     Total
       1     H     0.26716  0.26716  0.00000  0.46567
       2     O     4.35523  4.35523  0.00000 -0.71046
       3     C     2.62996  2.62996  0.00000  0.74009
       4     C     3.21567  3.21567  0.00000 -0.43133
       5     O     4.25291  4.25291  0.00000 -0.50583
       6     C     3.15490  3.15490  0.00000 -0.30980
       7     H     0.41239  0.41239  0.00000  0.17522
       8     H     0.39666  0.39666  0.00000  0.20668
       9     C     3.15557  3.15557  0.00000 -0.31115
      10     H     0.41324  0.41324  0.00000  0.17353
      11     H     0.40595  0.40595  0.00000  0.18810
      12     C     3.15460  3.15460  0.00000 -0.30920
      13     H     0.41736  0.41736  0.00000  0.16529
      14     H     0.42333  0.42333  0.00000  0.15333
      15     C     3.23918  3.23918  0.00000 -0.47837
      16     H     0.42175  0.42175  0.00000  0.15651
      17     H     0.42483  0.42483  0.00000  0.15034
      18     H     0.41844  0.41844  0.00000  0.16313
      19     H     0.41993  0.41993  0.00000  0.16014
      20     H     0.42095  0.42095  0.00000  0.15810

   Total alpha = 32.00000, Total beta = 32.00000, Total charge = -0.00000
