  ==> Input File <==

--------------------------------------------------------------------------
set {
	reference rhf
	basis cc-pvtz
}

set_num_threads( 4 )
memory 2 gb

molecule MOL {
0 1

H	 -0.000105	 1.988529	 0.748933
O	 -0.000098	 1.879786	 -0.188206
C	 -0.000014	 0.545691	 -0.532416
C	 0.638013	 -0.286957	 0.580866
C	 0.637972	 0.355603	 -1.909593
H	 -1.027857	 0.224249	 -0.615335
F	 -0.040557	 -0.120578	 1.689342
F	 0.646606	 -1.566187	 0.302999
F	 1.877242	 0.090827	 0.811010
F	 -0.040639	 1.037486	 -2.799188
F	 0.646578	 -0.898381	 -2.285309
F	 1.877191	 0.797600	 -1.928275

	symmetry c1
}
set optking {
	frozen_dihedral = ("
		6 3 2 1
	")
}

ee = optimize('scf')
oeprop('DIPOLE', 'QUADRUPOLE', 'MULLIKEN_CHARGES')
f=open( 'psi4out.xyz', 'w' )
f.write( "12  " )
f.write( str(ee) + "\n" )
f.write( MOL.save_string_xyz() )
f.close()
--------------------------------------------------------------------------

    Molecular point group: c1
  Charge       = 0
  Multiplicity = 1
  Basis Set: CC-PVTZ
  Basis Set:
  @DF-RHF Final Energy:  -786.58443027646763
    Total Energy =                       -786.5844302764677423
    Molecular point group: c1
  Basis Set: CC-PVTZ
  Basis Set:
  Basis Set: CC-PVTZ
  Basis Set:
  @DF-RHF Final Energy:  -786.58614884388385
    Total Energy =                       -786.5861488438836204
  Basis Set: CC-PVTZ
  Basis Set:
  Basis Set: CC-PVTZ
  Basis Set:
  @DF-RHF Final Energy:  -786.58650862203558
    Total Energy =                       -786.5865086220360354
  Basis Set: CC-PVTZ
  Basis Set:
  Basis Set: CC-PVTZ
  Basis Set:
  @DF-RHF Final Energy:  -786.58657366620980
    Total Energy =                       -786.5865736662100289
  Basis Set: CC-PVTZ
  Basis Set:
  Basis Set: CC-PVTZ
  Basis Set:
  @DF-RHF Final Energy:  -786.58659035045605
    Total Energy =                       -786.5865903504559355
  Basis Set: CC-PVTZ
  Basis Set:
  Basis Set: CC-PVTZ
  Basis Set:
  @DF-RHF Final Energy:  -786.58659448991182
    Total Energy =                       -786.5865944899119313
  Basis Set: CC-PVTZ
  Basis Set:
  Basis Set: CC-PVTZ
  Basis Set:
  @DF-RHF Final Energy:  -786.58659580308893
    Total Energy =                       -786.5865958030890397
  Basis Set: CC-PVTZ
  Basis Set:
  Charge       = 0
  Multiplicity = 1
  Basis Set: CC-PVTZ
  Basis Set:

    Orbital Energies (a.u.)
    -----------------------

    Doubly Occupied:

       1A    -26.365268     2A    -26.361842     3A    -26.360157
       4A    -26.351624     5A    -26.347977     6A    -26.347938
       7A    -20.607544     8A    -11.525655     9A    -11.515165
      10A    -11.351658    11A     -1.775661    12A     -1.762152
      13A     -1.670826    14A     -1.669001    15A     -1.657540
      16A     -1.655697    17A     -1.437742    18A     -1.105023
      19A     -1.002745    20A     -0.942900    21A     -0.876573
      22A     -0.867698    23A     -0.862830    24A     -0.849505
      25A     -0.839057    26A     -0.796924    27A     -0.756047
      28A     -0.740850    29A     -0.726490    30A     -0.724884
      31A     -0.716729    32A     -0.694872    33A     -0.691133
      34A     -0.675646    35A     -0.674648    36A     -0.670647
      37A     -0.659081    38A     -0.651708    39A     -0.621386
      40A     -0.549563    41A     -0.508119

  @DF-RHF Final Energy:  -786.58659587972056

   => Energetics <=

    Nuclear Repulsion Energy =            671.2508340812489678
    One-Electron Energy =               -2429.7378447766568570
    Two-Electron Energy =                 971.9004148156878955
    DFT Exchange-Correlation Energy =       0.0000000000000000
    Empirical Dispersion Energy =           0.0000000000000000
    PCM Polarization Energy =               0.0000000000000000
    EFP Energy =                            0.0000000000000000
    Total Energy =                       -786.5865958797199937
    Molecular point group: c1
  Basis Set: CC-PVTZ
  Basis Set:

  -Total Gradient:
     Atom            X                  Y                   Z
    ------   -----------------  -----------------  -----------------
       1        0.002262593038     0.000013656153     0.000076723032
       2       -0.002811735807     0.000127734126    -0.000633838837
       3        0.000508343311    -0.000596406098     0.002466174522
       4       -0.000012809324     0.000003784537    -0.000038611965
       5       -0.000036095974    -0.000019931434     0.000050066341
       6        0.000069250312     0.000444242829    -0.001909300624
       7        0.000032369186     0.000008026353    -0.000008478484
       8        0.000008662233    -0.000003064583     0.000009103148
       9       -0.000043619760     0.000000655969     0.000019714763
      10        0.000029993564    -0.000001726498    -0.000006532343
      11        0.000008729641     0.000023803274    -0.000001974673
      12       -0.000015680421    -0.000000774631    -0.000023044888

  **** Optimization is complete! (in 8 steps) ****
    Final optimized geometry and variables:
    Molecular point group: c1

    Geometry (in Angstrom), charge = 0, multiplicity = 1:

    H           -0.721468158679     1.841762752224     1.337358763550
    O           -0.686416233130     1.700556051959     0.407605833255
    C           -0.669048268481     0.356700225552     0.094781793805
    C           -0.004679694299    -0.473150543062     1.192698084180
    C            0.008962374986     0.227416774308    -1.268534004197
    H           -1.670246829534    -0.040437334090    -0.033936881612
    F           -0.575851558774    -0.168653846661     2.345261244274
    F           -0.168799929066    -1.754568876492     0.994101049898
    F            1.274538548420    -0.232635782420     1.317641153923
    F           -0.693034563603     0.880617204079    -2.162227175255
    F            0.064305453491    -1.030710305832    -1.642717333710
    F            1.223504268705     0.708592775222    -1.276336289797

  Mulliken Charges: (a.u.)
   Center  Symbol    Alpha    Beta     Spin     Total
       1     H     0.38291  0.38291  0.00000  0.23417
       2     O     4.18742  4.18742  0.00000 -0.37485
       3     C     2.99525  2.99525  0.00000  0.00950
       4     C     2.68492  2.68492  0.00000  0.63016
       5     C     2.67842  2.67842  0.00000  0.64316
       6     H     0.44434  0.44434  0.00000  0.11131
       7     F     4.61393  4.61393  0.00000 -0.22786
       8     F     4.60048  4.60048  0.00000 -0.20096
       9     F     4.60049  4.60049  0.00000 -0.20097
      10     F     4.60346  4.60346  0.00000 -0.20691
      11     F     4.60655  4.60655  0.00000 -0.21311
      12     F     4.60182  4.60182  0.00000 -0.20364

   Total alpha = 41.00000, Total beta = 41.00000, Total charge = -0.00000
