  ==> Input File <==

--------------------------------------------------------------------------
set {
	reference rhf
	basis cc-pvtz
}

set_num_threads( 4 )
memory 2 gb

molecule MOL {
0 1

O	 -0.007198	 0.601270	 1.677998
C	 -0.295612	 -0.236451	 0.893829
C	 -1.646910	 -0.882147	 0.781020
O	 0.550743	 -0.719877	 0.000412
H	 -2.045519	 -0.718694	 -0.211855
H	 -2.309706	 -0.464709	 1.521277
H	 -1.551628	 -1.950589	 0.925199
C	 1.863204	 -0.194033	 0.000410
H	 2.031502	 0.409177	 -0.879273
H	 2.524488	 -1.045142	 0.000793
H	 2.031291	 0.409823	 0.879686

	symmetry c1
}
set optking {
	frozen_dihedral = ("
		2 4 8 9
	")
}

ee = optimize('scf')
oeprop('DIPOLE', 'QUADRUPOLE', 'MULLIKEN_CHARGES')
f=open( 'psi4out.xyz', 'w' )
f.write( "11  " )
f.write( str(ee) + "\n" )
f.write( MOL.save_string_xyz() )
f.close()
--------------------------------------------------------------------------

    Molecular point group: c1
  Charge       = 0
  Multiplicity = 1
  Basis Set: CC-PVTZ
  Basis Set:
  @DF-RHF Final Energy:  -266.93659901984427
    Total Energy =                       -266.9365990198442091
    Molecular point group: c1
  Basis Set: CC-PVTZ
  Basis Set:
  Basis Set: CC-PVTZ
  Basis Set:
  @DF-RHF Final Energy:  -266.93690408867440
    Total Energy =                       -266.9369040886743960
  Basis Set: CC-PVTZ
  Basis Set:
  Basis Set: CC-PVTZ
  Basis Set:
  @DF-RHF Final Energy:  -266.93731722991890
    Total Energy =                       -266.9373172299189605
  Basis Set: CC-PVTZ
  Basis Set:
  Basis Set: CC-PVTZ
  Basis Set:
  @DF-RHF Final Energy:  -266.93732054195834
    Total Energy =                       -266.9373205419584565
  Basis Set: CC-PVTZ
  Basis Set:
  Basis Set: CC-PVTZ
  Basis Set:
  @DF-RHF Final Energy:  -266.93729212252686
    Total Energy =                       -266.9372921225266850
  Basis Set: CC-PVTZ
  Basis Set:
  Charge       = 0
  Multiplicity = 1
  Basis Set: CC-PVTZ
  Basis Set:

    Orbital Energies (a.u.)
    -----------------------

    Doubly Occupied:

       1A    -20.597728     2A    -20.534585     3A    -11.370123
       4A    -11.278568     5A    -11.232629     6A     -1.471740
       7A     -1.368226     8A     -1.037006     9A     -0.954110
      10A     -0.779073    11A     -0.699411    12A     -0.682165
      13A     -0.681001    14A     -0.597884    15A     -0.592780
      16A     -0.561616    17A     -0.530710    18A     -0.520905
      19A     -0.458532    20A     -0.446115

  @DF-RHF Final Energy:  -266.93732282664803

   => Energetics <=

    Nuclear Repulsion Energy =            183.2554474328373715
    One-Electron Energy =                -727.5957244667536088
    Two-Electron Energy =                 277.4029542072681807
    DFT Exchange-Correlation Energy =       0.0000000000000000
    Empirical Dispersion Energy =           0.0000000000000000
    PCM Polarization Energy =               0.0000000000000000
    EFP Energy =                            0.0000000000000000
    Total Energy =                       -266.9373228266480282
    Molecular point group: c1
  Basis Set: CC-PVTZ
  Basis Set:

  -Total Gradient:
     Atom            X                  Y                   Z
    ------   -----------------  -----------------  -----------------
       1       -0.000014550678    -0.000004669181    -0.000036597911
       2        0.000234297487    -0.000507614082     0.000512929818
       3        0.000008885369     0.000012235785    -0.000019925564
       4       -0.000216261317     0.000539037325    -0.000766657873
       5       -0.000000567406     0.000001494069     0.000001499162
       6       -0.000006094445     0.000004024643     0.000002797785
       7        0.000008886769     0.000008434323    -0.000000265202
       8       -0.000245509811     0.000554689913     0.000658100025
       9        0.000241323940    -0.000623054305    -0.000374800136
      10       -0.000015150900     0.000005177997     0.000008722066
      11        0.000004740993     0.000010243513     0.000014197830

  **** Optimization is complete! (in 6 steps) ****
    Final optimized geometry and variables:
    Molecular point group: c1

    Geometry (in Angstrom), charge = 0, multiplicity = 1:

    O           -0.155608796828     0.895389353355     1.026503798019
    C           -0.413232872066     0.055242751484     0.234897115402
    C           -1.753216145647    -0.610652970782     0.100761110260
    O            0.445452242969    -0.420982368492    -0.652484864366
    H           -2.138674000272    -0.451097632010    -0.897887644382
    H           -2.433328649334    -0.204466592895     0.831514248055
    H           -1.643764140354    -1.677777801253     0.244201964335
    C            1.771758500667     0.072667214422    -0.674417349219
    H            1.907316513863     0.663131802150    -1.569377242171
    H            2.431826791750    -0.780941650283    -0.707930895042
    H            1.976110029441     0.669907013166     0.197074522515

  Mulliken Charges: (a.u.)
   Center  Symbol    Alpha    Beta     Spin     Total
       1     O     4.19709  4.19709  0.00000 -0.39417
       2     C     2.79807  2.79807  0.00000  0.40385
       3     C     3.13940  3.13940  0.00000 -0.27881
       4     O     4.14992  4.14992  0.00000 -0.29984
       5     H     0.44554  0.44554  0.00000  0.10892
       6     H     0.43799  0.43799  0.00000  0.12401
       7     H     0.44579  0.44579  0.00000  0.10841
       8     C     3.03691  3.03691  0.00000 -0.07382
       9     H     0.45457  0.45457  0.00000  0.09087
      10     H     0.45121  0.45121  0.00000  0.09758
      11     H     0.44350  0.44350  0.00000  0.11301

   Total alpha = 20.00000, Total beta = 20.00000, Total charge =  0.00000
