  ==> Input File <==

--------------------------------------------------------------------------
set {
	reference rhf
	basis 6-31G*
}

set_num_threads( 4 )
memory 2 gb

molecule MOL {
0 1

H	 -3.593944	 2.051556	 1.379098
C	 -3.673312	 1.105598	 0.829111
C	 -2.660244	 0.921717	 -0.272021
O	 -4.513346	 0.316121	 1.116893
C	 -1.220012	 1.144545	 0.209990
H	 -2.790442	 -0.067678	 -0.694933
H	 -2.895027	 1.649847	 -1.047495
C	 -0.252658	 0.041456	 -0.226725
H	 -0.873521	 2.100229	 -0.171974
H	 -1.211708	 1.231594	 1.295398
C	 1.180775	 0.282413	 0.250794
H	 -0.266029	 -0.034465	 -1.312038
H	 -0.597733	 -0.921000	 0.146291
C	 2.148627	 -0.814315	 -0.201312
H	 1.516199	 1.249228	 -0.115937
H	 1.192670	 0.346017	 1.338083
C	 3.580890	 -0.659131	 0.322722
H	 2.166869	 -0.852443	 -1.289387
H	 1.762857	 -1.776509	 0.128956
C	 4.324889	 0.564933	 -0.213704
H	 4.142010	 -1.551473	 0.056605
H	 3.564836	 -0.624694	 1.410140
H	 4.342616	 0.565491	 -1.300421
H	 3.866655	 1.493402	 0.110242
H	 5.353900	 0.572371	 0.132816

	symmetry c1
}
set optking {
	frozen_dihedral = ("
		6 3 5 8
	")
}

ee = optimize('scf')
oeprop('DIPOLE', 'QUADRUPOLE', 'MULLIKEN_CHARGES')
f=open( 'psi4out.xyz', 'w' )
f.write( "25  " )
f.write( str(ee) + "\n" )
f.write( MOL.save_string_xyz() )
f.close()
--------------------------------------------------------------------------

    Molecular point group: c1
  Charge       = 0
  Multiplicity = 1
  Basis Set: 6-31G*
  Basis Set:
  @DF-RHF Final Energy:  -387.11742991631320
    Total Energy =                       -387.1174299163127444
    Molecular point group: c1
  Basis Set: 6-31G*
  Basis Set:
  Basis Set: 6-31G*
  Basis Set:
  @DF-RHF Final Energy:  -387.11767570487763
    Total Energy =                       -387.1176757048776835
  Basis Set: 6-31G*
  Basis Set:
  Basis Set: 6-31G*
  Basis Set:
  @DF-RHF Final Energy:  -387.11761196136899
    Total Energy =                       -387.1176119613692208
  Basis Set: 6-31G*
  Basis Set:
  Basis Set: 6-31G*
  Basis Set:
  @DF-RHF Final Energy:  -387.11781406299343
    Total Energy =                       -387.1178140629942845
  Basis Set: 6-31G*
  Basis Set:
  @DF-RHF Final Energy:  -387.11782251606706
    Total Energy =                       -387.1178225160668944
  Basis Set: 6-31G*
  Basis Set:
  @DF-RHF Final Energy:  -387.11782610230767
    Total Energy =                       -387.1178261023076175
  Basis Set: 6-31G*
  Basis Set:
  Basis Set: 6-31G*
  Basis Set:
  @DF-RHF Final Energy:  -387.11782872157505
    Total Energy =                       -387.1178287215745968
  Basis Set: 6-31G*
  Basis Set:
  Basis Set: 6-31G*
  Basis Set:
  @DF-RHF Final Energy:  -387.11782980434077
    Total Energy =                       -387.1178298043409995
  Basis Set: 6-31G*
  Basis Set:
  Charge       = 0
  Multiplicity = 1
  Basis Set: 6-31G*
  Basis Set:

    Orbital Energies (a.u.)
    -----------------------

    Doubly Occupied:

       1A    -20.561507     2A    -11.326480     3A    -11.235471
       4A    -11.234363     5A    -11.225444     6A    -11.220223
       7A    -11.218860     8A    -11.218040     9A    -11.211437
      10A     -1.401752    11A     -1.103110    12A     -1.069003
      13A     -1.014158    14A     -0.944567    15A     -0.875110
      16A     -0.813313    17A     -0.796156    18A     -0.781041
      19A     -0.672508    20A     -0.655847    21A     -0.633116
      22A     -0.624592    23A     -0.612530    24A     -0.587442
      25A     -0.567032    26A     -0.559593    27A     -0.527499
      28A     -0.522373    29A     -0.516557    30A     -0.492546
      31A     -0.488648    32A     -0.479519    33A     -0.465444
      34A     -0.459678    35A     -0.445917    36A     -0.408568

  @DF-RHF Final Energy:  -387.11783032534800

   => Energetics <=

    Nuclear Repulsion Energy =            432.5889851757581255
    One-Electron Energy =               -1381.4747401040713157
    Two-Electron Energy =                 561.7679246029645128
    DFT Exchange-Correlation Energy =       0.0000000000000000
    Empirical Dispersion Energy =           0.0000000000000000
    PCM Polarization Energy =               0.0000000000000000
    EFP Energy =                            0.0000000000000000
    Total Energy =                       -387.1178303253486774
    Molecular point group: c1
  Basis Set: 6-31G*
  Basis Set:

  -Total Gradient:
     Atom            X                  Y                   Z
    ------   -----------------  -----------------  -----------------
       1        0.000003989154    -0.000005161352    -0.000001974707
       2        0.000025704328    -0.000009825597    -0.000020825995
       3       -0.000730493355    -0.001167036347     0.002811398003
       4       -0.000025669588    -0.000003259100     0.000012234287
       5        0.000498685235     0.001202105179    -0.002204058030
       6        0.000505588978     0.000711709967    -0.001815488945
       7        0.000010967842     0.000019943746    -0.000013232923
       8       -0.000290282458    -0.000732485116     0.001225828999
       9       -0.000022956537     0.000006862024    -0.000007192810
      10        0.000002581509    -0.000014554417    -0.000012148157
      11        0.000007371123    -0.000013786959     0.000017830770
      12       -0.000016622577     0.000016176299     0.000014394446
      13       -0.000004154924    -0.000007010894    -0.000010365144
      14        0.000014253368     0.000000831177     0.000012543736
      15        0.000018039946     0.000004296632     0.000000702737
      16        0.000005721392     0.000002914593     0.000001344426
      17        0.000011213718    -0.000015817561    -0.000020012427
      18        0.000000008557    -0.000007842932     0.000000542974
      19       -0.000002302702     0.000007307615     0.000004571652
      20       -0.000008138921    -0.000002507732     0.000003083662
      21        0.000010994907     0.000003728717    -0.000001773676
      22       -0.000000335579    -0.000003976928    -0.000002734836
      23        0.000000151919    -0.000002491506     0.000002978742
      24       -0.000015474311     0.000006829390    -0.000000590647
      25        0.000001158984     0.000003051104     0.000002943862

  **** Optimization is complete! (in 9 steps) ****
    Final optimized geometry and variables:
    Molecular point group: c1

    Geometry (in Angstrom), charge = 0, multiplicity = 1:

    H           -3.449088693583     1.679565197607     1.224996202744
    C           -3.562601368688     0.768278045192     0.625574160947
    C           -2.538035443659     0.584365429219    -0.464061223621
    O           -4.449262032210     0.010720572542     0.852740952415
    C           -1.089525799050     0.829078917432     0.018970010445
    H           -2.661174949861    -0.407329820111    -0.882687018326
    H           -2.787588175737     1.288167502943    -1.256192345313
    C           -0.122910728947    -0.272726985886    -0.421579514169
    H           -0.735311737242     1.791168642786    -0.338084168247
    H           -1.067424938687     0.888941552187     1.105732562757
    C            1.313294377630    -0.033128759813     0.046940270750
    H           -0.140343450339    -0.353690228927    -1.506944367790
    H           -0.476585035755    -1.227446311205    -0.038369157542
    C            2.274002941925    -1.139902912268    -0.396362445255
    H            1.652790129827     0.927972739237    -0.330864055038
    H            1.329262975034     0.041413113395     1.133339449705
    C            3.707622719125    -0.989619077591     0.125312176922
    H            2.291937132876    -1.186634034006    -1.484109107773
    H            1.882317607985    -2.096972361595    -0.058270285383
    C            4.457098528687     0.228683852940    -0.417127257833
    H            4.264069466017    -1.886062316515    -0.136665701692
    H            3.692060304032    -0.949968267645     1.212575667164
    H            4.477954758479     0.222055739014    -1.503677568609
    H            4.001309570244     1.160979568860    -0.100454160262
    H            5.485071883326     0.235027280632    -0.068146021919

  Mulliken Charges: (a.u.)
   Center  Symbol    Alpha    Beta     Spin     Total
       1     H     0.43149  0.43149  0.00000  0.13703
       2     C     2.83201  2.83201  0.00000  0.33598
       3     C     3.21116  3.21116  0.00000 -0.42233
       4     O     4.23819  4.23819  0.00000 -0.47637
       5     C     3.16660  3.16660  0.00000 -0.33320
       6     H     0.39698  0.39698  0.00000  0.20605
       7     H     0.40503  0.40503  0.00000  0.18994
       8     C     3.15332  3.15332  0.00000 -0.30665
       9     H     0.41498  0.41498  0.00000  0.17005
      10     H     0.41694  0.41694  0.00000  0.16611
      11     C     3.15527  3.15527  0.00000 -0.31054
      12     H     0.42039  0.42039  0.00000  0.15922
      13     H     0.41792  0.41792  0.00000  0.16415
      14     C     3.15302  3.15302  0.00000 -0.30605
      15     H     0.42100  0.42100  0.00000  0.15799
      16     H     0.42289  0.42289  0.00000  0.15421
      17     C     3.15268  3.15268  0.00000 -0.30537
      18     H     0.42366  0.42366  0.00000  0.15267
      19     H     0.42104  0.42104  0.00000  0.15793
      20     C     3.24140  3.24140  0.00000 -0.48280
      21     H     0.42006  0.42006  0.00000  0.15988
      22     H     0.42284  0.42284  0.00000  0.15431
      23     H     0.42210  0.42210  0.00000  0.15580
      24     H     0.42053  0.42053  0.00000  0.15894
      25     H     0.41848  0.41848  0.00000  0.16304

   Total alpha = 36.00000, Total beta = 36.00000, Total charge = -0.00000
