  ==> Input File <==

--------------------------------------------------------------------------
set {
	reference rhf
	basis 6-31G*
}

set_num_threads( 4 )
memory 2 gb

molecule MOL {
0 1

H	 -3.567279	 0.029986	 -1.148636
O	 -3.517110	 -0.026191	 -0.205115
C	 -2.306886	 0.532354	 0.237577
C	 -1.177863	 -0.397191	 -0.171080
H	 -2.156308	 1.517575	 -0.201710
H	 -2.315015	 0.655684	 1.319734
C	 0.198102	 0.111031	 0.262842
H	 -1.208843	 -0.518759	 -1.250427
H	 -1.368741	 -1.376554	 0.258909
C	 1.331804	 -0.827780	 -0.158768
H	 0.361943	 1.100838	 -0.156218
H	 0.217265	 0.229072	 1.345532
C	 2.723619	 -0.410569	 0.329459
H	 1.342964	 -0.912588	 -1.244120
H	 1.116806	 -1.824343	 0.220779
C	 3.243875	 0.895854	 -0.272975
H	 3.424222	 -1.207124	 0.091250
H	 2.714788	 -0.329854	 1.414619
H	 3.251977	 0.848779	 -1.358681
H	 2.637085	 1.747371	 0.016682
H	 4.259473	 1.094070	 0.055697

	symmetry c1
}
set optking {
	frozen_dihedral = ("
		1 2 3 5
	")
}

ee = optimize('scf')
oeprop('DIPOLE', 'QUADRUPOLE', 'MULLIKEN_CHARGES')
f=open( 'psi4out.xyz', 'w' )
f.write( "21  " )
f.write( str(ee) + "\n" )
f.write( MOL.save_string_xyz() )
f.close()
--------------------------------------------------------------------------

    Molecular point group: c1
  Charge       = 0
  Multiplicity = 1
  Basis Set: 6-31G*
  Basis Set:
  @DF-RHF Final Energy:  -310.21091021554855
    Total Energy =                       -310.2109102155487790
    Molecular point group: c1
  Basis Set: 6-31G*
  Basis Set:
  Basis Set: 6-31G*
  Basis Set:
  @DF-RHF Final Energy:  -310.21231577466142
    Total Energy =                       -310.2123157746616471
  Basis Set: 6-31G*
  Basis Set:
  Basis Set: 6-31G*
  Basis Set:
  @DF-RHF Final Energy:  -310.21267773824491
    Total Energy =                       -310.2126777382449063
  Basis Set: 6-31G*
  Basis Set:
  Basis Set: 6-31G*
  Basis Set:
  @DF-RHF Final Energy:  -310.21268171037900
    Total Energy =                       -310.2126817103790017
  Basis Set: 6-31G*
  Basis Set:
  Basis Set: 6-31G*
  Basis Set:
  @DF-RHF Final Energy:  -310.21267856685540
    Total Energy =                       -310.2126785668551179
  Basis Set: 6-31G*
  Basis Set:
  Charge       = 0
  Multiplicity = 1
  Basis Set: 6-31G*
  Basis Set:

    Orbital Energies (a.u.)
    -----------------------

    Doubly Occupied:

       1A    -20.552235     2A    -11.267030     3A    -11.218647
       4A    -11.217217     5A    -11.216367     6A    -11.214929
       7A    -11.210048     8A     -1.359054     9A     -1.088661
      10A     -1.034593    11A     -0.955291    12A     -0.879152
      13A     -0.817303    14A     -0.780829    15A     -0.695654
      16A     -0.643313    17A     -0.623764    18A     -0.610847
      19A     -0.591865    20A     -0.570036    21A     -0.549916
      22A     -0.522182    23A     -0.505500    24A     -0.499706
      25A     -0.474732    26A     -0.463995    27A     -0.462769
      28A     -0.458101    29A     -0.420485

  @DF-RHF Final Energy:  -310.21268256573603

   => Energetics <=

    Nuclear Repulsion Energy =            312.1761584001587835
    One-Electron Energy =               -1038.9692405429109385
    Two-Electron Energy =                 416.5803995770159531
    DFT Exchange-Correlation Energy =       0.0000000000000000
    Empirical Dispersion Energy =           0.0000000000000000
    PCM Polarization Energy =               0.0000000000000000
    EFP Energy =                            0.0000000000000000
    Total Energy =                       -310.2126825657362019
    Molecular point group: c1
  Basis Set: 6-31G*
  Basis Set:

  -Total Gradient:
     Atom            X                  Y                   Z
    ------   -----------------  -----------------  -----------------
       1       -0.000352454200     0.000840807609     0.000112983570
       2        0.000543087351    -0.001112944412    -0.000291821596
       3       -0.000474960044     0.000621041353     0.000833079715
       4        0.000013136308     0.000006233898     0.000009698899
       5        0.000305085036    -0.000339743714    -0.000655026086
       6       -0.000016708693    -0.000009218893    -0.000001294750
       7       -0.000045682122    -0.000001550231    -0.000007705439
       8        0.000001335960    -0.000001828987    -0.000001408686
       9       -0.000011334487    -0.000001674553    -0.000000331706
      10        0.000009099271    -0.000001702530     0.000001146287
      11        0.000003430304    -0.000002362565     0.000004840476
      12        0.000007981823     0.000004887517    -0.000002883735
      13        0.000008407565    -0.000009267741    -0.000003514830
      14       -0.000001050355     0.000003733606     0.000003041524
      15        0.000000535442     0.000003566189    -0.000001321308
      16        0.000001195220    -0.000000290745    -0.000000183962
      17        0.000007616448     0.000000780359     0.000003225487
      18       -0.000001224263     0.000000678426    -0.000001823405
      19        0.000000372331     0.000000581959    -0.000000849881
      20        0.000002881780    -0.000000905362     0.000000081071
      21       -0.000000750674    -0.000000821183     0.000000068352

  **** Optimization is complete! (in 6 steps) ****
    Final optimized geometry and variables:
    Molecular point group: c1

    Geometry (in Angstrom), charge = 0, multiplicity = 1:

    H           -3.682106762680     0.089976279143    -1.078405811796
    O           -3.569322241043     0.013986209652    -0.141524665687
    C           -2.310939179263     0.522204266036     0.219765249648
    C           -1.172508808551    -0.408482980843    -0.180497164306
    H           -2.156894707452     1.509020691277    -0.214471602690
    H           -2.335038515652     0.642716321679     1.295641040973
    C            0.200224738963     0.105967685795     0.257125090481
    H           -1.185105781809    -0.539109392765    -1.262298066439
    H           -1.362814025569    -1.387208134784     0.251275728922
    C            1.341528298805    -0.829325591198    -0.151710615248
    H            0.362217844513     1.095058936781    -0.164533962839
    H            0.210139234628     0.229217583635     1.339167568244
    C            2.727498009753    -0.403670743592     0.345882575682
    H            1.362236425654    -0.918484985648    -1.236753781543
    H            1.128032585412    -1.825263254592     0.230222791687
    C            3.246250725564     0.903035360423    -0.257193276839
    H            3.433621108048    -1.197796486600     0.116160272708
    H            2.709495262694    -0.319123349121     1.430540597046
    H            3.263214687223     0.852183428490    -1.342676782367
    H            2.633480319677     1.752801854867     0.024869378508
    H            4.258282819324     1.107029063746     0.078643026277

  Mulliken Charges: (a.u.)
   Center  Symbol    Alpha    Beta     Spin     Total
       1     H     0.28284  0.28284  0.00000  0.43433
       2     O     4.37071  4.37071  0.00000 -0.74142
       3     C     2.99058  2.99058  0.00000  0.01883
       4     C     3.16424  3.16424  0.00000 -0.32848
       5     H     0.43208  0.43208  0.00000  0.13585
       6     H     0.41672  0.41672  0.00000  0.16657
       7     C     3.16194  3.16194  0.00000 -0.32389
       8     H     0.42826  0.42826  0.00000  0.14348
       9     H     0.41395  0.41395  0.00000  0.17209
      10     C     3.15162  3.15162  0.00000 -0.30324
      11     H     0.42159  0.42159  0.00000  0.15683
      12     H     0.42211  0.42211  0.00000  0.15579
      13     C     3.15262  3.15262  0.00000 -0.30523
      14     H     0.42411  0.42411  0.00000  0.15178
      15     H     0.42065  0.42065  0.00000  0.15869
      16     C     3.24135  3.24135  0.00000 -0.48269
      17     H     0.42040  0.42040  0.00000  0.15920
      18     H     0.42282  0.42282  0.00000  0.15435
      19     H     0.42239  0.42239  0.00000  0.15522
      20     H     0.42032  0.42032  0.00000  0.15935
      21     H     0.41871  0.41871  0.00000  0.16259

   Total alpha = 29.00000, Total beta = 29.00000, Total charge =  0.00000
