  ==> Input File <==

--------------------------------------------------------------------------
set {
	reference rhf
	basis 6-31G*
}

set_num_threads( 4 )
memory 2 gb

molecule MOL {
0 1

O	 1.846825	 1.296220	 0.000415
C	 1.705091	 0.115954	 0.001797
C	 0.381791	 -0.609817	 0.001258
O	 2.721346	 -0.737485	 -0.000216
C	 -0.823008	 0.326187	 0.001381
H	 0.371250	 -1.265087	 -0.865474
H	 0.370908	 -1.265746	 0.867490
C	 -1.758167	 0.068676	 -1.181085
H	 -0.476745	 1.354713	 -0.019218
H	 -1.366375	 0.209580	 0.933832
C	 -2.971873	 0.999547	 -1.197063
H	 -1.206538	 0.183622	 -2.113013
H	 -2.100068	 -0.964941	 -1.156166
C	 -3.906513	 0.740962	 -2.378093
H	 -2.632040	 2.032455	 -1.224550
H	 -3.524431	 0.885239	 -0.267143
H	 -3.391393	 0.881411	 -3.324211
H	 -4.756674	 1.415796	 -2.361492
H	 -4.290537	 -0.275153	 -2.359433
C	 4.024888	 -0.184556	 -0.001949
H	 4.179030	 0.422472	 -0.882452
H	 4.701782	 -1.024608	 -0.003642
H	 4.181981	 0.421185	 0.878906

	symmetry c1
}
set optking {
	frozen_dihedral = ("
		9 5 3 6
	")
}

ee = optimize('scf')
oeprop('DIPOLE', 'QUADRUPOLE', 'MULLIKEN_CHARGES')
f=open( 'psi4out.xyz', 'w' )
f.write( "23  " )
f.write( str(ee) + "\n" )
f.write( MOL.save_string_xyz() )
f.close()
--------------------------------------------------------------------------

    Molecular point group: c1
  Charge       = 0
  Multiplicity = 1
  Basis Set: 6-31G*
  Basis Set:
  @DF-RHF Final Energy:  -422.97142461319868
    Total Energy =                       -422.9714246131985647
    Molecular point group: c1
  Basis Set: 6-31G*
  Basis Set:
  Basis Set: 6-31G*
  Basis Set:
  @DF-RHF Final Energy:  -422.97169163225482
    Total Energy =                       -422.9716916322548741
  Basis Set: 6-31G*
  Basis Set:
  Basis Set: 6-31G*
  Basis Set:
  @DF-RHF Final Energy:  -422.97145196494517
    Total Energy =                       -422.9714519649454587
  Basis Set: 6-31G*
  Basis Set:
  Basis Set: 6-31G*
  Basis Set:
  @DF-RHF Final Energy:  -422.97179627769424
    Total Energy =                       -422.9717962776937838
  Basis Set: 6-31G*
  Basis Set:
  Basis Set: 6-31G*
  Basis Set:
  @DF-RHF Final Energy:  -422.97180590296449
    Total Energy =                       -422.9718059029645474
  Basis Set: 6-31G*
  Basis Set:
  Basis Set: 6-31G*
  Basis Set:
  @DF-RHF Final Energy:  -422.97180701213966
    Total Energy =                       -422.9718070121398341
  Basis Set: 6-31G*
  Basis Set:
  Charge       = 0
  Multiplicity = 1
  Basis Set: 6-31G*
  Basis Set:

    Orbital Energies (a.u.)
    -----------------------

    Doubly Occupied:

       1A    -20.603878     2A    -20.546280     3A    -11.373182
       4A    -11.281040     5A    -11.235343     6A    -11.217341
       7A    -11.216563     8A    -11.215145     9A    -11.208652
      10A     -1.469915    11A     -1.363265    12A     -1.090514
      13A     -1.042334    14A     -0.986493    15A     -0.931371
      16A     -0.843982    17A     -0.794777    18A     -0.766820
      19A     -0.700981    20A     -0.681097    21A     -0.672216
      22A     -0.644027    23A     -0.611031    24A     -0.599436
      25A     -0.570671    26A     -0.557459    27A     -0.555740
      28A     -0.528361    29A     -0.523380    30A     -0.500443
      31A     -0.486408    32A     -0.467868    33A     -0.462943
      34A     -0.457683    35A     -0.454810    36A     -0.438203

  @DF-RHF Final Energy:  -422.97180748233961

   => Energetics <=

    Nuclear Repulsion Energy =            454.2708099427568413
    One-Electron Energy =               -1476.2859332375135182
    Two-Electron Energy =                 599.0433158124175179
    DFT Exchange-Correlation Energy =       0.0000000000000000
    Empirical Dispersion Energy =           0.0000000000000000
    PCM Polarization Energy =               0.0000000000000000
    EFP Energy =                            0.0000000000000000
    Total Energy =                       -422.9718074823391589
    Molecular point group: c1
  Basis Set: 6-31G*
  Basis Set:

  -Total Gradient:
     Atom            X                  Y                   Z
    ------   -----------------  -----------------  -----------------
       1        0.000075637150    -0.000143147571    -0.000035349434
       2       -0.000180326166     0.000160491486     0.000139582006
       3        0.000129754461     0.000382309624    -0.000286518588
       4        0.000129694132     0.000028478534    -0.000056413491
       5       -0.000030987320    -0.000147948258    -0.000355733497
       6       -0.000227460206    -0.000276741943     0.000181643421
       7       -0.000032768520     0.000009593538     0.000046866085
       8        0.000062725618    -0.000056521661     0.000014765493
       9        0.000019161653     0.000035309556     0.000378542694
      10        0.000032989170    -0.000016092698    -0.000023373909
      11        0.000032685374     0.000010258181     0.000014742919
      12       -0.000016847371    -0.000027594153    -0.000001451296
      13        0.000004110832     0.000017315854     0.000011235673
      14       -0.000024380348     0.000027336404    -0.000021307290
      15       -0.000011239647     0.000001510559     0.000007473709
      16        0.000009290140    -0.000004430477    -0.000011883749
      17       -0.000002583079    -0.000001505534    -0.000001401708
      18       -0.000010356301    -0.000000742926    -0.000012600335
      19        0.000005791030     0.000004302069     0.000006190758
      20        0.000019813502    -0.000014900762     0.000011433009
      21        0.000002655792     0.000001301742    -0.000007607991
      22        0.000010529025     0.000010461472    -0.000002579391
      23        0.000002111080     0.000000956960     0.000003744910

  **** Optimization is complete! (in 7 steps) ****
    Final optimized geometry and variables:
    Molecular point group: c1

    Geometry (in Angstrom), charge = 0, multiplicity = 1:

    O            1.709972264579     1.077293677844     0.491048209522
    C            1.547206386471    -0.099646038125     0.524099428382
    C            0.217358162958    -0.819060370119     0.524445134141
    O            2.550952681650    -0.967275965838     0.560148909524
    C           -1.010778530369     0.105774299812     0.518770101440
    H            0.223460037904    -1.477366210848    -0.339707036238
    H            0.220506811306    -1.480433852378     1.384782919848
    C           -1.952893797355    -0.153097383661    -0.659237381824
    H           -0.678554481101     1.136176089475     0.497795741879
    H           -1.559545936497    -0.020506054007     1.447555402472
    C           -3.177263960697     0.762678175955    -0.657656144229
    H           -1.405180009997    -0.019380570901    -1.590762771932
    H           -2.280612276343    -1.191641277051    -0.643676881112
    C           -4.113210883191     0.510442378261    -1.839229372103
    H           -2.849329179714     1.799590506925    -0.671031798343
    H           -3.725856003565     0.628088283156     0.272237070007
    H           -3.603069726565     0.671570320976    -2.784694863657
    H           -4.971511977273     1.174444593342    -1.809716536664
    H           -4.484748821508    -0.510500286141    -1.834661646232
    C            3.862712916178    -0.434024965949     0.557267171881
    H            4.036623085688     0.142652993312    -0.339787114275
    H            4.526628501935    -1.283792395525     0.589975489993
    H            4.018563933201     0.196417179265     1.420813619185

  Mulliken Charges: (a.u.)
   Center  Symbol    Alpha    Beta     Spin     Total
       1     O     4.28484  4.28484  0.00000 -0.56969
       2     C     2.61294  2.61294  0.00000  0.77413
       3     C     3.21006  3.21006  0.00000 -0.42013
       4     O     4.30538  4.30538  0.00000 -0.61076
       5     C     3.16196  3.16196  0.00000 -0.32391
       6     H     0.39764  0.39764  0.00000  0.20473
       7     H     0.39730  0.39730  0.00000  0.20540
       8     C     3.15496  3.15496  0.00000 -0.30991
       9     H     0.39396  0.39396  0.00000  0.21208
      10     H     0.41897  0.41897  0.00000  0.16206
      11     C     3.15271  3.15271  0.00000 -0.30543
      12     H     0.42180  0.42180  0.00000  0.15640
      13     H     0.42446  0.42446  0.00000  0.15108
      14     C     3.23945  3.23945  0.00000 -0.47891
      15     H     0.41980  0.41980  0.00000  0.16039
      16     H     0.42291  0.42291  0.00000  0.15417
      17     H     0.42124  0.42124  0.00000  0.15752
      18     H     0.41879  0.41879  0.00000  0.16241
      19     H     0.42225  0.42225  0.00000  0.15550
      20     C     3.09197  3.09197  0.00000 -0.18395
      21     H     0.40913  0.40913  0.00000  0.18174
      22     H     0.40848  0.40848  0.00000  0.18304
      23     H     0.40898  0.40898  0.00000  0.18203

   Total alpha = 36.00000, Total beta = 36.00000, Total charge =  0.00000
