                              Psi4 1.0.54 Driver

  ==> Input File <==

--------------------------------------------------------------------------
set {
	reference rhf
	basis cc-pvtz
}

set_num_threads( 4 )
memory 2 gb

molecule MOL {
0 1

H	 -2.231139	 1.007739	 -2.019719
N	 -1.256703	 0.940207	 -1.817272
C	 -0.776117	 -0.414793	 -2.015143
H	 -1.126347	 1.213447	 -0.866302
C	 0.698395	 -0.506133	 -1.695585
H	 -1.304287	 -1.153999	 -1.414182
H	 -0.914368	 -0.683550	 -3.056636
O	 0.881195	 -0.248324	 -0.336237
H	 1.068775	 -1.500547	 -1.940802
H	 1.247260	 0.218832	 -2.292328
C	 2.208068	 -0.234417	 0.074171
H	 2.725499	 -1.027054	 -0.446768
H	 2.688377	 0.712084	 -0.164856
H	 2.295137	 -0.403407	 1.144883

	symmetry c1
}
set optking {
	frozen_dihedral = ("
		5 8 11 13
	")
}

ee,wfn = optimize('scf', return_wfn=True)
oeprop( wfn, 'DIPOLE', 'QUADRUPOLE', 'MULLIKEN_CHARGES')
f=open( 'psi4out.xyz', 'w' )
f.write( "14  " )
f.write( str(ee) + "\n" )
f.write( MOL.save_string_xyz() )
f.close()
--------------------------------------------------------------------------

    Molecular point group: c1
  Charge       = 0
  Multiplicity = 1
  Basis Set: CC-PVTZ
  Basis Set:
  @DF-RHF Final Energy:  -248.22429124308121
    Total Energy =                       -248.2242912430810975
    Molecular point group: c1
  Basis Set: CC-PVTZ
  Basis Set:
  Basis Set: CC-PVTZ
  Basis Set:
  @DF-RHF Final Energy:  -248.22514649270275
    Total Energy =                       -248.2251464927028337
  Basis Set: CC-PVTZ
  Basis Set:
  Basis Set: CC-PVTZ
  Basis Set:
  @DF-RHF Final Energy:  -248.22537025914946
    Total Energy =                       -248.2253702591494857
  Basis Set: CC-PVTZ
  Basis Set:
  Charge       = 0
  Multiplicity = 1
  Basis Set: CC-PVTZ
  Basis Set:

    Orbital Energies (a.u.)
    -----------------------

    Doubly Occupied:

       1A    -20.549956     2A    -15.523515     3A    -11.264001
       4A    -11.263437     5A    -11.239773     6A     -1.383528
       7A     -1.175966     8A     -1.000598     9A     -0.907637
      10A     -0.815591    11A     -0.685559    12A     -0.675410
      13A     -0.646195    14A     -0.612644    15A     -0.607148
      16A     -0.541837    17A     -0.532215    18A     -0.497339
      19A     -0.474353    20A     -0.418895    21A     -0.383881

  @DF-RHF Final Energy:  -248.22537112633177

   => Energetics <=

    Nuclear Repulsion Energy =            194.6286668179505455
    One-Electron Energy =                -723.3091224707222864
    Two-Electron Energy =                 280.4550845264401460
    DFT Exchange-Correlation Energy =       0.0000000000000000
    Empirical Dispersion Energy =           0.0000000000000000
    PCM Polarization Energy =               0.0000000000000000
    EFP Energy =                            0.0000000000000000
    Total Energy =                       -248.2253711263316518
    Molecular point group: c1
  Basis Set: CC-PVTZ
  Basis Set:

  -Total Gradient:
     Atom            X                  Y                   Z
    ------   -----------------  -----------------  -----------------
       1       -0.000002557138    -0.000000583884    -0.000001564034
       2       -0.000003201159     0.000007863974    -0.000018002838
       3       -0.000009860556    -0.000003464976     0.000115726204
       4        0.000008524685    -0.000006917344    -0.000006292578
       5        0.000007531212    -0.001781772597     0.000284331414
       6       -0.000032289834    -0.000016146214    -0.000002757387
       7        0.000041511751     0.000002168003     0.000020464927
       8       -0.000039117393     0.002890792603     0.000096468277
       9       -0.000001549014    -0.000000169516     0.000041862765
      10        0.000015341875    -0.000001733729    -0.000005097416
      11        0.000762576889    -0.001972347188    -0.002613173139
      12        0.000016581811    -0.000003534523    -0.000007356525
      13       -0.000752239983     0.000872045709     0.002082802660
      14       -0.000011253145     0.000013799682     0.000012587673

  **** Optimization is complete! (in 4 steps) ****
    Final optimized geometry and variables:
    Molecular point group: c1

    Geometry (in Angstrom), charge = 0, multiplicity = 1:

    H           -2.585656323572     1.067305883630    -0.905519256416
    N           -1.612799366988     1.008373877540    -0.693096896325
    C           -1.117777039729    -0.341925563396    -0.887289501229
    H           -1.495052107680     1.281514413369     0.259530805654
    C            0.354794827094    -0.419839667029    -0.555710626302
    H           -1.643693481091    -1.086247593715    -0.290565813064
    H           -1.244887689107    -0.612008683362    -1.929872389821
    O            0.521975078884    -0.164235277634     0.806448273372
    H            0.736852235312    -1.410171721443    -0.797533865875
    H            0.900615179339     0.310986281150    -1.148361362178
    C            1.843664873470    -0.128548733980     1.236039002394
    H            2.433050527191    -0.926032028199     0.791542429054
    H            2.308481027375     0.827031942549     1.006390515741
    H            1.847463355846    -0.255729462430     2.309851322019

  Mulliken Charges: (a.u.)
   Center  Symbol    Alpha    Beta     Spin     Total
       1     H     0.43024  0.43024  0.00000  0.13952
       2     N     3.69417  3.69417  0.00000 -0.38834
       3     C     3.02269  3.02269  0.00000 -0.04538
       4     H     0.42244  0.42244  0.00000  0.15511
       5     C     2.96871  2.96871  0.00000  0.06259
       6     H     0.46463  0.46463  0.00000  0.07074
       7     H     0.45871  0.45871  0.00000  0.08259
       8     O     4.18095  4.18095  0.00000 -0.36190
       9     H     0.46866  0.46866  0.00000  0.06269
      10     H     0.46970  0.46970  0.00000  0.06059
      11     C     3.03113  3.03113  0.00000 -0.06225
      12     H     0.47253  0.47253  0.00000  0.05494
      13     H     0.46561  0.46561  0.00000  0.06877
      14     H     0.44983  0.44983  0.00000  0.10034

   Total alpha = 21.00000, Total beta = 21.00000, Total charge = -0.00000

*** Psi4 exiting successfully. Buy a developer a beer!
