  ==> Input File <==

--------------------------------------------------------------------------
set {
	reference rhf
	basis 6-31G*
}

set_num_threads( 4 )
memory 2 gb

molecule MOL {
0 1

H	 -3.474527	 0.429137	 -2.248812
O	 -3.061507	 -0.090733	 -1.574235
C	 -1.809764	 0.459729	 -1.253732
C	 -1.177863	 -0.397191	 -0.171080
H	 -1.166265	 0.485316	 -2.132118
H	 -1.920732	 1.484207	 -0.900926
C	 0.198102	 0.111031	 0.262842
H	 -1.100898	 -1.415457	 -0.542481
H	 -1.852769	 -0.425539	 0.679905
C	 1.331804	 -0.827780	 -0.158768
H	 0.361943	 1.100838	 -0.156218
H	 0.217265	 0.229072	 1.345532
C	 2.723619	 -0.410569	 0.329459
H	 1.342964	 -0.912588	 -1.244120
H	 1.116806	 -1.824343	 0.220779
C	 3.243875	 0.895854	 -0.272975
H	 3.424222	 -1.207124	 0.091250
H	 2.714788	 -0.329854	 1.414619
H	 3.251977	 0.848779	 -1.358681
H	 2.637085	 1.747371	 0.016682
H	 4.259473	 1.094070	 0.055697

	symmetry c1
}
set optking {
	frozen_dihedral = ("
		8 4 7 10
	")
}

ee = optimize('scf')
oeprop('DIPOLE', 'QUADRUPOLE', 'MULLIKEN_CHARGES')
f=open( 'psi4out.xyz', 'w' )
f.write( "21  " )
f.write( str(ee) + "\n" )
f.write( MOL.save_string_xyz() )
f.close()
--------------------------------------------------------------------------

    Molecular point group: c1
  Charge       = 0
  Multiplicity = 1
  Basis Set: 6-31G*
  Basis Set:
  @DF-RHF Final Energy:  -310.20779960131614
    Total Energy =                       -310.2077996013161965
    Molecular point group: c1
  Basis Set: 6-31G*
  Basis Set:
  Basis Set: 6-31G*
  Basis Set:
  @DF-RHF Final Energy:  -310.20803346934025
    Total Energy =                       -310.2080334693403074
  Basis Set: 6-31G*
  Basis Set:
  Basis Set: 6-31G*
  Basis Set:
  @DF-RHF Final Energy:  -310.20812294780239
    Total Energy =                       -310.2081229478023943
  Basis Set: 6-31G*
  Basis Set:
  Basis Set: 6-31G*
  Basis Set:
  @DF-RHF Final Energy:  -310.20811668029029
    Total Energy =                       -310.2081166802897769
  Basis Set: 6-31G*
  Basis Set:
  Basis Set: 6-31G*
  Basis Set:
  @DF-RHF Final Energy:  -310.20812930917737
    Total Energy =                       -310.2081293091776502
  Basis Set: 6-31G*
  Basis Set:
  Basis Set: 6-31G*
  Basis Set:
  @DF-RHF Final Energy:  -310.20812977840689
    Total Energy =                       -310.2081297784068283
  Basis Set: 6-31G*
  Basis Set:
  Charge       = 0
  Multiplicity = 1
  Basis Set: 6-31G*
  Basis Set:

    Orbital Energies (a.u.)
    -----------------------

    Doubly Occupied:

       1A    -20.551915     2A    -11.267319     3A    -11.215654
       4A    -11.215380     5A    -11.214167     6A    -11.210345
       7A    -11.208953     8A     -1.359055     9A     -1.085151
      10A     -1.031935    11A     -0.953911    12A     -0.876630
      13A     -0.809702    14A     -0.778511    15A     -0.693900
      16A     -0.648836    17A     -0.632120    18A     -0.608667
      19A     -0.584926    20A     -0.566778    21A     -0.537481
      22A     -0.522117    23A     -0.511012    24A     -0.490544
      25A     -0.475558    26A     -0.457466    27A     -0.456433
      28A     -0.444840    29A     -0.431557

  @DF-RHF Final Energy:  -310.20813060315703

   => Energetics <=

    Nuclear Repulsion Energy =            314.5796754552446259
    One-Electron Energy =               -1043.8938812136248089
    Two-Electron Energy =                 419.1060751552234365
    DFT Exchange-Correlation Energy =       0.0000000000000000
    Empirical Dispersion Energy =           0.0000000000000000
    PCM Polarization Energy =               0.0000000000000000
    EFP Energy =                            0.0000000000000000
    Total Energy =                       -310.2081306031568033
    Molecular point group: c1
  Basis Set: 6-31G*
  Basis Set:

  -Total Gradient:
     Atom            X                  Y                   Z
    ------   -----------------  -----------------  -----------------
       1        0.000031698082     0.000008632287     0.000008111677
       2        0.000028511802    -0.000024870826     0.000035768276
       3       -0.000006544634     0.000033542730    -0.000019040136
       4       -0.000441356306    -0.000973682551     0.002178932564
       5       -0.000001352616     0.000002954530    -0.000010727016
       6       -0.000010194323    -0.000008319456     0.000004393179
       7        0.000228043956     0.000972335827    -0.001716062038
       8        0.000257204929     0.000582161640    -0.001420426380
       9       -0.000020824438    -0.000013300420    -0.000010627134
      10       -0.000079821595    -0.000577296802     0.000923998265
      11        0.000014266521    -0.000010084229     0.000015615856
      12       -0.000013200003     0.000004975167    -0.000017730652
      13       -0.000010908432     0.000006854444     0.000046707501
      14       -0.000009410418    -0.000016302512    -0.000010179852
      15       -0.000002973754     0.000009552997     0.000002138447
      16        0.000012136724     0.000002324612    -0.000012943542
      17       -0.000007593212     0.000012724624    -0.000004053635
      18        0.000015520744    -0.000011915668     0.000016534768
      19        0.000003404299     0.000007477051    -0.000006015014
      20        0.000015915903    -0.000010594416     0.000000353576
      21       -0.000002523229     0.000002830972    -0.000004748706

  **** Optimization is complete! (in 7 steps) ****
    Final optimized geometry and variables:
    Molecular point group: c1

    Geometry (in Angstrom), charge = 0, multiplicity = 1:

    H           -3.573516153572     0.472265377256    -1.857137157237
    O           -3.176711325488    -0.064136667639    -1.185748255170
    C           -1.949891493207     0.495623035890    -0.796637948104
    C           -1.346911764508    -0.383414378998     0.286579106953
    H           -1.268993388169     0.557990383824    -1.645162392061
    H           -2.091715399900     1.507045793756    -0.418161967331
    C            0.042242052667     0.109719109302     0.744453099788
    H           -1.281036998736    -1.391086147422    -0.112048703992
    H           -2.043039830874    -0.421275652152     1.117528773369
    C            1.183741948323    -0.815686122677     0.310215622742
    H            0.216225462918     1.113484226275     0.365028817531
    H            0.062103602783     0.197311650109     1.827578383697
    C            2.577076541772    -0.376425120669     0.773234954707
    H            1.179465083136    -0.912013361198    -0.774956864415
    H            0.985522896009    -1.810662324848     0.702080569143
    C            3.081618833547     0.919435843926     0.135219784074
    H            3.281528877324    -1.172712594844     0.545758677392
    H            2.579230798803    -0.270988873740     1.856370545538
    H            3.079727346853     0.846651211616    -0.949155555181
    H            2.472058239422     1.773622977332     0.410714791947
    H            4.098927199687     1.132506167219     0.448855868892

  Mulliken Charges: (a.u.)
   Center  Symbol    Alpha    Beta     Spin     Total
       1     H     0.28116  0.28116  0.00000  0.43769
       2     O     4.37153  4.37153  0.00000 -0.74306
       3     C     2.99345  2.99345  0.00000  0.01309
       4     C     3.16091  3.16091  0.00000 -0.32181
       5     H     0.43299  0.43299  0.00000  0.13402
       6     H     0.43246  0.43246  0.00000  0.13508
       7     C     3.16597  3.16597  0.00000 -0.33194
       8     H     0.41169  0.41169  0.00000  0.17662
       9     H     0.41222  0.41222  0.00000  0.17557
      10     C     3.15331  3.15331  0.00000 -0.30663
      11     H     0.42094  0.42094  0.00000  0.15811
      12     H     0.41887  0.41887  0.00000  0.16226
      13     C     3.15324  3.15324  0.00000 -0.30648
      14     H     0.42440  0.42440  0.00000  0.15120
      15     H     0.41989  0.41989  0.00000  0.16023
      16     C     3.24115  3.24115  0.00000 -0.48231
      17     H     0.42056  0.42056  0.00000  0.15887
      18     H     0.42311  0.42311  0.00000  0.15377
      19     H     0.42253  0.42253  0.00000  0.15494
      20     H     0.42067  0.42067  0.00000  0.15866
      21     H     0.41894  0.41894  0.00000  0.16211

   Total alpha = 29.00000, Total beta = 29.00000, Total charge =  0.00000
