  ==> Input File <==

--------------------------------------------------------------------------
set {
	reference rhf
	basis 6-31G*
}

set_num_threads( 4 )
memory 2 gb

molecule MOL {
0 1

H	 1.312100	 -0.289349	 -1.276683
O	 1.654024	 -0.625927	 -0.460906
C	 1.135793	 0.118896	 0.612333
C	 0.031547	 1.023609	 0.088541
H	 1.915668	 0.729681	 1.063582
H	 0.754543	 -0.542641	 1.387006
C	 -1.134819	 0.293262	 -0.585751
H	 0.474374	 1.714721	 -0.623187
H	 -0.338529	 1.620940	 0.920081
C	 -1.917817	 -0.639439	 0.339494
H	 -0.758119	 -0.268455	 -1.433105
H	 -1.813832	 1.041889	 -0.986690
H	 -2.777680	 -1.057197	 -0.174994
H	 -1.310268	 -1.471279	 0.680599
H	 -2.283753	 -0.111424	 1.216626

	symmetry c1
}
set optking {
	frozen_dihedral = ("
		1 2 3 4
	")
}

ee = optimize('scf')
oeprop('DIPOLE', 'QUADRUPOLE', 'MULLIKEN_CHARGES')
f=open( 'psi4out.xyz', 'w' )
f.write( "15  " )
f.write( str(ee) + "\n" )
f.write( MOL.save_string_xyz() )
f.close()
--------------------------------------------------------------------------

    Molecular point group: c1
  Charge       = 0
  Multiplicity = 1
  Basis Set: 6-31G*
  Basis Set:
  @DF-RHF Final Energy:  -232.13881512537606
    Total Energy =                       -232.1388151253759133
    Molecular point group: c1
  Basis Set: 6-31G*
  Basis Set:
  Basis Set: 6-31G*
  Basis Set:
  @DF-RHF Final Energy:  -232.14023488447174
    Total Energy =                       -232.1402348844717380
  Basis Set: 6-31G*
  Basis Set:
  Basis Set: 6-31G*
  Basis Set:
  @DF-RHF Final Energy:  -232.14084523019289
    Total Energy =                       -232.1408452301927809
  Basis Set: 6-31G*
  Basis Set:
  Basis Set: 6-31G*
  Basis Set:
  @DF-RHF Final Energy:  -232.14084788461196
    Total Energy =                       -232.1408478846120715
  Basis Set: 6-31G*
  Basis Set:
  Basis Set: 6-31G*
  Basis Set:
  @DF-RHF Final Energy:  -232.14085810730066
    Total Energy =                       -232.1408581073005735
  Basis Set: 6-31G*
  Basis Set:
  Basis Set: 6-31G*
  Basis Set:
  @DF-RHF Final Energy:  -232.14086468693856
    Total Energy =                       -232.1408646869382437
  Basis Set: 6-31G*
  Basis Set:
  Charge       = 0
  Multiplicity = 1
  Basis Set: 6-31G*
  Basis Set:

    Orbital Energies (a.u.)
    -----------------------

    Doubly Occupied:

       1A    -20.549757     2A    -11.266365     3A    -11.225911
       4A    -11.225293     5A    -11.213466     6A     -1.356959
       7A     -1.074011     8A     -0.975846     9A     -0.882332
      10A     -0.793779    11A     -0.666231    12A     -0.651281
      13A     -0.635476    14A     -0.585810    15A     -0.574701
      16A     -0.547638    17A     -0.506270    18A     -0.483908
      19A     -0.480465    20A     -0.457214    21A     -0.428918

  @DF-RHF Final Energy:  -232.14086475519858

   => Energetics <=

    Nuclear Repulsion Energy =            191.6124129039688739
    One-Electron Energy =                -694.3432956574730497
    Two-Electron Energy =                 270.5900179983055409
    DFT Exchange-Correlation Energy =       0.0000000000000000
    Empirical Dispersion Energy =           0.0000000000000000
    PCM Polarization Energy =               0.0000000000000000
    EFP Energy =                            0.0000000000000000
    Total Energy =                       -232.1408647551986064
    Molecular point group: c1
  Basis Set: 6-31G*
  Basis Set:

  -Total Gradient:
     Atom            X                  Y                   Z
    ------   -----------------  -----------------  -----------------
       1       -0.001410758292    -0.001247017984     0.000064591670
       2        0.002086901323     0.001836646130    -0.000212684670
       3       -0.001418034857    -0.001501053685     0.000278349515
       4        0.000776252680     0.000901535188    -0.000171925463
       5       -0.000035239634     0.000024744037     0.000047747879
       6       -0.000009150163    -0.000007186645    -0.000015774087
       7       -0.000000530520    -0.000017830195    -0.000002079488
       8       -0.000001092214     0.000010480461    -0.000000524906
       9       -0.000000159657    -0.000014164588    -0.000002770263
      10       -0.000000410519    -0.000012831742     0.000014785806
      11       -0.000023026125     0.000003435860    -0.000012886126
      12        0.000029211686     0.000017864383    -0.000000352069
      13        0.000007268154    -0.000001145549    -0.000004838194
      14        0.000020016358     0.000009751978     0.000014470012
      15       -0.000021248226    -0.000003227647     0.000003890385

  **** Optimization is complete! (in 7 steps) ****
    Final optimized geometry and variables:
    Molecular point group: c1

    Geometry (in Angstrom), charge = 0, multiplicity = 1:

    H            1.457113794099    -0.364296092265    -1.264809733583
    O            1.747130098611    -0.655264223712    -0.413405704723
    C            1.139942025814     0.110062205186     0.599380766648
    C            0.020761876103     1.014924630422     0.093819809472
    H            1.899049392571     0.724448258188     1.075776936677
    H            0.768401225853    -0.577382157223     1.350109294069
    C           -1.158313709124     0.292635813206    -0.572161611848
    H            0.446629276447     1.728627724115    -0.610309896130
    H           -0.345488942885     1.600240371079     0.934248662480
    C           -1.926967648399    -0.647144091923     0.357280470959
    H           -0.812331387458    -0.268898526990    -1.436967691133
    H           -1.839634467821     1.044993637051    -0.960357542305
    H           -2.793445867068    -1.061350183607    -0.148254272793
    H           -1.312939630390    -1.478624959132     0.685477757508
    H           -2.279961866978    -0.122195508727     1.240867448915

  Mulliken Charges: (a.u.)
   Center  Symbol    Alpha    Beta     Spin     Total
       1     H     0.27899  0.27899  0.00000  0.44201
       2     O     4.37783  4.37783  0.00000 -0.75566
       3     C     2.97860  2.97860  0.00000  0.04279
       4     C     3.18893  3.18893  0.00000 -0.37787
       5     H     0.42465  0.42465  0.00000  0.15070
       6     H     0.42169  0.42169  0.00000  0.15662
       7     C     3.15360  3.15360  0.00000 -0.30721
       8     H     0.41971  0.41971  0.00000  0.16059
       9     H     0.41713  0.41713  0.00000  0.16574
      10     C     3.24312  3.24312  0.00000 -0.48624
      11     H     0.42523  0.42523  0.00000  0.14954
      12     H     0.41770  0.41770  0.00000  0.16459
      13     H     0.41724  0.41724  0.00000  0.16552
      14     H     0.41375  0.41375  0.00000  0.17249
      15     H     0.42182  0.42182  0.00000  0.15636

   Total alpha = 21.00000, Total beta = 21.00000, Total charge =  0.00000
