  ==> Input File <==

--------------------------------------------------------------------------
set {
	reference rhf
	basis 6-31G*
}

set_num_threads( 4 )
memory 2 gb

molecule MOL {
0 1

H	 -0.821032	 -1.655889	 0.000000
O	 -1.037828	 -0.728600	 0.000000
C	 0.100509	 -0.036935	 0.000000
C	 1.291163	 -0.919910	 0.242074
O	 0.130929	 1.136940	 -0.174107
H	 1.184370	 -1.422230	 1.196530
H	 2.191032	 -0.323814	 0.234641
H	 1.342175	 -1.681945	 -0.526962

	symmetry c1
}
set optking {
	frozen_dihedral = ("
		4 3 2 1
	")
}

ee = optimize('scf')
oeprop('DIPOLE', 'QUADRUPOLE', 'MULLIKEN_CHARGES')
f=open( 'psi4out.xyz', 'w' )
f.write( "8  " )
f.write( str(ee) + "\n" )
f.write( MOL.save_string_xyz() )
f.close()
--------------------------------------------------------------------------

    Molecular point group: c1
  Charge       = 0
  Multiplicity = 1
  Basis Set: 6-31G*
  Basis Set:
  @DF-RHF Final Energy:  -227.79680563248860
    Total Energy =                       -227.7968056324885140
    Molecular point group: c1
  Basis Set: 6-31G*
  Basis Set:
  Basis Set: 6-31G*
  Basis Set:
  @DF-RHF Final Energy:  -227.79783856086283
    Total Energy =                       -227.7978385608628855
  Basis Set: 6-31G*
  Basis Set:
  Basis Set: 6-31G*
  Basis Set:
  @DF-RHF Final Energy:  -227.79845995720018
    Total Energy =                       -227.7984599572002935
  Basis Set: 6-31G*
  Basis Set:
  Basis Set: 6-31G*
  Basis Set:
  @DF-RHF Final Energy:  -227.79853001794427
    Total Energy =                       -227.7985300179442163
  Basis Set: 6-31G*
  Basis Set:
  Basis Set: 6-31G*
  Basis Set:
  @DF-RHF Final Energy:  -227.79853150689777
    Total Energy =                       -227.7985315068978025
  Basis Set: 6-31G*
  Basis Set:
  Charge       = 0
  Multiplicity = 1
  Basis Set: 6-31G*
  Basis Set:

    Orbital Energies (a.u.)
    -----------------------

    Doubly Occupied:

       1A    -20.615518     2A    -20.549221     3A    -11.385643
       4A    -11.252619     5A     -1.470926     6A     -1.372558
       7A     -1.027760     8A     -0.840603     9A     -0.721255
      10A     -0.668053    11A     -0.655631    12A     -0.602610
      13A     -0.572570    14A     -0.554316    15A     -0.476956
      16A     -0.445773

  @DF-RHF Final Energy:  -227.79853240268721

   => Energetics <=

    Nuclear Repulsion Energy =            122.2196841780888548
    One-Electron Energy =                -553.6124096289657928
    Two-Electron Energy =                 203.5941930481896520
    DFT Exchange-Correlation Energy =       0.0000000000000000
    Empirical Dispersion Energy =           0.0000000000000000
    PCM Polarization Energy =               0.0000000000000000
    EFP Energy =                            0.0000000000000000
    Total Energy =                       -227.7985324026872718
    Molecular point group: c1
  Basis Set: 6-31G*
  Basis Set:

  -Total Gradient:
     Atom            X                  Y                   Z
    ------   -----------------  -----------------  -----------------
       1        0.000036682035    -0.000027225087    -0.002009274744
       2       -0.000073095242     0.000120017305     0.003169277440
       3        0.000116863301    -0.000311281613    -0.002412886893
       4       -0.000126921111     0.000211404842     0.001359686472
       5        0.000020507642     0.000026632058    -0.000030540289
       6        0.000004377385    -0.000004026094    -0.000049988757
       7        0.000023038430    -0.000010562403     0.000004546260
       8       -0.000001452441    -0.000004959013    -0.000030819488

  **** Optimization is complete! (in 6 steps) ****
    Final optimized geometry and variables:
    Molecular point group: c1

    Geometry (in Angstrom), charge = 0, multiplicity = 1:

    H           -1.050449713175    -1.478795216631    -0.031937214085
    O           -1.167184156942    -0.538352217193    -0.032777657590
    C            0.000841264798     0.114918813053    -0.023674695494
    C            1.218204102446    -0.745563074955     0.223073022852
    O            0.032527583728     1.286026644979    -0.168870305318
    H            1.136133518646    -1.233993804805     1.188955507365
    H            2.102652691549    -0.127694307993     0.206060738740
    H            1.304522374440    -1.516679226669    -0.536981252017

  Mulliken Charges: (a.u.)
   Center  Symbol    Alpha    Beta     Spin     Total
       1     H     0.26886  0.26886  0.00000  0.46228
       2     O     4.34531  4.34531  0.00000 -0.69062
       3     C     2.62343  2.62343  0.00000  0.75313
       4     C     3.31147  3.31147  0.00000 -0.62294
       5     O     4.25912  4.25912  0.00000 -0.51824
       6     H     0.40018  0.40018  0.00000  0.19964
       7     H     0.38633  0.38633  0.00000  0.22734
       8     H     0.40530  0.40530  0.00000  0.18941

   Total alpha = 16.00000, Total beta = 16.00000, Total charge = -0.00000
