  ==> Input File <==

--------------------------------------------------------------------------
set {
	reference rhf
	basis cc-pvtz
}

set_num_threads( 4 )
memory 2 gb

molecule MOL {
0 1

H	 -1.625945	 0.067635	 1.364790
C	 -0.925135	 -0.484972	 0.776553
C	 -0.919316	 -1.865072	 0.771639
C	 0.000000	 0.179985	 0.000046
H	 -1.630653	 -2.400828	 1.368697
C	 -0.000002	 -2.552036	 -0.000012
N	 0.000000	 1.644631	 0.000076
C	 0.925135	 -0.484941	 -0.776487
H	 -0.000000	 -3.625035	 -0.000032
C	 0.919315	 -1.865041	 -0.771632
O	 1.050559	 2.194174	 -0.000073
O	 -1.050559	 2.194174	 -0.000074
H	 1.625940	 0.067691	 -1.364708
H	 1.630654	 -2.400772	 -1.368710

	symmetry c1
}
set optking {
	frozen_dihedral = ("
		2 4 7 11
	")
}

ee = optimize('scf')
oeprop('DIPOLE', 'QUADRUPOLE', 'MULLIKEN_CHARGES')
f=open( 'psi4out.xyz', 'w' )
f.write( "14  " )
f.write( str(ee) + "\n" )
f.write( MOL.save_string_xyz() )
f.close()
--------------------------------------------------------------------------

    Molecular point group: c1
  Charge       = 0
  Multiplicity = 1
  Basis Set: CC-PVTZ
  Basis Set:
  @DF-RHF Final Energy:  -434.32674883837689
    Total Energy =                       -434.3267488383769432
    Molecular point group: c1
  Basis Set: CC-PVTZ
  Basis Set:
  Basis Set: CC-PVTZ
  Basis Set:
  @DF-RHF Final Energy:  -434.32009744964756
    Total Energy =                       -434.3200974496477329
  Basis Set: CC-PVTZ
  Basis Set:
  Basis Set: CC-PVTZ
  Basis Set:
  @DF-RHF Final Energy:  -434.32691293822404
    Total Energy =                       -434.3269129382240408
  Basis Set: CC-PVTZ
  Basis Set:
  Basis Set: CC-PVTZ
  Basis Set:
  @DF-RHF Final Energy:  -434.32711828193936
    Total Energy =                       -434.3271182819391925
  Basis Set: CC-PVTZ
  Basis Set:
  Charge       = 0
  Multiplicity = 1
  Basis Set: CC-PVTZ
  Basis Set:

    Orbital Energies (a.u.)
    -----------------------

    Doubly Occupied:

       1A    -20.594151     2A    -20.593848     3A    -15.847478
       4A    -11.304187     5A    -11.267897     6A    -11.267686
       7A    -11.262956     8A    -11.259287     9A    -11.259053
      10A     -1.642175    11A     -1.425089    12A     -1.205717
      13A     -1.096602    14A     -1.056105    15A     -0.959529
      16A     -0.870691    17A     -0.829704    18A     -0.787534
      19A     -0.740369    20A     -0.735855    21A     -0.714714
      22A     -0.656727    23A     -0.651508    24A     -0.626332
      25A     -0.558364    26A     -0.545748    27A     -0.532728
      28A     -0.495828    29A     -0.490040    30A     -0.456919
      31A     -0.375199    32A     -0.370087

  @DF-RHF Final Energy:  -434.32711863722784

   => Energetics <=

    Nuclear Repulsion Energy =            418.0869956748711047
    One-Electron Energy =               -1419.8680128326500380
    Two-Electron Energy =                 567.4538985205514336
    DFT Exchange-Correlation Energy =       0.0000000000000000
    Empirical Dispersion Energy =           0.0000000000000000
    PCM Polarization Energy =               0.0000000000000000
    EFP Energy =                            0.0000000000000000
    Total Energy =                       -434.3271186372274997
    Molecular point group: c1
  Basis Set: CC-PVTZ
  Basis Set:

  -Total Gradient:
     Atom            X                  Y                   Z
    ------   -----------------  -----------------  -----------------
       1        0.000001849171    -0.000009310338    -0.000006525496
       2        0.002602752128    -0.000116175943     0.003026705189
       3        0.000010165632     0.000039037702     0.000047451064
       4       -0.003694226670     0.000135534936    -0.002670010762
       5       -0.000000900521     0.000001848217     0.000000617382
       6       -0.000034257763    -0.000000651655    -0.000105285610
       7        0.001006285689     0.000184015115    -0.004902641571
       8       -0.000034255765     0.000041725749    -0.000002778329
       9        0.000005879157     0.000001513506     0.000014918739
      10        0.000030036242    -0.000029845098     0.000067599245
      11        0.000190380691    -0.000188475466     0.004567569814
      12       -0.000081531754    -0.000069222807    -0.000022149307
      13       -0.000003075388    -0.000000488470    -0.000010947319
      14        0.000000899154     0.000010494552    -0.000004523038

  **** Optimization is complete! (in 5 steps) ****
    Final optimized geometry and variables:
    Molecular point group: c1

    Geometry (in Angstrom), charge = 0, multiplicity = 1:

    H           -1.647807030599     0.076867451079     1.332848786510
    C           -0.937424432261    -0.478505271333     0.756431665700
    C           -0.915910925459    -1.859005446766     0.772056033322
    C           -0.019243617255     0.180021782202    -0.029489344413
    H           -1.615890901737    -2.394019546015     1.383103759258
    C            0.003604956825    -2.546844630312     0.001865993511
    N            0.000311463014     1.641306246788    -0.003920657130
    C            0.925598726382    -0.480976124993    -0.781538990020
    H            0.010433595693    -3.619621004447     0.011655486044
    C            0.918979639634    -1.861217193615    -0.776030255871
    O            1.060775575641     2.171359032456    -0.017458634919
    O           -1.043998555553     2.198897766125     0.063146186797
    H            1.640742559135     0.072877384758    -1.353636203664
    H            1.632405568305    -2.398346553987    -1.369415944361

  Mulliken Charges: (a.u.)
   Center  Symbol    Alpha    Beta     Spin     Total
       1     H     0.40482  0.40482  0.00000  0.19036
       2     C     3.08478  3.08478  0.00000 -0.16956
       3     C     3.07035  3.07035  0.00000 -0.14070
       4     C     2.94775  2.94775  0.00000  0.10450
       5     H     0.41707  0.41707  0.00000  0.16585
       6     C     3.06798  3.06798  0.00000 -0.13596
       7     N     3.27068  3.27068  0.00000  0.45863
       8     C     3.08304  3.08304  0.00000 -0.16609
       9     H     0.41737  0.41737  0.00000  0.16527
      10     C     3.06990  3.06990  0.00000 -0.13980
      11     O     4.17056  4.17056  0.00000 -0.34111
      12     O     4.17234  4.17234  0.00000 -0.34468
      13     H     0.40624  0.40624  0.00000  0.18753
      14     H     0.41712  0.41712  0.00000  0.16575

   Total alpha = 32.00000, Total beta = 32.00000, Total charge = -0.00000
