                              Psi4 1.0.54 Driver

  ==> Input File <==

--------------------------------------------------------------------------
set {
	reference rhf
	basis cc-pvtz
}

set_num_threads( 4 )
memory 2 gb

molecule MOL {
0 1

H	 -1.198413	 3.412261	 -2.144356
O	 -0.388224	 2.925817	 -2.170497
C	 -0.387383	 2.054912	 -1.165281
C	 0.876312	 1.238682	 -1.135713
O	 -1.290624	 1.968432	 -0.407226
C	 0.926581	 0.227233	 0.000178
H	 1.705676	 1.936381	 -1.080034
H	 0.964591	 0.752160	 -2.101746
C	 2.220156	 -0.582071	 -0.000088
H	 0.817461	 0.745784	 0.946028
H	 0.075460	 -0.439903	 -0.076929
C	 3.466689	 0.296012	 -0.000457
H	 2.239073	 -1.234095	 -0.869382
H	 2.239505	 -1.233985	 0.869270
H	 3.493549	 0.935857	 -0.875887
H	 4.368821	 -0.304526	 -0.001199
H	 3.494559	 0.935166	 0.875458

	symmetry c1
}
set optking {
	frozen_dihedral = ("
		10 6 9 13
	")
}

ee,wfn = optimize('scf', return_wfn=True)
oeprop( wfn, 'DIPOLE', 'QUADRUPOLE', 'MULLIKEN_CHARGES')
f=open( 'psi4out.xyz', 'w' )
f.write( "17  " )
f.write( str(ee) + "\n" )
f.write( MOL.save_string_xyz() )
f.close()
--------------------------------------------------------------------------

    Molecular point group: c1
  Charge       = 0
  Multiplicity = 1
  Basis Set: CC-PVTZ
  Basis Set:
  @DF-RHF Final Energy:  -345.04542286987845
    Total Energy =                       -345.0454228698785073
    Molecular point group: c1
  Basis Set: CC-PVTZ
  Basis Set:
  Basis Set: CC-PVTZ
  Basis Set:
  @DF-RHF Final Energy:  -345.04567085742718
    Total Energy =                       -345.0456708574268418
  Basis Set: CC-PVTZ
  Basis Set:
  Basis Set: CC-PVTZ
  Basis Set:
  @DF-RHF Final Energy:  -345.04683287316527
    Total Energy =                       -345.0468328731651582
  Basis Set: CC-PVTZ
  Basis Set:
  Basis Set: CC-PVTZ
  Basis Set:
  @DF-RHF Final Energy:  -345.04599427855135
    Total Energy =                       -345.0459942785511771
  Basis Set: CC-PVTZ
  Basis Set:
  Basis Set: CC-PVTZ
  Basis Set:
  @DF-RHF Final Energy:  -345.04692513780327
    Total Energy =                       -345.0469251378033277
  Basis Set: CC-PVTZ
  Basis Set:
  Basis Set: CC-PVTZ
  Basis Set:
  @DF-RHF Final Energy:  -345.04694982503543
    Total Energy =                       -345.0469498250353695
  Basis Set: CC-PVTZ
  Basis Set:
  Charge       = 0
  Multiplicity = 1
  Basis Set: CC-PVTZ
  Basis Set:

    Orbital Energies (a.u.)
    -----------------------

    Doubly Occupied:

       1A    -20.603934     2A    -20.540595     3A    -11.373597
       4A    -11.238941     5A    -11.221448     6A    -11.220834
       7A    -11.213072     8A     -1.477603     9A     -1.369089
      10A     -1.092649    11A     -1.017076    12A     -0.920761
      13A     -0.832880    14A     -0.778538    15A     -0.703760
      16A     -0.693547    17A     -0.667969    18A     -0.624109
      19A     -0.609665    20A     -0.583271    21A     -0.563570
      22A     -0.547704    23A     -0.519982    24A     -0.484758
      25A     -0.478151    26A     -0.472834    27A     -0.471913
      28A     -0.447130

  @DF-RHF Final Energy:  -345.04695095458931

   => Energetics <=

    Nuclear Repulsion Energy =            308.1843650396250496
    One-Electron Energy =               -1080.9238574278022043
    Two-Electron Energy =                 427.6925414335879623
    DFT Exchange-Correlation Energy =       0.0000000000000000
    Empirical Dispersion Energy =           0.0000000000000000
    PCM Polarization Energy =               0.0000000000000000
    EFP Energy =                            0.0000000000000000
    Total Energy =                       -345.0469509545891924
    Molecular point group: c1
  Basis Set: CC-PVTZ
  Basis Set:

  -Total Gradient:
     Atom            X                  Y                   Z
    ------   -----------------  -----------------  -----------------
       1        0.000010070427     0.000016857032    -0.000027488119
       2       -0.000121023912     0.000010816850     0.000076452459
       3        0.000037760472    -0.000078504853     0.000042858580
       4       -0.000030394384    -0.000015773424     0.000032427371
       5        0.000060894047     0.000083515981    -0.000128929982
       6        0.001092213301     0.001552064413    -0.000660260578
       7        0.000010067366    -0.000003374217     0.000000204625
       8        0.000003348760     0.000005213583     0.000005615926
       9        0.000893961910     0.001333962648    -0.001133651906
      10       -0.001029911536    -0.001493295184     0.000744885575
      11        0.000029084609    -0.000000996220    -0.000001972426
      12       -0.000049849814    -0.000019946419     0.000004337800
      13       -0.000899695239    -0.001389786633     0.001030083664
      14        0.000029414811     0.000002876031     0.000001499751
      15       -0.000018957835    -0.000009255488     0.000002828699
      16       -0.000018460080    -0.000006724153     0.000005001850
      17        0.000001477095     0.000012350055     0.000006106710

  **** Optimization is complete! (in 7 steps) ****
    Final optimized geometry and variables:
    Molecular point group: c1

    Geometry (in Angstrom), charge = 0, multiplicity = 1:

    H           -2.051986916745     2.160706629532    -1.436892302260
    O           -1.218803747392     1.714731679594    -1.461562829197
    C           -1.173148602037     0.852310275959    -0.449839999384
    C            0.129684399891     0.099604239997    -0.418586984956
    O           -2.070660416496     0.726801272976     0.309413386253
    C            0.221441468964    -0.904116306213     0.722603383710
    H            0.917590440779     0.841939370382    -0.372704876906
    H            0.238198925633    -0.389139235796    -1.381950626945
    C            1.486540069217    -1.763374891355     0.699722747668
    H            0.145440960641    -0.386661884600     1.672692824128
    H           -0.642443064352    -1.556407406871     0.678784674958
    C            2.800600180734    -0.988708864575     0.744660939791
    H            1.468281207171    -2.411030934695    -0.172953396141
    H            1.446547737173    -2.428540584383     1.556451915979
    H            2.954923537351    -0.394016136906    -0.147998983258
    H            3.641345625022    -1.667029637215     0.829772248737
    H            2.829724292512    -0.319255203292     1.598513786121

  Mulliken Charges: (a.u.)
   Center  Symbol    Alpha    Beta     Spin     Total
       1     H     0.38233  0.38233  0.00000  0.23535
       2     O     4.16011  4.16011  0.00000 -0.32022
       3     C     2.80450  2.80450  0.00000  0.39100
       4     C     3.11310  3.11310  0.00000 -0.22619
       5     O     4.19085  4.19085  0.00000 -0.38170
       6     C     3.09024  3.09024  0.00000 -0.18049
       7     H     0.43635  0.43635  0.00000  0.12730
       8     H     0.43751  0.43751  0.00000  0.12498
       9     C     3.09356  3.09356  0.00000 -0.18712
      10     H     0.44514  0.44514  0.00000  0.10972
      11     H     0.44095  0.44095  0.00000  0.11811
      12     C     3.15510  3.15510  0.00000 -0.31021
      13     H     0.45304  0.45304  0.00000  0.09392
      14     H     0.44617  0.44617  0.00000  0.10765
      15     H     0.45402  0.45402  0.00000  0.09196
      16     H     0.44445  0.44445  0.00000  0.11110
      17     H     0.45258  0.45258  0.00000  0.09484

   Total alpha = 28.00000, Total beta = 28.00000, Total charge = -0.00000

*** Psi4 exiting successfully. Buy a developer a beer!
