                              Psi4 1.0.54 Driver

  ==> Input File <==

--------------------------------------------------------------------------
set {
	reference rhf
	basis cc-pvtz
}

set_num_threads( 4 )
memory 2 gb

molecule MOL {
0 1

H	 -3.941973	 0.934228	 -0.390224
C	 -3.240162	 0.342701	 0.161016
C	 -2.105997	 -0.000418	 -0.398703
H	 -3.485368	 0.047206	 1.162193
O	 -1.571208	 -1.233778	 -0.248205
H	 -1.544406	 0.675161	 -1.017844
C	 -0.320002	 -1.484068	 -0.782019
C	 0.787193	 -1.193101	 0.210197
H	 -0.127940	 -0.902010	 -1.675379
H	 -0.265367	 -2.533032	 -1.031278
F	 1.952100	 -1.479830	 -0.335568
F	 0.811680	 0.074979	 0.560739
F	 0.668807	 -1.906007	 1.303909

	symmetry c1
}
set optking {
	frozen_dihedral = ("
		6 3 2 1
	")
}

ee,wfn = optimize('scf', return_wfn=True)
oeprop( wfn, 'DIPOLE', 'QUADRUPOLE', 'MULLIKEN_CHARGES')
f=open( 'psi4out.xyz', 'w' )
f.write( "13  " )
f.write( str(ee) + "\n" )
f.write( MOL.save_string_xyz() )
f.close()
--------------------------------------------------------------------------

    Molecular point group: c1
  Charge       = 0
  Multiplicity = 1
  Basis Set: CC-PVTZ
  Basis Set:
  @DF-RHF Final Energy:  -527.70830645651836
    Total Energy =                       -527.7083064565183577
    Molecular point group: c1
  Basis Set: CC-PVTZ
  Basis Set:
  Basis Set: CC-PVTZ
  Basis Set:
  @DF-RHF Final Energy:  -527.72429631771934
    Total Energy =                       -527.7242963177193360
  Basis Set: CC-PVTZ
  Basis Set:
  Basis Set: CC-PVTZ
  Basis Set:
  @DF-RHF Final Energy:  -527.71752953553528
    Total Energy =                       -527.7175295355348226
  Basis Set: CC-PVTZ
  Basis Set:
  Basis Set: CC-PVTZ
  Basis Set:
  @DF-RHF Final Energy:  -527.72706711564558
    Total Energy =                       -527.7270671156455819
  Basis Set: CC-PVTZ
  Basis Set:
  @DF-RHF Final Energy:  -527.73016061888598
    Total Energy =                       -527.7301606188859751
  Basis Set: CC-PVTZ
  Basis Set:
  @DF-RHF Final Energy:  -527.73041665578853
    Total Energy =                       -527.7304166557887584
  Basis Set: CC-PVTZ
  Basis Set:
  Basis Set: CC-PVTZ
  Basis Set:
  @DF-RHF Final Energy:  -527.73042757667622
    Total Energy =                       -527.7304275766762203
  Basis Set: CC-PVTZ
  Basis Set:
  Basis Set: CC-PVTZ
  Basis Set:
  @DF-RHF Final Energy:  -527.73043017980206
    Total Energy =                       -527.7304301798019424
  Basis Set: CC-PVTZ
  Basis Set:
  Charge       = 0
  Multiplicity = 1
  Basis Set: CC-PVTZ
  Basis Set:

    Orbital Energies (a.u.)
    -----------------------

    Doubly Occupied:

       1A    -26.341836     2A    -26.340567     3A    -26.338175
       4A    -20.604532     5A    -11.497967     6A    -11.319940
       7A    -11.302316     8A    -11.215334     9A     -1.750552
      10A     -1.646980    11A     -1.645504    12A     -1.444839
      13A     -1.088308    14A     -1.020099    15A     -0.931992
      16A     -0.844507    17A     -0.839669    18A     -0.827698
      19A     -0.799450    20A     -0.728104    21A     -0.719214
      22A     -0.702299    23A     -0.680991    24A     -0.668472
      25A     -0.661305    26A     -0.650987    27A     -0.644225
      28A     -0.585296    29A     -0.565742    30A     -0.524343
      31A     -0.517232    32A     -0.355423

  @DF-RHF Final Energy:  -527.73043074019779

   => Energetics <=

    Nuclear Repulsion Energy =            414.6704061849484333
    One-Electron Energy =               -1553.1938746706041456
    Two-Electron Energy =                 610.7930377454581503
    DFT Exchange-Correlation Energy =       0.0000000000000000
    Empirical Dispersion Energy =           0.0000000000000000
    PCM Polarization Energy =               0.0000000000000000
    EFP Energy =                            0.0000000000000000
    Total Energy =                       -527.7304307401975620
    Molecular point group: c1
  Basis Set: CC-PVTZ
  Basis Set:

  -Total Gradient:
     Atom            X                  Y                   Z
    ------   -----------------  -----------------  -----------------
       1       -0.012877616324    -0.011909727304    -0.007874656788
       2        0.024385788251     0.016855627967     0.017293686707
       3       -0.025456268670    -0.005001081825    -0.023174864640
       4        0.000013315138    -0.000012221790     0.000007592537
       5       -0.000062652903     0.000051408626     0.000007700673
       6        0.013978819841     0.000032869617     0.013780011753
       7       -0.000036921428     0.000006050071    -0.000030560869
       8       -0.000012416408    -0.000036082299    -0.000032867574
       9        0.000012664281    -0.000012828823     0.000010014824
      10        0.000028701430    -0.000010072285    -0.000022563710
      11       -0.000011770632     0.000007005175     0.000020033181
      12        0.000024528178     0.000016794508     0.000018888190
      13        0.000013829241     0.000012258363    -0.000002414286

  **** Optimization is complete! (in 8 steps) ****
    Final optimized geometry and variables:
    Molecular point group: c1

    Geometry (in Angstrom), charge = 0, multiplicity = 1:

    H           -3.459586271745     2.145421123829     0.375611113595
    C           -2.807831509108     1.315122313779     0.564238535412
    C           -1.917684714867     0.943613243868    -0.332127858843
    H           -3.164792749428     0.587371467769     1.270269539217
    O           -1.398632587410    -0.307928692960    -0.314359821989
    H           -1.342742798821     1.642069181616    -0.915350966436
    C           -0.185515392491    -0.535887831770    -0.938769154955
    C            0.986567348071    -0.324563617606    -0.002427867052
    H           -0.040468983963     0.103665039076    -1.801576783043
    H           -0.162818252402    -1.566237853865    -1.259968005203
    F            2.109266390367    -0.599150494631    -0.635857300306
    F            1.060257949961     0.919806976467     0.418939983262
    F            0.920236356592    -1.099100527106     1.053116540752

  Mulliken Charges: (a.u.)
   Center  Symbol    Alpha    Beta     Spin     Total
       1     H     0.42671  0.42671  0.00000  0.14659
       2     C     3.18686  3.18686  0.00000 -0.37372
       3     C     2.96118  2.96118  0.00000  0.07764
       4     H     0.42971  0.42971  0.00000  0.14058
       5     O     4.14453  4.14453  0.00000 -0.28906
       6     H     0.43526  0.43526  0.00000  0.12947
       7     C     3.01975  3.01975  0.00000 -0.03950
       8     C     2.67451  2.67451  0.00000  0.65097
       9     H     0.45567  0.45567  0.00000  0.08866
      10     H     0.43608  0.43608  0.00000  0.12784
      11     F     4.61249  4.61249  0.00000 -0.22498
      12     F     4.61042  4.61042  0.00000 -0.22084
      13     F     4.60683  4.60683  0.00000 -0.21366

   Total alpha = 32.00000, Total beta = 32.00000, Total charge = -0.00000

*** Psi4 exiting successfully. Buy a developer a beer!
