                              Psi4 1.0.54 Driver

  ==> Input File <==

--------------------------------------------------------------------------
set {
	reference rhf
	basis cc-pvtz
}

set_num_threads( 4 )
memory 2 gb

molecule MOL {
0 1

H	 1.275543	 0.239760	 -0.990397
C	 0.848385	 0.440008	 0.000011
C	 -0.623497	 0.751021	 0.000090
O	 1.534662	 0.401791	 0.961680
C	 -1.523725	 -0.474323	 -0.000013
H	 -0.813143	 1.382932	 -0.864897
H	 -0.813071	 1.382716	 0.865253
H	 -1.342980	 -1.087348	 -0.873016
H	 -2.565269	 -0.177464	 0.000070
H	 -1.342898	 -1.087564	 0.872820

	symmetry c1
}
set optking {
	frozen_dihedral = ("
		4 2 3 6
	")
}

ee,wfn = optimize('scf', return_wfn=True)
oeprop( wfn, 'DIPOLE', 'QUADRUPOLE', 'MULLIKEN_CHARGES')
f=open( 'psi4out.xyz', 'w' )
f.write( "10  " )
f.write( str(ee) + "\n" )
f.write( MOL.save_string_xyz() )
f.close()
--------------------------------------------------------------------------

    Molecular point group: c1
  Charge       = 0
  Multiplicity = 1
  Basis Set: CC-PVTZ
  Basis Set:
  @DF-RHF Final Energy:  -192.02161715135432
    Total Energy =                       -192.0216171513542918
    Molecular point group: c1
  Basis Set: CC-PVTZ
  Basis Set:
  Basis Set: CC-PVTZ
  Basis Set:
  @DF-RHF Final Energy:  -192.02253059792855
    Total Energy =                       -192.0225305979286077
  Basis Set: CC-PVTZ
  Basis Set:
  Basis Set: CC-PVTZ
  Basis Set:
  @DF-RHF Final Energy:  -192.02041410555978
    Total Energy =                       -192.0204141055597233
  Basis Set: CC-PVTZ
  Basis Set:
  Basis Set: CC-PVTZ
  Basis Set:
  @DF-RHF Final Energy:  -192.02276115954541
    Total Energy =                       -192.0227611595453823
  Basis Set: CC-PVTZ
  Basis Set:
  Basis Set: CC-PVTZ
  Basis Set:
  @DF-RHF Final Energy:  -192.02280250930613
    Total Energy =                       -192.0228025093059898
  Basis Set: CC-PVTZ
  Basis Set:
  Charge       = 0
  Multiplicity = 1
  Basis Set: CC-PVTZ
  Basis Set:

    Orbital Energies (a.u.)
    -----------------------

    Doubly Occupied:

       1A    -20.553503     2A    -11.322683     3A    -11.237883
       4A    -11.232246     5A     -1.408489     6A     -1.066967
       7A     -0.904976     8A     -0.791671     9A     -0.682316
      10A     -0.643831    11A     -0.609080    12A     -0.576221
      13A     -0.543580    14A     -0.512255    15A     -0.500397
      16A     -0.414657

  @DF-RHF Final Energy:  -192.02280348178292

   => Energetics <=

    Nuclear Repulsion Energy =            118.1111283535937275
    One-Electron Energy =                -494.2663524114998381
    Two-Electron Energy =                 184.1324205761233088
    DFT Exchange-Correlation Energy =       0.0000000000000000
    Empirical Dispersion Energy =           0.0000000000000000
    PCM Polarization Energy =               0.0000000000000000
    EFP Energy =                            0.0000000000000000
    Total Energy =                       -192.0228034817828302
    Molecular point group: c1
  Basis Set: CC-PVTZ
  Basis Set:

  -Total Gradient:
     Atom            X                  Y                   Z
    ------   -----------------  -----------------  -----------------
       1       -0.000000041179     0.000008754261     0.000010888259
       2        0.000623931657     0.001508238471    -0.000445289712
       3        0.000255565929     0.000744929901     0.000847828540
       4       -0.000450289910    -0.001233716866     0.000207596332
       5        0.000015583704     0.000044119422    -0.000004870155
       6       -0.000436566898    -0.001042325974    -0.000608951520
       7        0.000001926596    -0.000024780437    -0.000005761443
       8       -0.000008044196     0.000001908911     0.000000682577
       9       -0.000003436306    -0.000010949119    -0.000000847122
      10        0.000001370605     0.000003821430    -0.000001275756

  **** Optimization is complete! (in 6 steps) ****
    Final optimized geometry and variables:
    Molecular point group: c1

    Geometry (in Angstrom), charge = 0, multiplicity = 1:

    H            1.081292221294    -0.310841108862    -1.277391916904
    C            0.770121175740     0.062618457161    -0.293092268952
    C           -0.642561397763     0.575138997727    -0.214319799478
    O            1.513973643227     0.006200036525     0.623930655743
    C           -1.629578219518    -0.595365682765    -0.147024943616
    H           -0.849321014273     1.165450036291    -1.101474242898
    H           -0.735318019534     1.205289454728     0.659516409872
    H           -1.524291682725    -1.250577879500    -1.004862733784
    H           -2.647926190057    -0.229393846049    -0.133550569161
    H           -1.468019433139    -1.183077303790     0.747800157610

  Mulliken Charges: (a.u.)
   Center  Symbol    Alpha    Beta     Spin     Total
       1     H     0.46355  0.46355  0.00000  0.07290
       2     C     2.90186  2.90186  0.00000  0.19627
       3     C     3.08038  3.08038  0.00000 -0.16076
       4     O     4.16602  4.16602  0.00000 -0.33204
       5     C     3.14847  3.14847  0.00000 -0.29694
       6     H     0.45243  0.45243  0.00000  0.09514
       7     H     0.44258  0.44258  0.00000  0.11484
       8     H     0.45391  0.45391  0.00000  0.09218
       9     H     0.44552  0.44552  0.00000  0.10896
      10     H     0.44527  0.44527  0.00000  0.10945

   Total alpha = 16.00000, Total beta = 16.00000, Total charge =  0.00000

*** Psi4 exiting successfully. Buy a developer a beer!
