  ==> Input File <==

--------------------------------------------------------------------------
set {
	reference rhf
	basis 6-31G*
}

set_num_threads( 4 )
memory 2 gb

molecule MOL {
0 1

O	 -1.371851	 1.150100	 -0.450167
C	 -1.083277	 0.139568	 0.115197
C	 0.323299	 -0.082943	 0.642902
C	 -2.086892	 -0.974713	 0.312589
C	 1.355627	 -0.005344	 -0.493127
H	 0.396251	 -1.044647	 1.143147
H	 0.528637	 0.693580	 1.371677
C	 2.786168	 -0.195604	 0.007473
H	 1.132807	 -0.760304	 -1.243899
H	 1.259610	 0.958506	 -0.981915
H	 3.495561	 -0.130713	 -0.811210
H	 2.912696	 -1.165395	 0.480041
H	 3.049284	 0.565503	 0.735850
H	 -1.682477	 -1.922639	 -0.030272
H	 -2.999304	 -0.749678	 -0.221826
H	 -2.306759	 -1.084409	 1.371282

	symmetry c1
}
set optking {
	frozen_dihedral = ("
		4 2 3 5
	")
}

ee = optimize('scf')
oeprop('DIPOLE', 'QUADRUPOLE', 'MULLIKEN_CHARGES')
f=open( 'psi4out.xyz', 'w' )
f.write( "16  " )
f.write( str(ee) + "\n" )
f.write( MOL.save_string_xyz() )
f.close()
--------------------------------------------------------------------------

    Molecular point group: c1
  Charge       = 0
  Multiplicity = 1
  Basis Set: 6-31G*
  Basis Set:
  @DF-RHF Final Energy:  -270.03026769854125
    Total Energy =                       -270.0302676985411381
    Molecular point group: c1
  Basis Set: 6-31G*
  Basis Set:
  Basis Set: 6-31G*
  Basis Set:
  @DF-RHF Final Energy:  -270.02929125746590
    Total Energy =                       -270.0292912574660704
  Basis Set: 6-31G*
  Basis Set:
  Basis Set: 6-31G*
  Basis Set:
  @DF-RHF Final Energy:  -270.03037183697154
    Total Energy =                       -270.0303718369717672
  Basis Set: 6-31G*
  Basis Set:
  Basis Set: 6-31G*
  Basis Set:
  @DF-RHF Final Energy:  -270.03017592509241
    Total Energy =                       -270.0301759250925215
  Basis Set: 6-31G*
  Basis Set:
  Basis Set: 6-31G*
  Basis Set:
  @DF-RHF Final Energy:  -270.03023489581898
    Total Energy =                       -270.0302348958189214
  Basis Set: 6-31G*
  Basis Set:
  Basis Set: 6-31G*
  Basis Set:
  @DF-RHF Final Energy:  -270.03043747347465
    Total Energy =                       -270.0304374734745352
  Basis Set: 6-31G*
  Basis Set:
  Basis Set: 6-31G*
  Basis Set:
  @DF-RHF Final Energy:  -270.03043973168178
    Total Energy =                       -270.0304397316818950
  Basis Set: 6-31G*
  Basis Set:
  Charge       = 0
  Multiplicity = 1
  Basis Set: 6-31G*
  Basis Set:

    Orbital Energies (a.u.)
    -----------------------

    Doubly Occupied:

       1A    -20.548335     2A    -11.325852     3A    -11.230496
       4A    -11.229034     5A    -11.228159     6A    -11.216900
       7A     -1.394372     8A     -1.079282     9A     -1.014459
      10A     -0.948395    11A     -0.826444    12A     -0.734244
      13A     -0.658352    14A     -0.648102    15A     -0.614598
      16A     -0.603869    17A     -0.573170    18A     -0.559865
      19A     -0.542843    20A     -0.511705    21A     -0.498597
      22A     -0.481974    23A     -0.471169    24A     -0.398708

  @DF-RHF Final Energy:  -270.03043998078090

   => Energetics <=

    Nuclear Repulsion Energy =            236.8473119962672797
    One-Electron Energy =                -835.0776527763566719
    Two-Electron Energy =                 328.1999007993082955
    DFT Exchange-Correlation Energy =       0.0000000000000000
    Empirical Dispersion Energy =           0.0000000000000000
    PCM Polarization Energy =               0.0000000000000000
    EFP Energy =                            0.0000000000000000
    Total Energy =                       -270.0304399807810682
    Molecular point group: c1
  Basis Set: 6-31G*
  Basis Set:

  -Total Gradient:
     Atom            X                  Y                   Z
    ------   -----------------  -----------------  -----------------
       1       -0.000006518969     0.000008291224     0.000004542393
       2       -0.000132351041     0.000073092830     0.000410034412
       3        0.000078957974     0.000358745303    -0.000067288639
       4        0.000092102113    -0.000136722757    -0.000311678331
       5       -0.000040714478    -0.000317669395    -0.000033292406
       6        0.000000812639    -0.000001373295    -0.000000802956
       7       -0.000003525889    -0.000001954020     0.000002324467
       8        0.000005287088     0.000007277896    -0.000010164184
       9        0.000006178932     0.000000900053    -0.000012142270
      10        0.000005566397    -0.000000426338     0.000000132728
      11        0.000004910896    -0.000000953984     0.000001553121
      12       -0.000005055144     0.000001744526    -0.000001494413
      13       -0.000000866514     0.000000480973    -0.000000440839
      14        0.000000516959     0.000001699197     0.000012549084
      15       -0.000001114323    -0.000002088789    -0.000001071167
      16       -0.000004186640     0.000008956574     0.000007239000

  **** Optimization is complete! (in 8 steps) ****
    Final optimized geometry and variables:
    Molecular point group: c1

    Geometry (in Angstrom), charge = 0, multiplicity = 1:

    O           -1.367522029311     1.148430926518    -0.472189268504
    C           -1.080406867247     0.135003818916     0.088790838522
    C            0.329969745202    -0.089055953630     0.612799203030
    C           -2.088990504892    -0.971630758564     0.295555105414
    C            1.370824823712    -0.025825464432    -0.512648996523
    H            0.397760457486    -1.038795826966     1.135198802295
    H            0.532474177317     0.694938598043     1.337698246910
    C            2.798765509406    -0.187628817201     0.004707808217
    H            1.160486811743    -0.802959923293    -1.244085058578
    H            1.265136332115     0.922155832477    -1.027186047713
    H            3.514192871785    -0.139677604808    -0.809919211497
    H            2.932310647500    -1.141779478565     0.506622574177
    H            3.049683439809     0.597021976834     0.712534226038
    H           -1.732355816134    -1.891459522058    -0.160134454892
    H           -3.039275831293    -0.693520755565    -0.138324419197
    H           -2.214865562808    -1.168844306829     1.356713965776

  Mulliken Charges: (a.u.)
   Center  Symbol    Alpha    Beta     Spin     Total
       1     O     4.26316  4.26316  0.00000 -0.52631
       2     C     2.73606  2.73606  0.00000  0.52787
       3     C     3.20164  3.20164  0.00000 -0.40328
       4     C     3.28924  3.28924  0.00000 -0.57848
       5     C     3.15765  3.15765  0.00000 -0.31530
       6     H     0.41671  0.41671  0.00000  0.16658
       7     H     0.40241  0.40241  0.00000  0.19519
       8     C     3.24058  3.24058  0.00000 -0.48116
       9     H     0.42022  0.42022  0.00000  0.15955
      10     H     0.40242  0.40242  0.00000  0.19516
      11     H     0.41557  0.41557  0.00000  0.16886
      12     H     0.42171  0.42171  0.00000  0.15657
      13     H     0.41900  0.41900  0.00000  0.16199
      14     H     0.40863  0.40863  0.00000  0.18274
      15     H     0.39713  0.39713  0.00000  0.20575
      16     H     0.40786  0.40786  0.00000  0.18428

   Total alpha = 24.00000, Total beta = 24.00000, Total charge = -0.00000
