  ==> Input File <==

--------------------------------------------------------------------------
set {
	reference rhf
	basis 6-31G*
}

set_num_threads( 1 )
memory 2 gb

molecule MOL {
0 1

H	 -1.362316	 1.360203	 -0.000000
C	 -0.790252	 0.431209	 0.000000
N	 0.538815	 0.649616	 0.000000
O	 -1.322562	 -0.639237	 -0.000000
C	 1.521968	 -0.411503	 0.000000
H	 0.852804	 1.592852	 0.000000
H	 2.150599	 -0.357004	 -0.881901
H	 0.999455	 -1.354525	 0.000000
H	 2.150599	 -0.357004	 0.881901

	symmetry c1
}
set optking {
	frozen_dihedral = ("
		6 3 5 7
	")
}

ee = energy('scf')
oeprop('DIPOLE', 'QUADRUPOLE', 'MULLIKEN_CHARGES')
f=open( 'psi4out.xyz', 'w' )
f.write( "9  " )
f.write( str(ee) + "\n" )
f.write( MOL.save_string_xyz() )
f.close()
--------------------------------------------------------------------------

    Molecular point group: c1

    Geometry (in Angstrom), charge = 0, multiplicity = 1:

       Center              X                  Y                   Z               Mass
    ------------   -----------------  -----------------  -----------------  -----------------
           H         -1.362316404539     1.360203083015     0.000000000000     1.007825032070
           C         -0.790252404539     0.431209083015     0.000000000000    12.000000000000
           N          0.538814595461     0.649616083015     0.000000000000    14.003074004780
           O         -1.322562404539    -0.639236916985     0.000000000000    15.994914619560
           C          1.521967595461    -0.411502916985     0.000000000000    12.000000000000
           H          0.852803595461     1.592852083015     0.000000000000     1.007825032070
           H          2.150598595461    -0.357003916985    -0.881901000000     1.007825032070
           H          0.999454595461    -1.354524916985     0.000000000000     1.007825032070
           H          2.150598595461    -0.357003916985     0.881901000000     1.007825032070

  Charge       = 0
  Multiplicity = 1
  Basis Set: 6-31G*
  Basis Set:

    Orbital Energies (a.u.)
    -----------------------

    Doubly Occupied:

       1A    -20.525166     2A    -15.591264     3A    -11.344430
       4A    -11.260143     5A     -1.388825     6A     -1.236627
       7A     -0.968840     8A     -0.807259     9A     -0.746539
      10A     -0.641679    11A     -0.626084    12A     -0.593576
      13A     -0.553780    14A     -0.537904    15A     -0.423553
      16A     -0.390305

  @DF-RHF Final Energy:  -207.96097103908625

   => Energetics <=

    Nuclear Repulsion Energy =            122.4463069225847249
    One-Electron Energy =                -525.5426360642225063
    Two-Electron Energy =                 195.1353581025514927
    DFT Exchange-Correlation Energy =       0.0000000000000000
    Empirical Dispersion Energy =           0.0000000000000000
    PCM Polarization Energy =               0.0000000000000000
    EFP Energy =                            0.0000000000000000
    Total Energy =                       -207.9609710390863029

  Mulliken Charges: (a.u.)
   Center  Symbol    Alpha    Beta     Spin     Total
       1     H     0.42760  0.42760  0.00000  0.14480
       2     C     2.74438  2.74438  0.00000  0.51125
       3     N     3.87517  3.87517  0.00000 -0.75034
       4     O     4.28472  4.28472  0.00000 -0.56943
       5     C     3.14491  3.14491  0.00000 -0.28983
       6     H     0.30958  0.30958  0.00000  0.38085
       7     H     0.41402  0.41402  0.00000  0.17197
       8     H     0.38562  0.38562  0.00000  0.22876
       9     H     0.41402  0.41402  0.00000  0.17197

   Total alpha = 16.00000, Total beta = 16.00000, Total charge = -0.00000
