                              Psi4 1.0.54 Driver

  ==> Input File <==

--------------------------------------------------------------------------
set {
	reference rhf
	basis cc-pvtz
}

set_num_threads( 4 )
memory 2 gb

molecule MOL {
0 1

H	 -3.436473	 1.252944	 -1.023892
O	 -3.458596	 0.315260	 -0.960865
C	 -3.176635	 -0.080824	 0.355601
C	 -1.763371	 0.265266	 0.799691
H	 -3.321825	 -1.153438	 0.379502
H	 -3.895468	 0.357385	 1.043382
C	 -0.673390	 -0.426948	 -0.013392
H	 -1.631049	 1.344913	 0.747560
H	 -1.664587	 -0.001624	 1.849167
C	 0.737842	 -0.043159	 0.423759
H	 -0.806103	 -0.190518	 -1.063345
H	 -0.797221	 -1.503753	 0.074146
C	 1.824000	 -0.743224	 -0.390623
H	 0.850588	 1.033777	 0.343840
H	 0.868587	 -0.286314	 1.476203
C	 1.618634	 -2.247273	 -0.579064
H	 2.790370	 -0.570263	 0.077418
H	 1.876174	 -0.277905	 -1.371121
C	 1.716010	 -3.070433	 0.703148
H	 2.363119	 -2.609586	 -1.281379
H	 0.652779	 -2.421403	 -1.046208
H	 2.670040	 -2.911764	 1.195822
H	 1.628936	 -4.129317	 0.487684
H	 0.933673	 -2.817289	 1.408466

	symmetry c1
}
set optking {
	frozen_dihedral = ("
		17 13 10 7
	")
}

ee,wfn = optimize('scf', return_wfn=True)
oeprop( wfn, 'DIPOLE', 'QUADRUPOLE', 'MULLIKEN_CHARGES')
f=open( 'psi4out.xyz', 'w' )
f.write( "24  " )
f.write( str(ee) + "\n" )
f.write( MOL.save_string_xyz() )
f.close()
--------------------------------------------------------------------------

    Molecular point group: c1
  Charge       = 0
  Multiplicity = 1
  Basis Set: CC-PVTZ
  Basis Set:
  @DF-RHF Final Energy:  -349.37634838602492
    Total Energy =                       -349.3763483860246879
    Molecular point group: c1
  Basis Set: CC-PVTZ
  Basis Set:
  Basis Set: CC-PVTZ
  Basis Set:
  @DF-RHF Final Energy:  -349.34359730201396
    Total Energy =                       -349.3435973020135066
  Basis Set: CC-PVTZ
  Basis Set:
  Basis Set: CC-PVTZ
  Basis Set:
  @DF-RHF Final Energy:  -349.37597186881328
    Total Energy =                       -349.3759718688133944
  Basis Set: CC-PVTZ
  Basis Set:
  Basis Set: CC-PVTZ
  Basis Set:
  @DF-RHF Final Energy:  -349.37772354673723
    Total Energy =                       -349.3777235467369451
  Basis Set: CC-PVTZ
  Basis Set:
  Basis Set: CC-PVTZ
  Basis Set:
  @DF-RHF Final Energy:  -349.37785698597008
    Total Energy =                       -349.3778569859701406
  Basis Set: CC-PVTZ
  Basis Set:
  Basis Set: CC-PVTZ
  Basis Set:
  @DF-RHF Final Energy:  -349.37787624156590
    Total Energy =                       -349.3778762415654455
  Basis Set: CC-PVTZ
  Basis Set:
  Basis Set: CC-PVTZ
  Basis Set:
  @DF-RHF Final Energy:  -349.37787979334456
    Total Energy =                       -349.3778797933448459
  Basis Set: CC-PVTZ
  Basis Set:
  Charge       = 0
  Multiplicity = 1
  Basis Set: CC-PVTZ
  Basis Set:

    Orbital Energies (a.u.)
    -----------------------

    Doubly Occupied:

       1A    -20.546401     2A    -11.265633     3A    -11.215353
       4A    -11.210779     5A    -11.210450     6A    -11.209835
       7A    -11.208872     8A    -11.205081     9A     -1.364286
      10A     -1.089930    11A     -1.047237    12A     -0.984766
      13A     -0.918167    14A     -0.853911    15A     -0.811059
      16A     -0.760559    17A     -0.682994    18A     -0.654106
      19A     -0.623378    20A     -0.620420    21A     -0.612290
      22A     -0.575679    23A     -0.555274    24A     -0.545937
      25A     -0.521965    26A     -0.511443    27A     -0.495198
      28A     -0.477077    29A     -0.469893    30A     -0.462222
      31A     -0.450392    32A     -0.444795    33A     -0.422808

  @DF-RHF Final Energy:  -349.37788004664668

   => Energetics <=

    Nuclear Repulsion Energy =            393.2462102923054204
    One-Electron Energy =               -1253.1918130584977007
    Two-Electron Energy =                 510.5677227195453725
    DFT Exchange-Correlation Energy =       0.0000000000000000
    Empirical Dispersion Energy =           0.0000000000000000
    PCM Polarization Energy =               0.0000000000000000
    EFP Energy =                            0.0000000000000000
    Total Energy =                       -349.3778800466468510
    Molecular point group: c1
  Basis Set: CC-PVTZ
  Basis Set:

  -Total Gradient:
     Atom            X                  Y                   Z
    ------   -----------------  -----------------  -----------------
       1       -0.000001823373    -0.000020209059     0.000021749434
       2        0.000015824184    -0.000014666518     0.000018394971
       3       -0.000014330183     0.000052348494    -0.000024152834
       4        0.000006677494    -0.000015471723     0.000011947411
       5        0.000006416157     0.000010574110    -0.000020409671
       6        0.000004530359    -0.000008785115     0.000004605923
       7       -0.000321157026    -0.001703669709     0.002336226544
       8       -0.000002864509    -0.000012983398     0.000003972901
       9        0.000000974512    -0.000005676058    -0.000015060162
      10        0.000274547640     0.001834971568    -0.002711994754
      11        0.000002481812    -0.000000978246     0.000016847928
      12       -0.000002026229     0.000019724450    -0.000009544027
      13        0.000863437597     0.002474484387    -0.002339350104
      14        0.000005091327    -0.000004909891     0.000000026340
      15       -0.000016739997     0.000003467612    -0.000008112816
      16        0.000016953985    -0.000001470068     0.000004666345
      17       -0.000829654513    -0.002620956233     0.002720840850
      18        0.000010269269    -0.000011989412     0.000000061288
      19       -0.000020301919     0.000009639365    -0.000005414693
      20       -0.000004751380     0.000004683732    -0.000009405444
      21        0.000001986634     0.000006385734     0.000010510916
      22       -0.000007388395     0.000001282573    -0.000010156900
      23        0.000007529578     0.000012195323    -0.000003743422
      24        0.000004316967    -0.000007991915     0.000007493977

  **** Optimization is complete! (in 8 steps) ****
    Final optimized geometry and variables:
    Molecular point group: c1

    Geometry (in Angstrom), charge = 0, multiplicity = 1:

    H           -2.723369838429     1.615754216180    -2.002683926289
    O           -2.831337098413     0.754318171597    -1.642225634240
    C           -2.742509708144     0.808838072152    -0.242850950517
    C           -1.369093613673     1.229390342216     0.258118734031
    H           -2.977078669316    -0.188505275102     0.107075292025
    H           -3.500327374293     1.477557022130     0.157575238272
    C           -0.248195406401     0.269453121933    -0.131730868305
    H           -1.146042854362     2.227007014696    -0.116727741425
    H           -1.417542916472     1.316916622668     1.341005426803
    C            1.117896003275     0.723893518485     0.378917006898
    H           -0.224620752389     0.169212144509    -1.211881739686
    H           -0.483087652404    -0.714664743793     0.259939096791
    C            2.309278392589    -0.125768212864    -0.081114737567
    H            1.293842037164     1.748521213495     0.063568402809
    H            1.091379080208     0.750364322085     1.465124481136
    C            2.172722253896    -1.641461996358     0.094969771047
    H            3.183793372935     0.185989009706     0.483986070198
    H            2.513325446843     0.083385325135    -1.126881230108
    C            2.030328091290    -2.094259699520     1.545996159780
    H            3.057478552428    -2.107117954865    -0.328531345003
    H            1.335156260073    -2.012764727615    -0.485518085008
    H            2.868262310481    -1.751246345590     2.144539421064
    H            1.999771371539    -3.175844617451     1.611774435447
    H            1.124033771026    -1.714486016547     2.003073934040

  Mulliken Charges: (a.u.)
   Center  Symbol    Alpha    Beta     Spin     Total
       1     H     0.39516  0.39516  0.00000  0.20967
       2     O     4.20386  4.20386  0.00000 -0.40772
       3     C     2.97724  2.97724  0.00000  0.04553
       4     C     3.10405  3.10405  0.00000 -0.20810
       5     H     0.45899  0.45899  0.00000  0.08202
       6     H     0.46017  0.46017  0.00000  0.07966
       7     C     3.09004  3.09004  0.00000 -0.18009
       8     H     0.45794  0.45794  0.00000  0.08411
       9     H     0.45301  0.45301  0.00000  0.09398
      10     C     3.10759  3.10759  0.00000 -0.21519
      11     H     0.44474  0.44474  0.00000  0.11052
      12     H     0.45254  0.45254  0.00000  0.09492
      13     C     3.09837  3.09837  0.00000 -0.19674
      14     H     0.44503  0.44503  0.00000  0.10993
      15     H     0.45181  0.45181  0.00000  0.09638
      16     C     3.09973  3.09973  0.00000 -0.19946
      17     H     0.45031  0.45031  0.00000  0.09937
      18     H     0.44799  0.44799  0.00000  0.10401
      19     C     3.15187  3.15187  0.00000 -0.30374
      20     H     0.44457  0.44457  0.00000  0.11087
      21     H     0.44960  0.44960  0.00000  0.10080
      22     H     0.45409  0.45409  0.00000  0.09183
      23     H     0.44619  0.44619  0.00000  0.10761
      24     H     0.45510  0.45510  0.00000  0.08981

   Total alpha = 33.00000, Total beta = 33.00000, Total charge = -0.00000

*** Psi4 exiting successfully. Buy a developer a beer!
