                              Psi4 1.0.54 Driver

  ==> Input File <==

--------------------------------------------------------------------------
set {
	reference rhf
	basis cc-pvtz
}

set_num_threads( 4 )
memory 2 gb

molecule MOL {
0 1

H	 2.141569	 -1.072449	 -0.897762
C	 1.362361	 -0.351737	 -1.080083
O	 0.462329	 -0.453336	 -0.000137
H	 0.874152	 -0.585377	 -2.017784
H	 1.798418	 0.637885	 -1.132425
C	 -0.590565	 0.341382	 0.000062
O	 -1.693898	 -0.053880	 0.000252
H	 -0.340426	 1.403822	 0.000200

	symmetry c1
}
set optking {
	frozen_dihedral = ("
		2 3 6 7
	")
}

ee,wfn = optimize('scf', return_wfn=True)
oeprop( wfn, 'DIPOLE', 'QUADRUPOLE', 'MULLIKEN_CHARGES')
f=open( 'psi4out.xyz', 'w' )
f.write( "8  " )
f.write( str(ee) + "\n" )
f.write( MOL.save_string_xyz() )
f.close()
--------------------------------------------------------------------------

    Molecular point group: c1
  Charge       = 0
  Multiplicity = 1
  Basis Set: CC-PVTZ
  Basis Set:
  @DF-RHF Final Energy:  -227.86183110117031
    Total Energy =                       -227.8618311011701962
    Molecular point group: c1
  Basis Set: CC-PVTZ
  Basis Set:
  Basis Set: CC-PVTZ
  Basis Set:
  @DF-RHF Final Energy:  -227.86208267606753
    Total Energy =                       -227.8620826760675016
  Basis Set: CC-PVTZ
  Basis Set:
  Basis Set: CC-PVTZ
  Basis Set:
  @DF-RHF Final Energy:  -227.86099025492643
    Total Energy =                       -227.8609902549264916
  Basis Set: CC-PVTZ
  Basis Set:
  Basis Set: CC-PVTZ
  Basis Set:
  @DF-RHF Final Energy:  -227.86225194734894
    Total Energy =                       -227.8622519473489376
  Basis Set: CC-PVTZ
  Basis Set:
  Basis Set: CC-PVTZ
  Basis Set:
  @DF-RHF Final Energy:  -227.86227338910408
    Total Energy =                       -227.8622733891039900
  Basis Set: CC-PVTZ
  Basis Set:
  Charge       = 0
  Multiplicity = 1
  Basis Set: CC-PVTZ
  Basis Set:

    Orbital Energies (a.u.)
    -----------------------

    Doubly Occupied:

       1A    -20.597028     2A    -20.559168     3A    -11.376119
       4A    -11.300234     5A     -1.475570     6A     -1.387778
       7A     -0.988286     8A     -0.843073     9A     -0.740507
      10A     -0.690540    11A     -0.676468    12A     -0.622899
      13A     -0.568405    14A     -0.522139    15A     -0.474922
      16A     -0.460517

  @DF-RHF Final Energy:  -227.86227524628055

   => Energetics <=

    Nuclear Repulsion Energy =            121.7587174734218110
    One-Electron Energy =                -552.6746782868863193
    Two-Electron Energy =                 203.0536855671839476
    DFT Exchange-Correlation Energy =       0.0000000000000000
    Empirical Dispersion Energy =           0.0000000000000000
    PCM Polarization Energy =               0.0000000000000000
    EFP Energy =                            0.0000000000000000
    Total Energy =                       -227.8622752462805465
    Molecular point group: c1
  Basis Set: CC-PVTZ
  Basis Set:

  -Total Gradient:
     Atom            X                  Y                   Z
    ------   -----------------  -----------------  -----------------
       1       -0.000018848154    -0.000021659491     0.000077151083
       2       -0.002509148499    -0.002570134757    -0.002601833043
       3        0.003596124849     0.004172230797     0.000922743196
       4       -0.000001147098    -0.000017049696    -0.000027097047
       5        0.000032574706     0.000020021398     0.000007573009
       6       -0.001182183205    -0.002001011654     0.007304242079
       7        0.000098788173     0.000417682339    -0.005693868044
       8       -0.000016160770    -0.000000078934     0.000011088767

  **** Optimization is complete! (in 6 steps) ****
    Final optimized geometry and variables:
    Molecular point group: c1

    Geometry (in Angstrom), charge = 0, multiplicity = 1:

    H            2.276823100322    -0.939636587969    -0.555257010087
    C            1.456819566573    -0.276145147109    -0.773863850194
    O            0.528744579947    -0.410388842136     0.279199522614
    H            1.001160795016    -0.557667923940    -1.714145711202
    H            1.830023328230     0.740753999353    -0.841864022952
    C           -0.458191296489     0.483934471532     0.308406572717
    O           -1.593269431156     0.206856906776     0.241478133413
    H           -0.103721058818     1.512638138001     0.389854559118

  Mulliken Charges: (a.u.)
   Center  Symbol    Alpha    Beta     Spin     Total
       1     H     0.44245  0.44245  0.00000  0.11510
       2     C     3.02553  3.02553  0.00000 -0.05106
       3     O     4.14121  4.14121  0.00000 -0.28243
       4     H     0.45589  0.45589  0.00000  0.08821
       5     H     0.46675  0.46675  0.00000  0.06651
       6     C     2.83286  2.83286  0.00000  0.33429
       7     O     4.16296  4.16296  0.00000 -0.32592
       8     H     0.47235  0.47235  0.00000  0.05530

   Total alpha = 16.00000, Total beta = 16.00000, Total charge = -0.00000

*** Psi4 exiting successfully. Buy a developer a beer!
