                              Psi4 1.0.54 Driver

  ==> Input File <==

--------------------------------------------------------------------------
set {
	reference rhf
	basis cc-pvtz
}

set_num_threads( 4 )
memory 2 gb

molecule MOL {
0 1

H	 -3.941973	 0.934228	 -0.390224
C	 -3.240162	 0.342701	 0.161016
C	 -2.105997	 -0.000418	 -0.398703
H	 -3.485368	 0.047206	 1.162193
O	 -1.189946	 -0.765863	 0.237511
H	 -1.846458	 0.297311	 -1.398265
C	 0.026572	 -0.995256	 -0.379403
C	 1.057223	 0.049888	 -0.004615
H	 -0.054361	 -1.010670	 -1.459674
H	 0.397526	 -1.952058	 -0.044198
F	 0.575931	 1.250803	 -0.256093
F	 1.362643	 0.001809	 1.274414
F	 2.169338	 -0.088492	 -0.684696

	symmetry c1
}
set optking {
	frozen_dihedral = ("
		11 8 7 9
	")
}

ee,wfn = optimize('scf', return_wfn=True)
oeprop( wfn, 'DIPOLE', 'QUADRUPOLE', 'MULLIKEN_CHARGES')
f=open( 'psi4out.xyz', 'w' )
f.write( "13  " )
f.write( str(ee) + "\n" )
f.write( MOL.save_string_xyz() )
f.close()
--------------------------------------------------------------------------

    Molecular point group: c1
  Charge       = 0
  Multiplicity = 1
  Basis Set: CC-PVTZ
  Basis Set:
  @DF-RHF Final Energy:  -527.74126441685314
    Total Energy =                       -527.7412644168532552
    Molecular point group: c1
  Basis Set: CC-PVTZ
  Basis Set:
  Basis Set: CC-PVTZ
  Basis Set:
  @DF-RHF Final Energy:  -527.74168007037179
    Total Energy =                       -527.7416800703713307
  Basis Set: CC-PVTZ
  Basis Set:
  Basis Set: CC-PVTZ
  Basis Set:
  @DF-RHF Final Energy:  -527.74178745689051
    Total Energy =                       -527.7417874568905063
  Basis Set: CC-PVTZ
  Basis Set:
  Basis Set: CC-PVTZ
  Basis Set:
  @DF-RHF Final Energy:  -527.74180616770707
    Total Energy =                       -527.7418061677068408
  Basis Set: CC-PVTZ
  Basis Set:
  Basis Set: CC-PVTZ
  Basis Set:
  @DF-RHF Final Energy:  -527.74180988338026
    Total Energy =                       -527.7418098833800286
  Basis Set: CC-PVTZ
  Basis Set:
  Basis Set: CC-PVTZ
  Basis Set:
  @DF-RHF Final Energy:  -527.74181237651646
    Total Energy =                       -527.7418123765157816
  Basis Set: CC-PVTZ
  Basis Set:
  Charge       = 0
  Multiplicity = 1
  Basis Set: CC-PVTZ
  Basis Set:

    Orbital Energies (a.u.)
    -----------------------

    Doubly Occupied:

       1A    -26.342479     2A    -26.340684     3A    -26.337310
       4A    -20.604371     5A    -11.497941     6A    -11.320062
       7A    -11.298758     8A    -11.213818     9A     -1.750517
      10A     -1.647753    11A     -1.644614    12A     -1.444996
      13A     -1.088211    14A     -1.020610    15A     -0.932338
      16A     -0.843974    17A     -0.839822    18A     -0.827247
      19A     -0.797762    20A     -0.729967    21A     -0.719356
      22A     -0.704278    23A     -0.681392    24A     -0.668620
      25A     -0.661275    26A     -0.650868    27A     -0.640041
      28A     -0.587881    29A     -0.566162    30A     -0.529388
      31A     -0.518376    32A     -0.356670

  @DF-RHF Final Energy:  -527.74181298043550

   => Energetics <=

    Nuclear Repulsion Energy =            413.4171944556424023
    One-Electron Energy =               -1550.7029399748519154
    Two-Electron Energy =                 609.5439325387740155
    DFT Exchange-Correlation Energy =       0.0000000000000000
    Empirical Dispersion Energy =           0.0000000000000000
    PCM Polarization Energy =               0.0000000000000000
    EFP Energy =                            0.0000000000000000
    Total Energy =                       -527.7418129804354976
    Molecular point group: c1
  Basis Set: CC-PVTZ
  Basis Set:

  -Total Gradient:
     Atom            X                  Y                   Z
    ------   -----------------  -----------------  -----------------
       1       -0.000002022528     0.000001633178     0.000002877415
       2        0.000019604308     0.000015063204     0.000000205358
       3       -0.000085466856     0.000009578957     0.000011424340
       4        0.000002301594     0.000003469462     0.000000875784
       5        0.000024465055    -0.000009008006    -0.000024083818
       6        0.000016870188    -0.000010410017    -0.000005741803
       7       -0.001922118791     0.001648621474     0.000636901299
       8        0.001046192593    -0.000274164454    -0.002055464425
       9        0.001414331570    -0.001349713151    -0.000080635771
      10        0.000012852537    -0.000002445497    -0.000009767864
      11       -0.000630880860     0.000010749243     0.001569267529
      12       -0.000004870076     0.000005723095    -0.000000948730
      13        0.000108741268    -0.000049097484    -0.000044909309

  **** Optimization is complete! (in 7 steps) ****
    Final optimized geometry and variables:
    Molecular point group: c1

    Geometry (in Angstrom), charge = 0, multiplicity = 1:

    H           -3.952590882719     0.938403599508    -0.364480650622
    C           -3.249957862808     0.337878324226     0.175880955430
    C           -2.111030203895     0.015211741120    -0.386266959469
    H           -3.497807770967     0.017691859631     1.168791687727
    O           -1.192036798847    -0.757217820601     0.237232884769
    H           -1.848806986840     0.337688230847    -1.377371262562
    C            0.017669224902    -0.985751025747    -0.390787513839
    C            1.060554227662     0.047076870646    -0.012097471284
    H           -0.063418501276    -1.001079824535    -1.471075770741
    H            0.387114257234    -1.947101644153    -0.065897785355
    F            0.646171040427     1.273332950786    -0.242502246701
    F            1.382427621775    -0.027220836098     1.258358073205
    F            2.156250179591    -0.150968132584    -0.716289756158

  Mulliken Charges: (a.u.)
   Center  Symbol    Alpha    Beta     Spin     Total
       1     H     0.42517  0.42517  0.00000  0.14965
       2     C     3.19746  3.19746  0.00000 -0.39493
       3     C     2.95776  2.95776  0.00000  0.08449
       4     H     0.42484  0.42484  0.00000  0.15032
       5     O     4.14432  4.14432  0.00000 -0.28864
       6     H     0.43460  0.43460  0.00000  0.13080
       7     C     3.02074  3.02074  0.00000 -0.04147
       8     C     2.67458  2.67458  0.00000  0.65084
       9     H     0.45536  0.45536  0.00000  0.08928
      10     H     0.43573  0.43573  0.00000  0.12854
      11     F     4.60920  4.60920  0.00000 -0.21841
      12     F     4.60793  4.60793  0.00000 -0.21586
      13     F     4.61231  4.61231  0.00000 -0.22462

   Total alpha = 32.00000, Total beta = 32.00000, Total charge = -0.00000

*** Psi4 exiting successfully. Buy a developer a beer!
