  ==> Input File <==

--------------------------------------------------------------------------
set {
	reference rhf
	basis cc-pvtz
}

set_num_threads( 4 )
memory 2 gb

molecule MOL {
0 1

H	 2.828711	 -0.346904	 0.001083
C	 1.876752	 0.015931	 -0.363450
C	 0.776285	 -0.474665	 0.563092
H	 1.728113	 -0.357244	 -1.367440
H	 1.906171	 1.096574	 -0.386153
N	 -0.540022	 0.017605	 0.071630
H	 0.707111	 -1.548969	 0.573035
H	 0.886169	 -0.084184	 1.560432
O	 -1.511333	 -0.429877	 0.582032
O	 -0.527636	 0.802410	 -0.816246

	symmetry c1
}
set optking {
	frozen_dihedral = ("
		9 6 3 2
	")
}

ee = optimize('scf')
oeprop('DIPOLE', 'QUADRUPOLE', 'MULLIKEN_CHARGES')
f=open( 'psi4out.xyz', 'w' )
f.write( "10  " )
f.write( str(ee) + "\n" )
f.write( MOL.save_string_xyz() )
f.close()
--------------------------------------------------------------------------

    Molecular point group: c1
  Charge       = 0
  Multiplicity = 1
  Basis Set: CC-PVTZ
  Basis Set:
  @DF-RHF Final Energy:  -282.81099727738643
    Total Energy =                       -282.8109972773862637
    Molecular point group: c1
  Basis Set: CC-PVTZ
  Basis Set:
  Basis Set: CC-PVTZ
  Basis Set:
  @DF-RHF Final Energy:  -282.80983137940729
    Total Energy =                       -282.8098313794072851
  Basis Set: CC-PVTZ
  Basis Set:
  Basis Set: CC-PVTZ
  Basis Set:
  @DF-RHF Final Energy:  -282.80970750502320
    Total Energy =                       -282.8097075050231979
  Basis Set: CC-PVTZ
  Basis Set:
  Basis Set: CC-PVTZ
  Basis Set:
  @DF-RHF Final Energy:  -282.81275957652076
    Total Energy =                       -282.8127595765209321
  Basis Set: CC-PVTZ
  Basis Set:
  Basis Set: CC-PVTZ
  Basis Set:
  @DF-RHF Final Energy:  -282.81285490347148
    Total Energy =                       -282.8128549034715888
  Basis Set: CC-PVTZ
  Basis Set:
  Basis Set: CC-PVTZ
  Basis Set:
  @DF-RHF Final Energy:  -282.81288680180205
    Total Energy =                       -282.8128868018019375
  Basis Set: CC-PVTZ
  Basis Set:
  Basis Set: CC-PVTZ
  Basis Set:
  @DF-RHF Final Energy:  -282.81288903978236
    Total Energy =                       -282.8128890397823625
  Basis Set: CC-PVTZ
  Basis Set:
  Charge       = 0
  Multiplicity = 1
  Basis Set: CC-PVTZ
  Basis Set:

    Orbital Energies (a.u.)
    -----------------------

    Doubly Occupied:

       1A    -20.594922     2A    -20.588857     3A    -15.839652
       4A    -11.303289     5A    -11.243616     6A     -1.638636
       7A     -1.422901     8A     -1.123928     9A     -0.966913
      10A     -0.834889    11A     -0.762709    12A     -0.753578
      13A     -0.732212    14A     -0.638608    15A     -0.594964
      16A     -0.564106    17A     -0.538772    18A     -0.490374
      19A     -0.479931    20A     -0.455214

  @DF-RHF Final Energy:  -282.81288925026530

   => Energetics <=

    Nuclear Repulsion Energy =            186.5743376810627296
    One-Electron Energy =                -755.6383178473990938
    Two-Electron Energy =                 286.2510909160710071
    DFT Exchange-Correlation Energy =       0.0000000000000000
    Empirical Dispersion Energy =           0.0000000000000000
    PCM Polarization Energy =               0.0000000000000000
    EFP Energy =                            0.0000000000000000
    Total Energy =                       -282.8128892502653571
    Molecular point group: c1
  Basis Set: CC-PVTZ
  Basis Set:

  -Total Gradient:
     Atom            X                  Y                   Z
    ------   -----------------  -----------------  -----------------
       1       -0.000005021608     0.000000973126     0.000001546624
       2       -0.000002102654     0.000036174586     0.000028131668
       3        0.000000641759    -0.000055360970    -0.000017105583
       4        0.000002046649     0.000000150912     0.000002793700
       5        0.000001750292     0.000010606532    -0.000003469634
       6        0.000036131476    -0.000060973303    -0.000044900586
       7        0.000001053630    -0.000002047993     0.000004054499
       8       -0.000000081176    -0.000001310509    -0.000003274409
       9       -0.000001661866     0.000070615503     0.000026216693
      10       -0.000032756503     0.000001172115     0.000006007026

  **** Optimization is complete! (in 8 steps) ****
    Final optimized geometry and variables:
    Molecular point group: c1

    Geometry (in Angstrom), charge = 0, multiplicity = 1:

    H            2.855268343398    -0.376953305507     0.024738828265
    C            1.929017536532     0.017341218864    -0.375267354760
    C            0.798133369606    -0.443229696323     0.514634984140
    H            1.808382070602    -0.347378026010    -1.385429733356
    H            1.995307061001     1.094316821127    -0.405729684077
    N           -0.548326600989     0.021866119783     0.060592894570
    H            0.711751813096    -1.516451658641     0.568011434966
    H            0.883274988084    -0.064822040086     1.522799386040
    O           -1.477675134548    -0.462050008553     0.614943675385
    O           -0.608370690809     0.838746949893    -0.792989448240

  Mulliken Charges: (a.u.)
   Center  Symbol    Alpha    Beta     Spin     Total
       1     H     0.44933  0.44933  0.00000  0.10133
       2     C     3.13843  3.13843  0.00000 -0.27686
       3     C     3.04366  3.04366  0.00000 -0.08732
       4     H     0.44307  0.44307  0.00000  0.11385
       5     H     0.44014  0.44014  0.00000  0.11971
       6     N     3.27619  3.27619  0.00000  0.44762
       7     H     0.43216  0.43216  0.00000  0.13567
       8     H     0.43415  0.43415  0.00000  0.13170
       9     O     4.17344  4.17344  0.00000 -0.34688
      10     O     4.16942  4.16942  0.00000 -0.33883

   Total alpha = 20.00000, Total beta = 20.00000, Total charge =  0.00000
