  ==> Input File <==

--------------------------------------------------------------------------
set {
	reference rhf
	basis 6-31G*
}

set_num_threads( 1 )
memory 2 gb

molecule MOL {
0 1

H	 -2.698709	 -0.000305	 0.034435
C	 -1.693833	 0.000034	 0.434417
O	 -0.828952	 -0.000968	 -0.659236
H	 -1.574200	 0.882896	 1.055746
H	 -1.574147	 -0.881698	 1.057355
C	 0.500930	 -0.423871	 -0.466703
C	 1.274999	 0.491660	 0.479625
C	 0.594965	 -1.892944	 -0.059346
H	 0.936227	 -0.324862	 -1.453995
H	 1.144646	 1.528809	 0.190006
H	 2.334077	 0.257270	 0.438985
H	 0.955947	 0.380844	 1.511172
H	 -0.006625	 -2.506191	 -0.721521
H	 1.624579	 -2.230819	 -0.124161
H	 0.260979	 -2.059043	 0.959823

	symmetry c1
}
set optking {
	frozen_dihedral = ("
		9 6 3 2
	")
}

ee = energy('scf')
oeprop('DIPOLE', 'QUADRUPOLE', 'MULLIKEN_CHARGES')
f=open( 'psi4out.xyz', 'w' )
f.write( "15  " )
f.write( str(ee) + "\n" )
f.write( MOL.save_string_xyz() )
f.close()
--------------------------------------------------------------------------

    Molecular point group: c1

    Geometry (in Angstrom), charge = 0, multiplicity = 1:

       Center              X                  Y                   Z               Mass
    ------------   -----------------  -----------------  -----------------  -----------------
           H         -2.648481178424     0.362968153747     0.073823023380     1.007825032070
           C         -1.643605178424     0.363307153747     0.473805023380    12.000000000000
           O         -0.778724178424     0.362305153747    -0.619847976620    15.994914619560
           H         -1.523972178424     1.246169153747     1.095134023380     1.007825032070
           H         -1.523919178424    -0.518424846253     1.096743023380     1.007825032070
           C          0.551157821576    -0.060597846253    -0.427314976620    12.000000000000
           C          1.325226821576     0.854933153747     0.519013023380    12.000000000000
           C          0.645192821576    -1.529670846253    -0.019957976620    12.000000000000
           H          0.986454821576     0.038411153747    -1.414606976620     1.007825032070
           H          1.194873821576     1.892082153747     0.229394023380     1.007825032070
           H          2.384304821576     0.620543153747     0.478373023380     1.007825032070
           H          1.006174821576     0.744117153747     1.550560023380     1.007825032070
           H          0.043602821576    -2.142917846253    -0.682132976620     1.007825032070
           H          1.674806821576    -1.867545846253    -0.084772976620     1.007825032070
           H          0.311206821576    -1.695769846253     0.999211023380     1.007825032070

  Charge       = 0
  Multiplicity = 1
  Basis Set: 6-31G*
  Basis Set:

    Orbital Energies (a.u.)
    -----------------------

    Doubly Occupied:

       1A    -20.547934     2A    -11.274474     3A    -11.260840
       4A    -11.210746     5A    -11.210470     6A     -1.370280
       7A     -1.050573     8A     -0.939674     9A     -0.931246
      10A     -0.781325    11A     -0.674979    12A     -0.639903
      13A     -0.633137    14A     -0.572200    15A     -0.565086
      16A     -0.552842    17A     -0.534866    18A     -0.498013
      19A     -0.496925    20A     -0.442986    21A     -0.405863

  @DF-RHF Final Energy:  -232.13704784687116

   => Energetics <=

    Nuclear Repulsion Energy =            198.7768845271829150
    One-Electron Energy =                -708.6390489755859790
    Two-Electron Energy =                 277.7251166015312265
    DFT Exchange-Correlation Energy =       0.0000000000000000
    Empirical Dispersion Energy =           0.0000000000000000
    PCM Polarization Energy =               0.0000000000000000
    EFP Energy =                            0.0000000000000000
    Total Energy =                       -232.1370478468718375

  Mulliken Charges: (a.u.)
   Center  Symbol    Alpha    Beta     Spin     Total
       1     H     0.41369  0.41369  0.00000  0.17262
       2     C     3.08094  3.08094  0.00000 -0.16187
       3     O     4.31224  4.31224  0.00000 -0.62448
       4     H     0.42766  0.42766  0.00000  0.14468
       5     H     0.43038  0.43038  0.00000  0.13923
       6     C     2.90938  2.90938  0.00000  0.18124
       7     C     3.25264  3.25264  0.00000 -0.50528
       8     C     3.25329  3.25329  0.00000 -0.50658
       9     H     0.41523  0.41523  0.00000  0.16954
      10     H     0.41143  0.41143  0.00000  0.17714
      11     H     0.41962  0.41962  0.00000  0.16075
      12     H     0.42168  0.42168  0.00000  0.15664
      13     H     0.41131  0.41131  0.00000  0.17738
      14     H     0.41913  0.41913  0.00000  0.16173
      15     H     0.42136  0.42136  0.00000  0.15728

   Total alpha = 21.00000, Total beta = 21.00000, Total charge = -0.00000
