  ==> Input File <==

--------------------------------------------------------------------------
set {
	reference rhf
	basis 6-31G*
}

set_num_threads( 4 )
memory 2 gb

molecule MOL {
0 1

H	 -1.836216	 1.387520	 -0.000064
C	 -1.301823	 0.443321	 -0.000031
O	 -0.003969	 0.658512	 0.000451
O	 -1.829879	 -0.616434	 -0.000857
C	 0.448461	 1.941224	 -0.432150
C	 1.959147	 1.943967	 -0.341921
H	 0.006744	 2.698414	 0.200990
H	 0.105858	 2.109230	 -1.443927
H	 2.284150	 1.766288	 0.676822
H	 2.345242	 2.905774	 -0.663000
H	 2.383904	 1.174292	 -0.976010

	symmetry c1
}
set optking {
	frozen_dihedral = ("
		5 3 2 4
	")
}

ee = optimize('scf')
oeprop('DIPOLE', 'QUADRUPOLE', 'MULLIKEN_CHARGES')
f=open( 'psi4out.xyz', 'w' )
f.write( "11  " )
f.write( str(ee) + "\n" )
f.write( MOL.save_string_xyz() )
f.close()
--------------------------------------------------------------------------

    Molecular point group: c1
  Charge       = 0
  Multiplicity = 1
  Basis Set: 6-31G*
  Basis Set:
  @DF-RHF Final Energy:  -266.81730584987122
    Total Energy =                       -266.8173058498712180
    Molecular point group: c1
  Basis Set: 6-31G*
  Basis Set:
  Basis Set: 6-31G*
  Basis Set:
  @DF-RHF Final Energy:  -266.81830691319203
    Total Energy =                       -266.8183069131920320
  Basis Set: 6-31G*
  Basis Set:
  Basis Set: 6-31G*
  Basis Set:
  @DF-RHF Final Energy:  -266.81816277839744
    Total Energy =                       -266.8181627783975500
  Basis Set: 6-31G*
  Basis Set:
  Basis Set: 6-31G*
  Basis Set:
  @DF-RHF Final Energy:  -266.81852916230082
    Total Energy =                       -266.8185291623008197
  Basis Set: 6-31G*
  Basis Set:
  Basis Set: 6-31G*
  Basis Set:
  @DF-RHF Final Energy:  -266.81853880556866
    Total Energy =                       -266.8185388055685507
  Basis Set: 6-31G*
  Basis Set:
  Charge       = 0
  Multiplicity = 1
  Basis Set: 6-31G*
  Basis Set:

    Orbital Energies (a.u.)
    -----------------------

    Doubly Occupied:

       1A    -20.610917     2A    -20.556502     3A    -11.379796
       4A    -11.306975     5A    -11.233690     6A     -1.472960
       7A     -1.380218     8A     -1.055577     9A     -0.889216
      10A     -0.847212    11A     -0.739142    12A     -0.694350
      13A     -0.665033    14A     -0.607689    15A     -0.572425
      16A     -0.561436    17A     -0.534232    18A     -0.518905
      19A     -0.457681    20A     -0.449648

  @DF-RHF Final Energy:  -266.81853936594024

   => Energetics <=

    Nuclear Repulsion Energy =            176.2614767002851295
    One-Electron Energy =                -713.0928300464772747
    Two-Electron Energy =                 270.0128139802517921
    DFT Exchange-Correlation Energy =       0.0000000000000000
    Empirical Dispersion Energy =           0.0000000000000000
    PCM Polarization Energy =               0.0000000000000000
    EFP Energy =                            0.0000000000000000
    Total Energy =                       -266.8185393659403530
    Molecular point group: c1
  Basis Set: 6-31G*
  Basis Set:

  -Total Gradient:
     Atom            X                  Y                   Z
    ------   -----------------  -----------------  -----------------
       1        0.000003779390    -0.000027334604    -0.000001506838
       2        0.000393390362    -0.000857964230     0.003388210635
       3        0.000203110651     0.001110756206     0.002061224434
       4       -0.000440844713     0.000354502607    -0.003063621343
       5       -0.000195515775    -0.000608073792    -0.002393531969
       6        0.000030807635     0.000039672973     0.000001861754
       7        0.000019903198    -0.000007493615     0.000001789496
       8       -0.000002652498     0.000006788257    -0.000001980852
       9       -0.000002166854    -0.000002904264     0.000007369345
      10        0.000000693736    -0.000008339614     0.000001179296
      11       -0.000010505126     0.000000390080    -0.000000993958

  **** Optimization is complete! (in 6 steps) ****
    Final optimized geometry and variables:
    Molecular point group: c1

    Geometry (in Angstrom), charge = 0, multiplicity = 1:

    H           -1.714002042848     0.510310310609     0.383851896024
    C           -1.163402841751    -0.415883686633     0.217286524801
    O            0.138673650991    -0.239178011123     0.055120350965
    O           -1.683798884202    -1.472179466829     0.183474277803
    C            0.600292766891     1.050885167540    -0.313248372311
    C            2.104236745382     1.074805866051    -0.142398972247
    H            0.128218818593     1.801490419698     0.313091769755
    H            0.323456429880     1.244237768513    -1.343322786823
    H            2.371829561070     0.882505815207     0.889827884321
    H            2.495283301325     2.045537624046    -0.428328511563
    H            2.567541407014     0.318019976183    -0.763668708365

  Mulliken Charges: (a.u.)
   Center  Symbol    Alpha    Beta     Spin     Total
       1     H     0.43240  0.43240  0.00000  0.13519
       2     C     2.72016  2.72016  0.00000  0.55968
       3     O     4.28476  4.28476  0.00000 -0.56952
       4     O     4.24693  4.24693  0.00000 -0.49385
       5     C     3.00961  3.00961  0.00000 -0.01922
       6     C     3.24697  3.24697  0.00000 -0.49395
       7     H     0.41836  0.41836  0.00000  0.16327
       8     H     0.41273  0.41273  0.00000  0.17455
       9     H     0.40779  0.40779  0.00000  0.18442
      10     H     0.41557  0.41557  0.00000  0.16885
      11     H     0.40471  0.40471  0.00000  0.19058

   Total alpha = 20.00000, Total beta = 20.00000, Total charge = -0.00000
