  ==> Input File <==

--------------------------------------------------------------------------
set {
	reference rhf
	basis 6-31G*
}

set_num_threads( 4 )
memory 2 gb

molecule MOL {
0 1

H	 -2.098997	 -0.674324	 -0.616650
O	 -2.035884	 -0.060112	 0.102722
C	 -0.955155	 0.788182	 -0.092531
C	 0.353668	 0.040312	 -0.004810
H	 -0.985057	 1.290372	 -1.054184
H	 -0.974469	 1.533190	 0.688632
F	 0.282818	 -1.105829	 -0.672577
F	 1.331830	 0.755346	 -0.536904
F	 0.689432	 -0.245246	 1.236668

	symmetry c1
}
set optking {
	frozen_dihedral = ("
		7 4 3 5
	")
}

ee = optimize('scf')
oeprop('DIPOLE', 'QUADRUPOLE', 'MULLIKEN_CHARGES')
f=open( 'psi4out.xyz', 'w' )
f.write( "9  " )
f.write( str(ee) + "\n" )
f.write( MOL.save_string_xyz() )
f.close()
--------------------------------------------------------------------------

    Molecular point group: c1
  Charge       = 0
  Multiplicity = 1
  Basis Set: 6-31G*
  Basis Set:
  @DF-RHF Final Energy:  -450.66174939477924
    Total Energy =                       -450.6617493947790081
    Molecular point group: c1
  Basis Set: 6-31G*
  Basis Set:
  Basis Set: 6-31G*
  Basis Set:
  @DF-RHF Final Energy:  -450.66187991149513
    Total Energy =                       -450.6618799114950775
  Basis Set: 6-31G*
  Basis Set:
  Basis Set: 6-31G*
  Basis Set:
  @DF-RHF Final Energy:  -450.66192305314195
    Total Energy =                       -450.6619230531420044
  Basis Set: 6-31G*
  Basis Set:
  Charge       = 0
  Multiplicity = 1
  Basis Set: 6-31G*
  Basis Set:

    Orbital Energies (a.u.)
    -----------------------

    Doubly Occupied:

       1A    -26.344892     2A    -26.344578     3A    -26.338496
       4A    -20.590606     5A    -11.501113     6A    -11.309630
       7A     -1.740926     8A     -1.640701     9A     -1.636165
      10A     -1.403079    11A     -1.047633    12A     -0.924205
      13A     -0.830339    14A     -0.829594    15A     -0.808129
      16A     -0.724976    17A     -0.712604    18A     -0.697986
      19A     -0.665476    20A     -0.659507    21A     -0.642853
      22A     -0.628510    23A     -0.615644    24A     -0.529884
      25A     -0.480460

  @DF-RHF Final Energy:  -450.66192479494407

   => Energetics <=

    Nuclear Repulsion Energy =            277.0026491317159980
    One-Electron Energy =               -1176.0331812818612889
    Two-Electron Energy =                 448.3686073552013340
    DFT Exchange-Correlation Energy =       0.0000000000000000
    Empirical Dispersion Energy =           0.0000000000000000
    PCM Polarization Energy =               0.0000000000000000
    EFP Energy =                            0.0000000000000000
    Total Energy =                       -450.6619247949439568
    Molecular point group: c1
  Basis Set: 6-31G*
  Basis Set:

  -Total Gradient:
     Atom            X                  Y                   Z
    ------   -----------------  -----------------  -----------------
       1        0.000023239965     0.000011639814    -0.000014584345
       2        0.000052483033     0.000051261847    -0.000019925837
       3       -0.002269439983    -0.004067908539    -0.001095400120
       4        0.001368718106     0.002417200742    -0.002842052804
       5        0.001513606471     0.002931158385     0.001570909137
       6       -0.000003325532     0.000059772690    -0.000004801351
       7       -0.000839486603    -0.001328456812     0.002622978361
       8        0.000106157562    -0.000044988341    -0.000016155938
       9        0.000048046984    -0.000029679792    -0.000200967101

  **** Optimization is complete! (in 4 steps) ****
    Final optimized geometry and variables:
    Molecular point group: c1

    Geometry (in Angstrom), charge = 0, multiplicity = 1:

    H           -2.088745533361    -0.696603419784    -0.577661145922
    O           -2.041799332555    -0.045247182893     0.109487628201
    C           -0.956710960597     0.789539329600    -0.103399744214
    C            0.355517678272     0.040537465083    -0.011742441640
    H           -0.984223472708     1.303900974700    -1.058814140275
    H           -0.964217298504     1.539761447686     0.673733161378
    F            0.297258362653    -1.098794194308    -0.689937984065
    F            1.343875772696     0.763831351601    -0.510855398667
    F            0.671770916785    -0.265143196877     1.232413754771

  Mulliken Charges: (a.u.)
   Center  Symbol    Alpha    Beta     Spin     Total
       1     H     0.27195  0.27195  0.00000  0.45609
       2     O     4.36097  4.36097  0.00000 -0.72193
       3     C     3.05700  3.05700  0.00000 -0.11400
       4     C     2.46161  2.46161  0.00000  1.07677
       5     H     0.40955  0.40955  0.00000  0.18091
       6     H     0.39494  0.39494  0.00000  0.21013
       7     F     4.68599  4.68599  0.00000 -0.37198
       8     F     4.68137  4.68137  0.00000 -0.36274
       9     F     4.67663  4.67663  0.00000 -0.35325

   Total alpha = 25.00000, Total beta = 25.00000, Total charge =  0.00000
