  ==> Input File <==

--------------------------------------------------------------------------
set {
	reference rhf
	basis 6-31G*
}

set_num_threads( 1 )
memory 2 gb

molecule MOL {
0 1

H	 -2.965677	 -0.281496	 -1.549769
O	 -3.452007	 0.283848	 -0.965577
C	 -3.181085	 -0.079926	 0.364119
C	 -1.765924	 0.277073	 0.805136
H	 -3.327791	 -1.152017	 0.410903
H	 -3.905698	 0.375695	 1.036898
C	 -0.677594	 -0.417312	 -0.014550
H	 -1.637766	 1.358238	 0.744969
H	 -1.659588	 0.017670	 1.857098
C	 0.738335	 -0.034840	 0.421385
H	 -0.814977	 -0.178223	 -1.064632
H	 -0.802730	 -1.495410	 0.071702
C	 1.822265	 -0.738362	 -0.399735
H	 0.853533	 1.043532	 0.342250
H	 0.871597	 -0.279636	 1.474438
C	 3.258060	 -0.455774	 0.057203
H	 1.718003	 -0.459167	 -1.447053
H	 1.651028	 -1.811884	 -0.354513
C	 3.709143	 0.994797	 -0.123830
H	 3.930637	 -1.101717	 -0.501982
H	 3.365259	 -0.739518	 1.102287
H	 3.601178	 1.310569	 -1.158127
H	 4.753787	 1.110486	 0.148516
H	 3.135362	 1.678896	 0.492569

	symmetry c1
}
set optking {
	frozen_dihedral = ("
		20 16 13 17,
		17 13 10 7,
		13 10 7 11,
		11 7 4 3,
		7 4 3 2
	")
}

ee = energy('scf')
oeprop('DIPOLE', 'QUADRUPOLE', 'MULLIKEN_CHARGES')
f=open( 'psi4out.xyz', 'w' )
f.write( "24  " )
f.write( str(ee) + "\n" )
f.write( MOL.save_string_xyz() )
f.close()
--------------------------------------------------------------------------

    Molecular point group: c1

    Geometry (in Angstrom), charge = 0, multiplicity = 1:

       Center              X                  Y                   Z               Mass
    ------------   -----------------  -----------------  -----------------  -----------------
           H         -2.969626317722    -0.268399977387    -1.545381576155     1.007825032070
           O         -3.455956317722     0.296944022613    -0.961189576155    15.994914619560
           C         -3.185034317722    -0.066829977387     0.368506423845    12.000000000000
           C         -1.769873317722     0.290169022613     0.809523423845    12.000000000000
           H         -3.331740317722    -1.138920977387     0.415290423845     1.007825032070
           H         -3.909647317722     0.388791022613     1.041285423845     1.007825032070
           C         -0.681543317722    -0.404215977387    -0.010162576155    12.000000000000
           H         -1.641715317722     1.371334022613     0.749356423845     1.007825032070
           H         -1.663537317722     0.030766022613     1.861485423845     1.007825032070
           C          0.734385682278    -0.021743977387     0.425772423845    12.000000000000
           H         -0.818926317722    -0.165126977387    -1.060244576155     1.007825032070
           H         -0.806679317722    -1.482313977387     0.076089423845     1.007825032070
           C          1.818315682278    -0.725265977387    -0.395347576155    12.000000000000
           H          0.849583682278     1.056628022613     0.346637423845     1.007825032070
           H          0.867647682278    -0.266539977387     1.478825423845     1.007825032070
           C          3.254110682278    -0.442677977387     0.061590423845    12.000000000000
           H          1.714053682278    -0.446070977387    -1.442665576155     1.007825032070
           H          1.647078682278    -1.798787977387    -0.350125576155     1.007825032070
           C          3.705193682278     1.007893022613    -0.119442576155    12.000000000000
           H          3.926687682278    -1.088620977387    -0.497594576155     1.007825032070
           H          3.361309682278    -0.726421977387     1.106674423845     1.007825032070
           H          3.597228682278     1.323665022613    -1.153739576155     1.007825032070
           H          4.749837682278     1.123582022613     0.152903423845     1.007825032070
           H          3.131412682278     1.691992022613     0.496956423845     1.007825032070

  Charge       = 0
  Multiplicity = 1
  Basis Set: 6-31G*
  Basis Set:

    Orbital Energies (a.u.)
    -----------------------

    Doubly Occupied:

       1A    -20.550809     2A    -11.267720     3A    -11.220652
       4A    -11.217319     5A    -11.217001     6A    -11.215956
       7A    -11.215787     8A    -11.209269     9A     -1.358720
      10A     -1.092915    11A     -1.050749    12A     -0.987711
      13A     -0.919044    14A     -0.853074    15A     -0.797838
      16A     -0.780650    17A     -0.691795    18A     -0.652579
      19A     -0.628248    20A     -0.612303    21A     -0.603924
      22A     -0.587691    23A     -0.562791    24A     -0.537838
      25A     -0.523207    26A     -0.512779    27A     -0.494324
      28A     -0.480147    29A     -0.475817    30A     -0.462570
      31A     -0.457767    32A     -0.444602    33A     -0.422376

  @DF-RHF Final Energy:  -349.24520408828636

   => Energetics <=

    Nuclear Repulsion Energy =            384.9892459150625541
    One-Electron Energy =               -1236.2569442075914594
    Two-Electron Energy =                 502.0224942042436851
    DFT Exchange-Correlation Energy =       0.0000000000000000
    Empirical Dispersion Energy =           0.0000000000000000
    PCM Polarization Energy =               0.0000000000000000
    EFP Energy =                            0.0000000000000000
    Total Energy =                       -349.2452040882851634

  Mulliken Charges: (a.u.)
   Center  Symbol    Alpha    Beta     Spin     Total
       1     H     0.27849  0.27849  0.00000  0.44301
       2     O     4.37217  4.37217  0.00000 -0.74433
       3     C     2.99745  2.99745  0.00000  0.00510
       4     C     3.16087  3.16087  0.00000 -0.32174
       5     H     0.43232  0.43232  0.00000  0.13536
       6     H     0.41403  0.41403  0.00000  0.17194
       7     C     3.16169  3.16169  0.00000 -0.32338
       8     H     0.41591  0.41591  0.00000  0.16818
       9     H     0.42397  0.42397  0.00000  0.15205
      10     C     3.15261  3.15261  0.00000 -0.30522
      11     H     0.42547  0.42547  0.00000  0.14905
      12     H     0.42437  0.42437  0.00000  0.15127
      13     C     3.15278  3.15278  0.00000 -0.30556
      14     H     0.41905  0.41905  0.00000  0.16190
      15     H     0.42323  0.42323  0.00000  0.15355
      16     C     3.15256  3.15256  0.00000 -0.30511
      17     H     0.42410  0.42410  0.00000  0.15179
      18     H     0.42279  0.42279  0.00000  0.15441
      19     C     3.24134  3.24134  0.00000 -0.48268
      20     H     0.42079  0.42079  0.00000  0.15842
      21     H     0.42326  0.42326  0.00000  0.15347
      22     H     0.42195  0.42195  0.00000  0.15610
      23     H     0.41898  0.41898  0.00000  0.16204
      24     H     0.41981  0.41981  0.00000  0.16037

   Total alpha = 33.00000, Total beta = 33.00000, Total charge = -0.00000
