  ==> Input File <==

--------------------------------------------------------------------------
set {
	reference rhf
	basis 6-31G*
}

set_num_threads( 4 )
memory 2 gb

molecule MOL {
0 1

H	 -3.269016	 -0.876744	 0.468090
C	 -2.809304	 0.000122	 0.025886
N	 -1.391456	 0.000019	 0.300661
H	 -3.037557	 -0.000063	 -1.044252
H	 -3.269223	 0.876956	 0.468000
C	 -0.806820	 1.320835	 0.176429
C	 -0.672818	 -0.959186	 -0.514995
H	 -0.899542	 1.707254	 -0.843174
H	 -1.336991	 2.000555	 0.835566
C	 0.663343	 1.289664	 0.564009
H	 -1.105289	 -1.942314	 -0.360127
H	 -0.756668	 -0.723698	 -1.580369
C	 0.797345	 -0.990357	 -0.127414
H	 1.095814	 2.272792	 0.409143
H	 0.747193	 1.054175	 1.629384
N	 1.381981	 0.330459	 -0.251646
H	 1.327517	 -1.670077	 -0.786551
H	 0.890067	 -1.376775	 0.892188
C	 2.799829	 0.330356	 0.023128
H	 3.205892	 1.322099	 -0.142199
H	 3.304575	 -0.353503	 -0.650219
H	 3.036584	 0.033291	 1.049284

	symmetry c1
}
set optking {
	frozen_dihedral = ("
		6 3 2 4
	")
}

ee = optimize('scf')
oeprop('DIPOLE', 'QUADRUPOLE', 'MULLIKEN_CHARGES')
f=open( 'psi4out.xyz', 'w' )
f.write( "22  " )
f.write( str(ee) + "\n" )
f.write( MOL.save_string_xyz() )
f.close()
--------------------------------------------------------------------------

    Molecular point group: c1
  Charge       = 0
  Multiplicity = 1
  Basis Set: 6-31G*
  Basis Set:
  @DF-RHF Final Energy:  -344.22936532589188
    Total Energy =                       -344.2293653258915356
    Molecular point group: c1
  Basis Set: 6-31G*
  Basis Set:
  Basis Set: 6-31G*
  Basis Set:
  @DF-RHF Final Energy:  -344.22954749652189
    Total Energy =                       -344.2295474965220592
  Basis Set: 6-31G*
  Basis Set:
  Basis Set: 6-31G*
  Basis Set:
  @DF-RHF Final Energy:  -344.22957041602263
    Total Energy =                       -344.2295704160228524
  Basis Set: 6-31G*
  Basis Set:
  Charge       = 0
  Multiplicity = 1
  Basis Set: 6-31G*
  Basis Set:

    Orbital Energies (a.u.)
    -----------------------

    Doubly Occupied:

       1A    -15.541888     2A    -15.540459     3A    -11.238763
       4A    -11.238728     5A    -11.238092     6A    -11.238057
       7A    -11.235924     8A    -11.235856     9A     -1.254665
      10A     -1.203429    11A     -1.024878    12A     -0.991534
      13A     -0.911565    14A     -0.867209    15A     -0.835232
      16A     -0.754063    17A     -0.665214    18A     -0.636659
      19A     -0.630397    20A     -0.626515    21A     -0.620394
      22A     -0.580357    23A     -0.550042    24A     -0.546525
      25A     -0.542705    26A     -0.517646    27A     -0.496431
      28A     -0.490395    29A     -0.465640    30A     -0.455817
      31A     -0.349411    32A     -0.342001

  @DF-RHF Final Energy:  -344.22957147354578

   => Energetics <=

    Nuclear Repulsion Energy =            421.2579214465436053
    One-Electron Energy =               -1301.2420049636714339
    Two-Electron Energy =                 535.7545120435818262
    DFT Exchange-Correlation Energy =       0.0000000000000000
    Empirical Dispersion Energy =           0.0000000000000000
    PCM Polarization Energy =               0.0000000000000000
    EFP Energy =                            0.0000000000000000
    Total Energy =                       -344.2295714735460024
    Molecular point group: c1
  Basis Set: 6-31G*
  Basis Set:

  -Total Gradient:
     Atom            X                  Y                   Z
    ------   -----------------  -----------------  -----------------
       1       -0.000004756484    -0.000020450685     0.000004933058
       2       -0.000342275667     0.004854596865     0.001056172650
       3        0.000659359233    -0.001653628826    -0.003666934910
       4        0.000067803845    -0.003611462185    -0.000031485793
       5        0.000044258759    -0.000010072045     0.000014752395
       6       -0.000451928196     0.000474036402     0.002659596279
       7        0.000018888774    -0.000023897731    -0.000059437839
       8        0.000012890919    -0.000025799471     0.000035226121
       9       -0.000010293114    -0.000012609351    -0.000000760789
      10        0.000011794554     0.000010735190    -0.000037221331
      11        0.000005954323     0.000010421832     0.000006108232
      12       -0.000005541278    -0.000000116656     0.000013574198
      13       -0.000004166201     0.000004557295     0.000013586668
      14        0.000037447225     0.000014673346     0.000005272301
      15       -0.000025608493     0.000003127249    -0.000015738657
      16       -0.000012506007     0.000001728551     0.000006880303
      17        0.000016596199    -0.000003349847    -0.000001853149
      18        0.000003405178    -0.000000591602    -0.000000093671
      19       -0.000009053319    -0.000007112828    -0.000001552166
      20       -0.000008722883    -0.000001786954    -0.000001045960
      21       -0.000000692264    -0.000003151056    -0.000001173883
      22       -0.000002855103     0.000000152507     0.000001195942

  **** Optimization is complete! (in 4 steps) ****
    Final optimized geometry and variables:
    Molecular point group: c1

    Geometry (in Angstrom), charge = 0, multiplicity = 1:

    H           -3.239622690485    -1.076063965750     0.427228268399
    C           -2.808939250870    -0.171879448920     0.007598962588
    N           -1.385865827206    -0.151600005353     0.256099411493
    H           -3.057304220549    -0.162279334118    -1.057430463818
    H           -3.284488806574     0.675742777754     0.485308838671
    C           -0.797496455394     1.167882667158     0.145318651902
    C           -0.668813015578    -1.124656401647    -0.540000459570
    H           -0.880795487280     1.568012671315    -0.869988306305
    H           -1.326468785140     1.842330716001     0.810081231438
    C            0.670579725665     1.124331985415     0.540291500454
    H           -1.108572500439    -2.103106488453    -0.373950781117
    H           -0.747339956792    -0.903988248723    -1.609042388070
    C            0.799215635646    -1.158313587272    -0.145123589416
    H            1.111802942535     2.104336351008     0.390145074155
    H            0.746553777994     0.885573833629     1.605574887927
    N            1.387135998036     0.160950934352    -0.272768927728
    H            1.331176639863    -1.842156460468    -0.798556131234
    H            0.886781948719    -1.539866757641     0.876763774476
    C            2.804557202911     0.157660703799     0.004032830150
    H            3.213962127791     1.147615079309    -0.163804958762
    H            3.308219660018    -0.529826534733    -0.666416236067
    H            3.039117547185    -0.137023186085     1.031413574714

  Mulliken Charges: (a.u.)
   Center  Symbol    Alpha    Beta     Spin     Total
       1     H     0.41656  0.41656  0.00000  0.16688
       2     C     3.13901  3.13901  0.00000 -0.27801
       3     N     3.78989  3.78989  0.00000 -0.57979
       4     H     0.43265  0.43265  0.00000  0.13469
       5     H     0.41779  0.41779  0.00000  0.16441
       6     C     3.05418  3.05418  0.00000 -0.10836
       7     C     3.05476  3.05476  0.00000 -0.10953
       8     H     0.42910  0.42910  0.00000  0.14180
       9     H     0.41820  0.41820  0.00000  0.16359
      10     C     3.05693  3.05693  0.00000 -0.11386
      11     H     0.41809  0.41809  0.00000  0.16382
      12     H     0.42853  0.42853  0.00000  0.14295
      13     C     3.05648  3.05648  0.00000 -0.11296
      14     H     0.41805  0.41805  0.00000  0.16389
      15     H     0.42870  0.42870  0.00000  0.14260
      16     N     3.78714  3.78714  0.00000 -0.57429
      17     H     0.41801  0.41801  0.00000  0.16397
      18     H     0.42867  0.42867  0.00000  0.14266
      19     C     3.14022  3.14022  0.00000 -0.28044
      20     H     0.41676  0.41676  0.00000  0.16647
      21     H     0.41678  0.41678  0.00000  0.16645
      22     H     0.43348  0.43348  0.00000  0.13303

   Total alpha = 32.00000, Total beta = 32.00000, Total charge = -0.00000
