  ==> Input File <==

--------------------------------------------------------------------------
set {
	reference rhf
	basis cc-pvtz
}

set_num_threads( 4 )
memory 2 gb

molecule MOL {
0 1

H	 2.166533	 -2.452830	 1.015816
C	 1.723571	 -1.774850	 0.294073
C	 0.655275	 -0.919924	 0.962167
H	 1.288741	 -2.360590	 -0.506397
H	 2.523047	 -1.177879	 -0.126874
N	 0.000297	 0.000045	 0.046090
H	 -0.093469	 -1.582045	 1.374590
H	 1.086361	 -0.384189	 1.812510
C	 -1.359159	 0.315706	 0.454404
C	 0.794591	 1.191700	 -0.206060
C	 -2.416729	 -0.286720	 -0.460525
H	 -1.478729	 1.390261	 0.442008
H	 -1.539692	 0.003361	 1.486761
C	 0.528208	 1.813974	 -1.569971
H	 1.840463	 0.921345	 -0.160018
H	 0.640325	 1.937455	 0.578774
H	 -2.285276	 0.073129	 -1.473515
H	 -2.371743	 -1.368476	 -0.483209
H	 -3.408658	 -0.007405	 -0.121593
H	 0.745602	 1.101522	 -2.356139
H	 -0.501411	 2.130096	 -1.682789
H	 1.156132	 2.686984	 -1.712719

	symmetry c1
}
set optking {
	frozen_dihedral = ("
		3 6 9 11
	")
}

ee = optimize('scf')
oeprop('DIPOLE', 'QUADRUPOLE', 'MULLIKEN_CHARGES')
f=open( 'psi4out.xyz', 'w' )
f.write( "22  " )
f.write( str(ee) + "\n" )
f.write( MOL.save_string_xyz() )
f.close()
--------------------------------------------------------------------------

    Molecular point group: c1
  Charge       = 0
  Multiplicity = 1
  Basis Set: CC-PVTZ
  Basis Set:
  @DF-RHF Final Energy:  -290.47360182173497
    Total Energy =                       -290.4736018217348033
    Molecular point group: c1
  Basis Set: CC-PVTZ
  Basis Set:
  Basis Set: CC-PVTZ
  Basis Set:
  @DF-RHF Final Energy:  -290.47412881020449
    Total Energy =                       -290.4741288102044905
  Basis Set: CC-PVTZ
  Basis Set:
  Basis Set: CC-PVTZ
  Basis Set:
  @DF-RHF Final Energy:  -290.47431355381201
    Total Energy =                       -290.4743135538122374
  Basis Set: CC-PVTZ
  Basis Set:
  Basis Set: CC-PVTZ
  Basis Set:
  @DF-RHF Final Energy:  -290.47436243316832
    Total Energy =                       -290.4743624331680394
  Basis Set: CC-PVTZ
  Basis Set:
  Basis Set: CC-PVTZ
  Basis Set:
  @DF-RHF Final Energy:  -290.47436881452586
    Total Energy =                       -290.4743688145260307
  Basis Set: CC-PVTZ
  Basis Set:
  Charge       = 0
  Multiplicity = 1
  Basis Set: CC-PVTZ
  Basis Set:

    Orbital Energies (a.u.)
    -----------------------

    Doubly Occupied:

       1A    -15.531948     2A    -11.239949     3A    -11.238405
       4A    -11.237999     5A    -11.204244     6A    -11.204027
       7A    -11.201341     8A     -1.224176     9A     -1.026390
      10A     -1.022123    11A     -0.957050    12A     -0.851882
      13A     -0.839688    14A     -0.774147    15A     -0.655385
      16A     -0.639901    17A     -0.617503    18A     -0.597314
      19A     -0.580869    20A     -0.554919    21A     -0.535961
      22A     -0.523177    23A     -0.516429    24A     -0.499177
      25A     -0.492705    26A     -0.482834    27A     -0.464854
      28A     -0.460245    29A     -0.341402

  @DF-RHF Final Energy:  -290.47436978864744

   => Energetics <=

    Nuclear Repulsion Energy =            337.9278787149883101
    One-Electron Energy =               -1061.7724094365369183
    Two-Electron Energy =                 433.3701609329013991
    DFT Exchange-Correlation Energy =       0.0000000000000000
    Empirical Dispersion Energy =           0.0000000000000000
    PCM Polarization Energy =               0.0000000000000000
    EFP Energy =                            0.0000000000000000
    Total Energy =                       -290.4743697886472091
    Molecular point group: c1
  Basis Set: CC-PVTZ
  Basis Set:

  -Total Gradient:
     Atom            X                  Y                   Z
    ------   -----------------  -----------------  -----------------
       1        0.000017508566    -0.000007130779    -0.000004627519
       2        0.000005718513    -0.000024142775     0.000002532013
       3        0.000569427195     0.001272281122     0.000860893688
       4       -0.000008332286     0.000001577158     0.000002949928
       5        0.000006683602     0.000013706853    -0.000001334898
       6       -0.000799092036    -0.001260834051    -0.001554714753
       7        0.000016087385     0.000034671868    -0.000004277515
       8       -0.000003548198    -0.000012640862     0.000001733673
       9        0.000124968526    -0.001220955904     0.001504004880
      10       -0.000030388376    -0.000035388452     0.000010625696
      11        0.000070195403     0.001286549788    -0.000887394664
      12        0.000003567551    -0.000042561351     0.000007213665
      13       -0.000013615918    -0.000028269311     0.000058457129
      14       -0.000023645138    -0.000021622264     0.000024391934
      15        0.000015930484     0.000010654762    -0.000014113967
      16       -0.000000888748     0.000010688909     0.000005133497
      17       -0.000000009368     0.000003313407     0.000005416113
      18        0.000003221870     0.000020186546     0.000013556792
      19        0.000006096098    -0.000019156250    -0.000013641747
      20        0.000005133341     0.000002245043     0.000007329909
      21        0.000026500892     0.000000082988    -0.000011916631
      22        0.000008480642     0.000016743552    -0.000012217223

  **** Optimization is complete! (in 6 steps) ****
    Final optimized geometry and variables:
    Molecular point group: c1

    Geometry (in Angstrom), charge = 0, multiplicity = 1:

    H            2.142530397051    -2.529016205846     1.153825766285
    C            1.771317686437    -1.810337510128     0.431090331992
    C            0.652463963835    -0.983703556183     1.051755584883
    H            1.403261956720    -2.350513740904    -0.432576977640
    H            2.612242706668    -1.206092197281     0.115943140752
    N            0.019003817709    -0.062703587995     0.123190169842
    H           -0.107506433953    -1.671589742422     1.400150664050
    H            1.026939424346    -0.463164804932     1.938692171446
    C           -1.344165131807     0.287905176256     0.514599599814
    C            0.842411832542     1.094233428235    -0.179735186090
    C           -2.393055756961    -0.310969408707    -0.413106603520
    H           -1.457731408517     1.366390557474     0.523577907096
    H           -1.536674341144    -0.033720996872     1.534085894293
    C            0.457416075517     1.780898983183    -1.482840147172
    H            1.869713316645     0.770039962837    -0.264662130210
    H            0.816986584351     1.820680885543     0.638228367376
    H           -2.251875009191     0.038894000790    -1.428035836967
    H           -2.324236596413    -1.392786303023    -0.424567315170
    H           -3.393600171310    -0.038962164185    -0.091440026787
    H            0.531319995781     1.086693734842    -2.311019262164
    H           -0.554518062511     2.166359036492    -1.458144655266
    H            1.121169721461     2.617094702749    -1.674157425628

  Mulliken Charges: (a.u.)
   Center  Symbol    Alpha    Beta     Spin     Total
       1     H     0.45215  0.45215  0.00000  0.09570
       2     C     3.14424  3.14424  0.00000 -0.28847
       3     C     3.03945  3.03945  0.00000 -0.07890
       4     H     0.45119  0.45119  0.00000  0.09762
       5     H     0.45593  0.45593  0.00000  0.08814
       6     N     3.61916  3.61916  0.00000 -0.23831
       7     H     0.45293  0.45293  0.00000  0.09414
       8     H     0.46591  0.46591  0.00000  0.06818
       9     C     3.05625  3.05625  0.00000 -0.11250
      10     C     3.04331  3.04331  0.00000 -0.08662
      11     C     3.12862  3.12862  0.00000 -0.25724
      12     H     0.45307  0.45307  0.00000  0.09387
      13     H     0.45358  0.45358  0.00000  0.09283
      14     C     3.14798  3.14798  0.00000 -0.29597
      15     H     0.45077  0.45077  0.00000  0.09846
      16     H     0.46535  0.46535  0.00000  0.06930
      17     H     0.45286  0.45286  0.00000  0.09427
      18     H     0.45536  0.45536  0.00000  0.08929
      19     H     0.45729  0.45729  0.00000  0.08542
      20     H     0.45058  0.45058  0.00000  0.09883
      21     H     0.45450  0.45450  0.00000  0.09100
      22     H     0.44951  0.44951  0.00000  0.10097

   Total alpha = 29.00000, Total beta = 29.00000, Total charge = -0.00000
