                              Psi4 1.0.54 Driver

  ==> Input File <==

--------------------------------------------------------------------------
set {
	reference rhf
	basis cc-pvtz
}

set_num_threads( 4 )
memory 2 gb

molecule MOL {
0 1

H	 -0.366580	 2.045936	 -0.305741
C	 0.351829	 1.335402	 0.083179
N	 -0.000018	 0.000080	 -0.334836
H	 1.327156	 1.599860	 -0.305475
H	 0.380566	 1.445403	 1.171445
C	 -1.424572	 -0.224141	 -0.282392
C	 0.549983	 -0.323105	 -1.629166
H	 -1.646283	 -1.253471	 -0.534219
H	 -1.791432	 -0.038887	 0.719247
H	 -1.980793	 0.419504	 -0.970439
H	 1.626638	 -0.210377	 -1.612162
H	 0.325964	 -1.352268	 -1.879690
H	 0.156464	 0.312619	 -2.427983

	symmetry c1
}
set optking {
	frozen_dihedral = ("
		6 3 2 1
	")
}

ee,wfn = optimize('scf', return_wfn=True)
oeprop( wfn, 'DIPOLE', 'QUADRUPOLE', 'MULLIKEN_CHARGES')
f=open( 'psi4out.xyz', 'w' )
f.write( "13  " )
f.write( str(ee) + "\n" )
f.write( MOL.save_string_xyz() )
f.close()
--------------------------------------------------------------------------

    Molecular point group: c1
  Charge       = 0
  Multiplicity = 1
  Basis Set: CC-PVTZ
  Basis Set:
  @DF-RHF Final Energy:  -173.33111390368617
    Total Energy =                       -173.3311139036860595
    Molecular point group: c1
  Basis Set: CC-PVTZ
  Basis Set:
  Basis Set: CC-PVTZ
  Basis Set:
  @DF-RHF Final Energy:  -173.33189663767735
    Total Energy =                       -173.3318966376773460
  Basis Set: CC-PVTZ
  Basis Set:
  Basis Set: CC-PVTZ
  Basis Set:
  @DF-RHF Final Energy:  -173.33197393618886
    Total Energy =                       -173.3319739361888310
  Basis Set: CC-PVTZ
  Basis Set:
  Charge       = 0
  Multiplicity = 1
  Basis Set: CC-PVTZ
  Basis Set:

    Orbital Energies (a.u.)
    -----------------------

    Doubly Occupied:

       1A    -15.539611     2A    -11.234201     3A    -11.234126
       4A    -11.234078     5A     -1.225996     6A     -0.952230
       7A     -0.951172     8A     -0.807701     9A     -0.642391
      10A     -0.631589    11A     -0.629471    12A     -0.548151
      13A     -0.542440    14A     -0.516871    15A     -0.501577
      16A     -0.499981    17A     -0.349863

  @DF-RHF Final Energy:  -173.33197613851277

   => Energetics <=

    Nuclear Repulsion Energy =            139.4052260378291237
    One-Electron Energy =                -509.3915117288005376
    Two-Electron Energy =                 196.6543095524586420
    DFT Exchange-Correlation Energy =       0.0000000000000000
    Empirical Dispersion Energy =           0.0000000000000000
    PCM Polarization Energy =               0.0000000000000000
    EFP Energy =                            0.0000000000000000
    Total Energy =                       -173.3319761385127435
    Molecular point group: c1
  Basis Set: CC-PVTZ
  Basis Set:

  -Total Gradient:
     Atom            X                  Y                   Z
    ------   -----------------  -----------------  -----------------
       1       -0.002699327233    -0.000453498326     0.003968002259
       2        0.003325249446     0.000965077824    -0.006320376918
       3       -0.000357677217    -0.001591371588     0.005646494450
       4        0.000008333763    -0.000007685800    -0.000008482556
       5       -0.000003079294     0.000022469389    -0.000011580658
       6       -0.000142675305     0.001075547305    -0.003403732054
       7       -0.000056097755    -0.000021555807     0.000172426770
       8       -0.000058879360    -0.000023250598    -0.000004900727
       9       -0.000012514728     0.000013411696     0.000002750932
      10        0.000000626444     0.000018545002    -0.000003390906
      11        0.000006191954     0.000015503936     0.000000733667
      12       -0.000005082426    -0.000020670987    -0.000027302327
      13       -0.000005068287     0.000007477955    -0.000010641932

  **** Optimization is complete! (in 4 steps) ****
    Final optimized geometry and variables:
    Molecular point group: c1

    Geometry (in Angstrom), charge = 0, multiplicity = 1:

    H           -0.200646129924     1.879197560680     0.264334729527
    C            0.499183411579     1.127419287812     0.636489716809
    N            0.149022769941    -0.215388350079     0.223321826001
    H            1.496884016272     1.379177167917     0.305215955059
    H            0.481611128102     1.196250991479     1.718934385065
    C           -1.277313578421    -0.429834580640     0.281978224376
    C            0.668435657760    -0.536960480520    -1.086591900742
    H           -1.508837167087    -1.463534417896     0.058053770722
    H           -1.643824520967    -0.215622821815     1.278724590703
    H           -1.826364871735     0.202923142178    -0.421354526067
    H            1.747035177228    -0.447208862241    -1.091033715954
    H            0.419106448833    -1.560109943690    -1.338792523010
    H            0.270575082933     0.109083213910    -1.875171155000

  Mulliken Charges: (a.u.)
   Center  Symbol    Alpha    Beta     Spin     Total
       1     H     0.47176  0.47176  0.00000  0.05648
       2     C     3.08904  3.08904  0.00000 -0.17807
       3     N     3.59722  3.59722  0.00000 -0.19443
       4     H     0.45402  0.45402  0.00000  0.09196
       5     H     0.45101  0.45101  0.00000  0.09799
       6     C     3.09068  3.09068  0.00000 -0.18136
       7     C     3.08881  3.08881  0.00000 -0.17762
       8     H     0.45266  0.45266  0.00000  0.09468
       9     H     0.45242  0.45242  0.00000  0.09517
      10     H     0.47300  0.47300  0.00000  0.05400
      11     H     0.45225  0.45225  0.00000  0.09550
      12     H     0.45290  0.45290  0.00000  0.09420
      13     H     0.47424  0.47424  0.00000  0.05151

   Total alpha = 17.00000, Total beta = 17.00000, Total charge =  0.00000

*** Psi4 exiting successfully. Buy a developer a beer!
