  ==> Input File <==

--------------------------------------------------------------------------
set {
	reference rhf
	basis cc-pvtz
}

set_num_threads( 4 )
memory 2 gb

molecule MOL {
0 1

H	 1.128311	 0.207724	 1.465118
C	 1.134565	 0.093781	 0.372499
C	 0.062554	 0.862911	 -0.350953
O	 1.948932	 -0.587720	 -0.146651
C	 0.060069	 2.351751	 0.009553
H	 -0.893836	 0.401693	 -0.140976
H	 0.262424	 0.752676	 -1.414425
C	 -0.343609	 2.625526	 1.455493
H	 -0.620946	 2.865015	 -0.659291
H	 1.044402	 2.770025	 -0.181712
H	 -1.340093	 2.249345	 1.658134
H	 -0.340204	 3.689133	 1.661333
H	 0.333260	 2.151592	 2.157825

	symmetry c1
}
set optking {
	frozen_dihedral = ("
		6 3 2 4
	")
}

ee = optimize('scf')
oeprop('DIPOLE', 'QUADRUPOLE', 'MULLIKEN_CHARGES')
f=open( 'psi4out.xyz', 'w' )
f.write( "13  " )
f.write( str(ee) + "\n" )
f.write( MOL.save_string_xyz() )
f.close()
--------------------------------------------------------------------------

    Molecular point group: c1
  Charge       = 0
  Multiplicity = 1
  Basis Set: CC-PVTZ
  Basis Set:
  @DF-RHF Final Energy:  -231.06814583338223
    Total Energy =                       -231.0681458333821752
    Molecular point group: c1
  Basis Set: CC-PVTZ
  Basis Set:
  Basis Set: CC-PVTZ
  Basis Set:
  @DF-RHF Final Energy:  -231.06835032723677
    Total Energy =                       -231.0683503272366011
  Basis Set: CC-PVTZ
  Basis Set:
  Basis Set: CC-PVTZ
  Basis Set:
  @DF-RHF Final Energy:  -231.06882064191561
    Total Energy =                       -231.0688206419157780
  Basis Set: CC-PVTZ
  Basis Set:
  Basis Set: CC-PVTZ
  Basis Set:
  @DF-RHF Final Energy:  -231.06891671643518
    Total Energy =                       -231.0689167164350977
  Basis Set: CC-PVTZ
  Basis Set:
  Basis Set: CC-PVTZ
  Basis Set:
  @DF-RHF Final Energy:  -231.06893202733266
    Total Energy =                       -231.0689320273326643
  Basis Set: CC-PVTZ
  Basis Set:
  Basis Set: CC-PVTZ
  Basis Set:
  @DF-RHF Final Energy:  -231.06894116872010
    Total Energy =                       -231.0689411687202153
  Basis Set: CC-PVTZ
  Basis Set:
  Charge       = 0
  Multiplicity = 1
  Basis Set: CC-PVTZ
  Basis Set:

    Orbital Energies (a.u.)
    -----------------------

    Doubly Occupied:

       1A    -20.551737     2A    -11.320920     3A    -11.237400
       4A    -11.234655     5A    -11.223894     6A     -1.406317
       7A     -1.087162     8A     -0.975059     9A     -0.853856
      10A     -0.785743    11A     -0.678589    12A     -0.651379
      13A     -0.606395    14A     -0.600581    15A     -0.580449
      16A     -0.531532    17A     -0.507674    18A     -0.496241
      19A     -0.485654    20A     -0.411152

  @DF-RHF Final Energy:  -231.06894127770542

   => Energetics <=

    Nuclear Repulsion Energy =            172.5706659549383915
    One-Electron Energy =                -654.8264385089219104
    Two-Electron Energy =                 251.1868312762781557
    DFT Exchange-Correlation Energy =       0.0000000000000000
    Empirical Dispersion Energy =           0.0000000000000000
    PCM Polarization Energy =               0.0000000000000000
    EFP Energy =                            0.0000000000000000
    Total Energy =                       -231.0689412777053917
    Molecular point group: c1
  Basis Set: CC-PVTZ
  Basis Set:

  -Total Gradient:
     Atom            X                  Y                   Z
    ------   -----------------  -----------------  -----------------
       1        0.000023152361     0.000023085070    -0.000020008288
       2        0.000308326851     0.000217357695    -0.000158328676
       3       -0.000165795585     0.000122042808     0.000390935146
       4       -0.000196898447    -0.000226694901     0.000074705550
       5        0.000020749837    -0.000038482068    -0.000033226995
       6        0.000035629991    -0.000155676578    -0.000267175917
       7        0.000027315571     0.000003523369    -0.000045983528
       8       -0.000030355297     0.000048029058     0.000044571232
       9        0.000001865702    -0.000002415367     0.000012015133
      10        0.000004711195    -0.000016049488    -0.000026014272
      11        0.000002651913     0.000005559236     0.000017538986
      12       -0.000007883516    -0.000001773487     0.000034420691
      13       -0.000023470575     0.000021494656    -0.000023449061

  **** Optimization is complete! (in 7 steps) ****
    Final optimized geometry and variables:
    Molecular point group: c1

    Geometry (in Angstrom), charge = 0, multiplicity = 1:

    H            0.634541560768    -0.899923276691     1.168638362916
    C            0.582816971050    -0.992636202407     0.078207048064
    C           -0.492877168180    -0.192207026290    -0.606544361877
    O            1.343848435309    -1.701062054255    -0.486222579395
    C           -0.498133968658     1.295576938866    -0.230503756711
    H           -1.448968660671    -0.637590063907    -0.338674523522
    H           -0.359640009913    -0.318232166878    -1.672638782743
    C           -0.956995987118     1.594408146256     1.195204904418
    H           -1.155329404654     1.807968919133    -0.923544615382
    H            0.492303845095     1.709981961231    -0.392601103043
    H           -1.954434335709     1.206202517140     1.371800076795
    H           -0.983351565929     2.663301999625     1.369358362908
    H           -0.297886032812     1.162547375852     1.938657986157

  Mulliken Charges: (a.u.)
   Center  Symbol    Alpha    Beta     Spin     Total
       1     H     0.46334  0.46334  0.00000  0.07332
       2     C     2.90321  2.90321  0.00000  0.19359
       3     C     3.08824  3.08824  0.00000 -0.17649
       4     O     4.16539  4.16539  0.00000 -0.33077
       5     C     3.09939  3.09939  0.00000 -0.19878
       6     H     0.45068  0.45068  0.00000  0.09864
       7     H     0.43728  0.43728  0.00000  0.12543
       8     C     3.15017  3.15017  0.00000 -0.30034
       9     H     0.44427  0.44427  0.00000  0.11146
      10     H     0.44706  0.44706  0.00000  0.10588
      11     H     0.45319  0.45319  0.00000  0.09362
      12     H     0.44390  0.44390  0.00000  0.11220
      13     H     0.45387  0.45387  0.00000  0.09225

   Total alpha = 20.00000, Total beta = 20.00000, Total charge = -0.00000
