                              Psi4 1.0.54 Driver

  ==> Input File <==

--------------------------------------------------------------------------
set {
	reference rhf
	basis cc-pvtz
}

set_num_threads( 4 )
memory 2 gb

molecule MOL {
0 1

H	 -2.893658	 -0.888045	 -0.897560
O	 -2.658848	 -0.704215	 -0.000460
C	 -1.605397	 0.107680	 0.001145
C	 -0.310616	 -0.658853	 0.000791
O	 -1.718351	 1.284629	 -0.000627
C	 0.926581	 0.227233	 0.000178
H	 -0.327628	 -1.313681	 -0.864448
H	 -0.327041	 -1.313334	 0.866298
C	 2.220156	 -0.582071	 -0.000088
H	 0.899945	 0.878221	 -0.866390
H	 0.900542	 0.878581	 0.866486
C	 3.466689	 0.296012	 -0.000457
H	 2.239073	 -1.234095	 -0.869382
H	 2.239505	 -1.233985	 0.869270
H	 3.493549	 0.935857	 -0.875887
H	 4.368821	 -0.304526	 -0.001199
H	 3.494559	 0.935166	 0.875458

	symmetry c1
}
set optking {
	frozen_dihedral = ("
		1 2 3 5
	")
}

ee,wfn = optimize('scf', return_wfn=True)
oeprop( wfn, 'DIPOLE', 'QUADRUPOLE', 'MULLIKEN_CHARGES')
f=open( 'psi4out.xyz', 'w' )
f.write( "17  " )
f.write( str(ee) + "\n" )
f.write( MOL.save_string_xyz() )
f.close()
--------------------------------------------------------------------------

    Molecular point group: c1
  Charge       = 0
  Multiplicity = 1
  Basis Set: CC-PVTZ
  Basis Set:
  @DF-RHF Final Energy:  -345.02750281854236
    Total Energy =                       -345.0275028185420751
    Molecular point group: c1
  Basis Set: CC-PVTZ
  Basis Set:
  Basis Set: CC-PVTZ
  Basis Set:
  @DF-RHF Final Energy:  -345.02724396566578
    Total Energy =                       -345.0272439656658889
  Basis Set: CC-PVTZ
  Basis Set:
  Basis Set: CC-PVTZ
  Basis Set:
  @DF-RHF Final Energy:  -345.02810519144282
    Total Energy =                       -345.0281051914429895
  Basis Set: CC-PVTZ
  Basis Set:
  Basis Set: CC-PVTZ
  Basis Set:
  @DF-RHF Final Energy:  -345.02920601551625
    Total Energy =                       -345.0292060155164222
  Basis Set: CC-PVTZ
  Basis Set:
  Basis Set: CC-PVTZ
  Basis Set:
  @DF-RHF Final Energy:  -345.02921714387759
    Total Energy =                       -345.0292171438779860
  Basis Set: CC-PVTZ
  Basis Set:
  Charge       = 0
  Multiplicity = 1
  Basis Set: CC-PVTZ
  Basis Set:

    Orbital Energies (a.u.)
    -----------------------

    Doubly Occupied:

       1A    -20.585752     2A    -20.550858     3A    -11.374292
       4A    -11.241646     5A    -11.222999     6A    -11.222380
       7A    -11.212082     8A     -1.463257     9A     -1.370408
      10A     -1.093706    11A     -1.018730    12A     -0.910119
      13A     -0.824750    14A     -0.796342    15A     -0.711434
      16A     -0.676825    17A     -0.666328    18A     -0.641511
      19A     -0.595053    20A     -0.587089    21A     -0.542312
      22A     -0.527670    23A     -0.522927    24A     -0.501999
      25A     -0.482139    26A     -0.475100    27A     -0.474554
      28A     -0.445712

  @DF-RHF Final Energy:  -345.02921745139673

   => Energetics <=

    Nuclear Repulsion Energy =            303.9485039093629553
    One-Electron Energy =               -1072.4794991586361448
    Two-Electron Energy =                 423.5017777978762297
    DFT Exchange-Correlation Energy =       0.0000000000000000
    Empirical Dispersion Energy =           0.0000000000000000
    PCM Polarization Energy =               0.0000000000000000
    EFP Energy =                            0.0000000000000000
    Total Energy =                       -345.0292174513970167
    Molecular point group: c1
  Basis Set: CC-PVTZ
  Basis Set:

  -Total Gradient:
     Atom            X                  Y                   Z
    ------   -----------------  -----------------  -----------------
       1        0.001316344695    -0.001849748414    -0.000113324213
       2       -0.001562836460     0.002335183139     0.001014839794
       3        0.000141710687    -0.000543253721    -0.002891674334
       4       -0.000006506583     0.000026221236    -0.000001222762
       5        0.000132248449     0.000032468931     0.001988476497
       6        0.000010900904     0.000019331583     0.000002026240
       7       -0.000001904465    -0.000008196859    -0.000003377009
       8       -0.000000609664    -0.000003914311     0.000002536726
       9       -0.000001303846    -0.000017305006     0.000002767048
      10       -0.000002109224    -0.000000827128    -0.000002240064
      11        0.000001987057     0.000001379042     0.000001957805
      12       -0.000015908954     0.000011370417    -0.000000263787
      13       -0.000001993998    -0.000000318866    -0.000003325447
      14       -0.000001613778    -0.000002107935     0.000003124629
      15        0.000002194206     0.000002827203    -0.000003605814
      16       -0.000012577683    -0.000005518741    -0.000000030432
      17        0.000001978663     0.000002409433     0.000003335121

  **** Optimization is complete! (in 6 steps) ****
    Final optimized geometry and variables:
    Molecular point group: c1

    Geometry (in Angstrom), charge = 0, multiplicity = 1:

    H           -3.027864561621    -0.887588776643    -0.831801222076
    O           -2.702929616707    -0.687184541414     0.030292608514
    C           -1.608543702094     0.120071959439    -0.014520407651
    C           -0.310976899904    -0.643584739087    -0.003872366241
    O           -1.708574608749     1.289445969958     0.001453161965
    C            0.931803049873     0.233959036632    -0.000987014442
    H           -0.320302233122    -1.309306064168    -0.863151379495
    H           -0.340148807008    -1.293822968468     0.864851198758
    C            2.221407602982    -0.581554586604     0.016906538249
    H            0.917191139834     0.879259450945    -0.872491283621
    H            0.900484149417     0.891649005958     0.860253970820
    C            3.472257808983     0.290283926296     0.021469963615
    H            2.245463922897    -1.240540078336    -0.847162152445
    H            2.229172846011    -1.226598660261     0.891456364325
    H            3.510927030837     0.922873217673    -0.858811950072
    H            4.371231964928    -0.314783082290     0.034433896307
    H            3.494702994035     0.936308699926     0.892403529106

  Mulliken Charges: (a.u.)
   Center  Symbol    Alpha    Beta     Spin     Total
       1     H     0.38849  0.38849  0.00000  0.22302
       2     O     4.17538  4.17538  0.00000 -0.35076
       3     C     2.79913  2.79913  0.00000  0.40174
       4     C     3.11654  3.11654  0.00000 -0.23308
       5     O     4.16119  4.16119  0.00000 -0.32238
       6     C     3.08355  3.08355  0.00000 -0.16710
       7     H     0.44788  0.44788  0.00000  0.10424
       8     H     0.43628  0.43628  0.00000  0.12745
       9     C     3.08618  3.08618  0.00000 -0.17237
      10     H     0.44720  0.44720  0.00000  0.10561
      11     H     0.44451  0.44451  0.00000  0.11098
      12     C     3.14912  3.14912  0.00000 -0.29825
      13     H     0.45549  0.45549  0.00000  0.08903
      14     H     0.45422  0.45422  0.00000  0.09157
      15     H     0.45386  0.45386  0.00000  0.09228
      16     H     0.44785  0.44785  0.00000  0.10430
      17     H     0.45314  0.45314  0.00000  0.09372

   Total alpha = 28.00000, Total beta = 28.00000, Total charge = -0.00000

*** Psi4 exiting successfully. Buy a developer a beer!
