  ==> Input File <==

--------------------------------------------------------------------------
set {
	reference rhf
	basis 6-31G*
}

set_num_threads( 4 )
memory 2 gb

molecule MOL {
0 1

H	 1.606497	 -1.724154	 0.000322
O	 2.016064	 -0.864478	 0.000222
C	 1.050492	 0.053836	 0.000068
C	 -0.318135	 -0.576402	 0.000164
O	 1.285279	 1.218255	 -0.000078
C	 -1.454360	 0.441875	 -0.000474
H	 -0.374042	 -1.230163	 -0.866135
H	 -0.374274	 -1.229227	 0.867154
C	 -2.826123	 -0.230780	 0.000056
H	 -1.357605	 1.085198	 -0.868380
H	 -1.357504	 1.086451	 0.866496
H	 -2.959731	 -0.858053	 -0.876869
H	 -3.619374	 0.509403	 -0.000080
H	 -2.959371	 -0.857318	 0.877556

	symmetry c1
}
set optking {
	frozen_dihedral = ("
		1 2 3 5
	")
}

ee = optimize('scf')
oeprop('DIPOLE', 'QUADRUPOLE', 'MULLIKEN_CHARGES')
f=open( 'psi4out.xyz', 'w' )
f.write( "14  " )
f.write( str(ee) + "\n" )
f.write( MOL.save_string_xyz() )
f.close()
--------------------------------------------------------------------------

    Molecular point group: c1
  Charge       = 0
  Multiplicity = 1
  Basis Set: 6-31G*
  Basis Set:
  @DF-RHF Final Energy:  -305.86825316655347
    Total Energy =                       -305.8682531665534157
    Molecular point group: c1
  Basis Set: 6-31G*
  Basis Set:
  Basis Set: 6-31G*
  Basis Set:
  @DF-RHF Final Energy:  -305.86966236712618
    Total Energy =                       -305.8696623671263524
  Basis Set: 6-31G*
  Basis Set:
  Basis Set: 6-31G*
  Basis Set:
  @DF-RHF Final Energy:  -305.86986559144350
    Total Energy =                       -305.8698655914437268
  Basis Set: 6-31G*
  Basis Set:
  Charge       = 0
  Multiplicity = 1
  Basis Set: 6-31G*
  Basis Set:

    Orbital Energies (a.u.)
    -----------------------

    Doubly Occupied:

       1A    -20.613390     2A    -20.547458     3A    -11.380952
       4A    -11.253747     5A    -11.231827     6A    -11.222731
       7A     -1.468921     8A     -1.370324     9A     -1.088588
      10A     -0.979054    11A     -0.853373    12A     -0.819480
      13A     -0.720936    14A     -0.672694    15A     -0.658209
      16A     -0.617085    17A     -0.593624    18A     -0.583298
      19A     -0.553886    20A     -0.509238    21A     -0.496533
      22A     -0.489414    23A     -0.475115    24A     -0.440302

  @DF-RHF Final Energy:  -305.86986915521459

   => Energetics <=

    Nuclear Repulsion Energy =            239.9093402183915202
    One-Electron Energy =                -892.2780580717492285
    Two-Electron Energy =                 346.4988486981429787
    DFT Exchange-Correlation Energy =       0.0000000000000000
    Empirical Dispersion Energy =           0.0000000000000000
    PCM Polarization Energy =               0.0000000000000000
    EFP Energy =                            0.0000000000000000
    Total Energy =                       -305.8698691552147011
    Molecular point group: c1
  Basis Set: 6-31G*
  Basis Set:

  -Total Gradient:
     Atom            X                  Y                   Z
    ------   -----------------  -----------------  -----------------
       1       -0.000036059872     0.000068709242    -0.000000104231
       2        0.000120366064     0.000096637840     0.000008241550
       3       -0.000042936624    -0.000075996026    -0.000026928374
       4        0.000003688409     0.000060396046     0.000008890095
       5        0.000113382821    -0.000085837525     0.000010064570
       6        0.000043105695    -0.000058146787    -0.000002780162
       7       -0.000026621976     0.000001805296     0.000023590012
       8       -0.000029663788    -0.000000959550    -0.000022581076
       9       -0.000099313394     0.000030484303     0.000002121651
      10        0.000007180108    -0.000013357775     0.000023521373
      11        0.000006176837    -0.000012619768    -0.000023756591
      12       -0.000001148774     0.000004171105     0.000013563016
      13       -0.000057230492    -0.000017938873     0.000000667730
      14       -0.000000925014     0.000002652474    -0.000014509564

  **** Optimization is complete! (in 4 steps) ****
    Final optimized geometry and variables:
    Molecular point group: c1

    Geometry (in Angstrom), charge = 0, multiplicity = 1:

    H            1.772973860828    -1.718867850343     0.000627723544
    O            2.077397933805    -0.821292979321     0.000375398455
    C            1.063158141535     0.051363029801    -0.000044270027
    C           -0.318979707926    -0.571019156188     0.000215185099
    O            1.278132026586     1.213062663426    -0.000393477843
    C           -1.446982202343     0.456652738750    -0.000320013521
    H           -0.394199582288    -1.221282106881    -0.870104198176
    H           -0.394236963368    -1.220413153760     0.871182649630
    C           -2.825770338892    -0.201463125638     0.000093510726
    H           -1.340226981499     1.097890195779    -0.867855917457
    H           -1.340169873796     1.098841606447     0.866503179628
    H           -2.967348683997    -0.826698272363    -0.877115511963
    H           -3.610205895533     0.547825749205    -0.000114735676
    H           -2.967154002627    -0.826007888953     0.877825616956

  Mulliken Charges: (a.u.)
   Center  Symbol    Alpha    Beta     Spin     Total
       1     H     0.26859  0.26859  0.00000  0.46282
       2     O     4.35183  4.35183  0.00000 -0.70366
       3     C     2.60581  2.60581  0.00000  0.78838
       4     C     3.23731  3.23731  0.00000 -0.47461
       5     O     4.26390  4.26390  0.00000 -0.52780
       6     C     3.15009  3.15009  0.00000 -0.30018
       7     H     0.40506  0.40506  0.00000  0.18989
       8     H     0.40505  0.40505  0.00000  0.18991
       9     C     3.24386  3.24386  0.00000 -0.48773
      10     H     0.40685  0.40685  0.00000  0.18630
      11     H     0.40684  0.40684  0.00000  0.18632
      12     H     0.42119  0.42119  0.00000  0.15763
      13     H     0.41245  0.41245  0.00000  0.17511
      14     H     0.42119  0.42119  0.00000  0.15762

   Total alpha = 24.00000, Total beta = 24.00000, Total charge = -0.00000
