                              Psi4 1.0.54 Driver

  ==> Input File <==

--------------------------------------------------------------------------
set {
	reference rhf
	basis cc-pvtz
}

set_num_threads( 4 )
memory 2 gb

molecule MOL {
0 1

H	 3.292904	 -0.434182	 -0.037559
C	 2.235200	 -0.252117	 -0.028647
C	 1.495681	 -0.542549	 1.108056
C	 1.619082	 0.269603	 -1.148345
H	 1.981654	 -0.947808	 1.974306
C	 0.138586	 -0.310490	 1.123661
H	 2.193627	 0.493242	 -2.026046
C	 0.256065	 0.502115	 -1.131155
H	 -0.449931	 -0.528392	 1.992466
C	 -0.486398	 0.214248	 0.000000
H	 -0.229905	 0.907988	 -1.999069
C	 -1.946525	 0.470130	 0.000000
O	 -2.779618	 -0.371226	 0.000000
H	 -2.227127	 1.528393	 0.000000

	symmetry c1
}
set optking {
	frozen_dihedral = ("
		8 10 12 14
	")
}

ee,wfn = optimize('scf', return_wfn=True)
oeprop( wfn, 'DIPOLE', 'QUADRUPOLE', 'MULLIKEN_CHARGES')
f=open( 'psi4out.xyz', 'w' )
f.write( "14  " )
f.write( str(ee) + "\n" )
f.write( MOL.save_string_xyz() )
f.close()
--------------------------------------------------------------------------

    Molecular point group: c1
  Charge       = 0
  Multiplicity = 1
  Basis Set: CC-PVTZ
  Basis Set:
  @DF-RHF Final Energy:  -343.53833220106628
    Total Energy =                       -343.5383322010660549
    Molecular point group: c1
  Basis Set: CC-PVTZ
  Basis Set:
  Basis Set: CC-PVTZ
  Basis Set:
  @DF-RHF Final Energy:  -343.53700450959326
    Total Energy =                       -343.5370045095933165
  Basis Set: CC-PVTZ
  Basis Set:
  Basis Set: CC-PVTZ
  Basis Set:
  @DF-RHF Final Energy:  -343.53862052667739
    Total Energy =                       -343.5386205266772208
  Basis Set: CC-PVTZ
  Basis Set:
  Basis Set: CC-PVTZ
  Basis Set:
  @DF-RHF Final Energy:  -343.53895002262885
    Total Energy =                       -343.5389500226286827
  Basis Set: CC-PVTZ
  Basis Set:
  Basis Set: CC-PVTZ
  Basis Set:
  @DF-RHF Final Energy:  -343.53895564579045
    Total Energy =                       -343.5389556457906792
  Basis Set: CC-PVTZ
  Basis Set:
  Charge       = 0
  Multiplicity = 1
  Basis Set: CC-PVTZ
  Basis Set:

    Orbital Energies (a.u.)
    -----------------------

    Doubly Occupied:

       1A    -20.562377     2A    -11.332023     3A    -11.250238
       4A    -11.246840     5A    -11.244905     6A    -11.243106
       7A    -11.242053     8A    -11.241067     9A     -1.416870
      10A     -1.174759    11A     -1.049058    12A     -1.033469
      13A     -0.890364    14A     -0.845196    15A     -0.797921
      16A     -0.725493    17A     -0.680992    18A     -0.657171
      19A     -0.642905    20A     -0.620742    21A     -0.604237
      22A     -0.542731    23A     -0.531523    24A     -0.516328
      25A     -0.506295    26A     -0.426336    27A     -0.352168
      28A     -0.351399

  @DF-RHF Final Energy:  -343.53895619842649

   => Energetics <=

    Nuclear Repulsion Energy =            323.4575945708555764
    One-Electron Energy =               -1106.5359666275780910
    Two-Electron Energy =                 439.5394158582960813
    DFT Exchange-Correlation Energy =       0.0000000000000000
    Empirical Dispersion Energy =           0.0000000000000000
    PCM Polarization Energy =               0.0000000000000000
    EFP Energy =                            0.0000000000000000
    Total Energy =                       -343.5389561984264333
    Molecular point group: c1
  Basis Set: CC-PVTZ
  Basis Set:

  -Total Gradient:
     Atom            X                  Y                   Z
    ------   -----------------  -----------------  -----------------
       1       -0.000003851358    -0.000014383080     0.000009229122
       2        0.000004592998     0.000050577127    -0.000125434184
       3       -0.000116009874     0.000016846390     0.000079309335
       4        0.000116786409    -0.000032006744     0.000058703111
       5        0.000010856609    -0.000003228759    -0.000003772070
       6        0.000106767780    -0.000086568658     0.000042067008
       7       -0.000009291713     0.000004398495    -0.000005601896
       8       -0.000737780857    -0.004347234429    -0.001413912398
       9        0.000002278325     0.000014049969    -0.000008452437
      10        0.000888693059     0.006439677381     0.003852890702
      11        0.000007147035     0.000010284189     0.000001058182
      12       -0.000298815327    -0.002177730798    -0.008076887714
      13        0.000017197368    -0.000021392389     0.000007541055
      14        0.000011429548     0.000146711305     0.005583262187

  **** Optimization is complete! (in 6 steps) ****
    Final optimized geometry and variables:
    Molecular point group: c1

    Geometry (in Angstrom), charge = 0, multiplicity = 1:

    H            3.292561871699    -0.437028567163    -0.027175875934
    C            2.236729960242    -0.245615733832    -0.021332491287
    C            1.489033050286    -0.528925890074     1.106545454970
    C            1.623111813906     0.278219610544    -1.143304961643
    H            1.962974498454    -0.942353926419     1.975870285663
    C            0.127888418533    -0.294493970357     1.112276163550
    H            2.198784881372     0.487023130569    -2.024318987608
    C            0.265011469752     0.532103278150    -1.132450816323
    H           -0.459116429727    -0.538100085488     1.976704608689
    C           -0.483611869078     0.253586368432    -0.002264171916
    H           -0.208848716417     0.943466561935    -2.004502752004
    C           -1.965305617192     0.465989729243    -0.010235997184
    O           -2.753096167314    -0.410111866827     0.076918814207
    H           -2.300208932643     1.508344367561    -0.036589704956

  Mulliken Charges: (a.u.)
   Center  Symbol    Alpha    Beta     Spin     Total
       1     H     0.42073  0.42073  0.00000  0.15854
       2     C     3.08149  3.08149  0.00000 -0.16297
       3     C     3.06355  3.06355  0.00000 -0.12710
       4     C     3.06595  3.06595  0.00000 -0.13190
       5     H     0.42104  0.42104  0.00000  0.15791
       6     C     3.09386  3.09386  0.00000 -0.18772
       7     H     0.42093  0.42093  0.00000  0.15815
       8     C     3.09542  3.09542  0.00000 -0.19083
       9     H     0.41869  0.41869  0.00000  0.16261
      10     C     2.94776  2.94776  0.00000  0.10449
      11     H     0.42448  0.42448  0.00000  0.15104
      12     C     2.93231  2.93231  0.00000  0.13539
      13     O     4.15726  4.15726  0.00000 -0.31451
      14     H     0.45654  0.45654  0.00000  0.08691

   Total alpha = 28.00000, Total beta = 28.00000, Total charge =  0.00000

*** Psi4 exiting successfully. Buy a developer a beer!
