  ==> Input File <==

--------------------------------------------------------------------------
set {
	reference rhf
	basis 6-31G*
}

set_num_threads( 4 )
memory 2 gb

molecule MOL {
0 1

H	 3.209891	 1.140281	 -0.728547
C	 2.496789	 0.935652	 0.061731
C	 1.322923	 0.120767	 -0.479465
H	 3.019307	 0.402345	 0.849723
H	 2.164769	 1.888150	 0.463109
C	 0.306652	 -0.176050	 0.621399
H	 1.678839	 -0.818112	 -0.890873
H	 0.826579	 0.660010	 -1.277664
N	 -1.068537	 -0.011044	 0.085269
H	 0.372515	 -1.192590	 0.973735
H	 0.391664	 0.520566	 1.441230
O	 -1.656956	 -0.997225	 -0.235017
O	 -1.478635	 1.104830	 -0.018026

	symmetry c1
}
set optking {
	frozen_dihedral = ("
		7 3 6 9
	")
}

ee = optimize('scf')
oeprop('DIPOLE', 'QUADRUPOLE', 'MULLIKEN_CHARGES')
f=open( 'psi4out.xyz', 'w' )
f.write( "13  " )
f.write( str(ee) + "\n" )
f.write( MOL.save_string_xyz() )
f.close()
--------------------------------------------------------------------------

    Molecular point group: c1
  Charge       = 0
  Multiplicity = 1
  Basis Set: 6-31G*
  Basis Set:
  @DF-RHF Final Energy:  -321.73083424923038
    Total Energy =                       -321.7308342492303836
    Molecular point group: c1
  Basis Set: 6-31G*
  Basis Set:
  Basis Set: 6-31G*
  Basis Set:
  @DF-RHF Final Energy:  -321.73036856883266
    Total Energy =                       -321.7303685688327732
  Basis Set: 6-31G*
  Basis Set:
  Basis Set: 6-31G*
  Basis Set:
  @DF-RHF Final Energy:  -321.72319694875068
    Total Energy =                       -321.7231969487507399
  Basis Set: 6-31G*
  Basis Set:
  Basis Set: 6-31G*
  Basis Set:
  @DF-RHF Final Energy:  -321.73068231650814
    Total Energy =                       -321.7306823165081937
  Basis Set: 6-31G*
  Basis Set:
  @DF-RHF Final Energy:  -321.72941880018863
    Total Energy =                       -321.7294188001886255
  @DF-RHF Final Energy:  -321.73116931530660
    Total Energy =                       -321.7311693153066017
  @DF-RHF Final Energy:  -321.73115755900892
    Total Energy =                       -321.7311575590086932
  @DF-RHF Final Energy:  -321.73121994282656
    Total Energy =                       -321.7312199428266695
  @DF-RHF Final Energy:  -321.73123608417740
    Total Energy =                       -321.7312360841773398
  @DF-RHF Final Energy:  -321.73124720291702
    Total Energy =                       -321.7312472029170749
  Basis Set: 6-31G*
  Basis Set:
  @DF-RHF Final Energy:  -321.73124927693948
    Total Energy =                       -321.7312492769392520
  Basis Set: 6-31G*
  Basis Set:
  Basis Set: 6-31G*
  Basis Set:
  @DF-RHF Final Energy:  -321.73125210115302
    Total Energy =                       -321.7312521011529611
  Basis Set: 6-31G*
  Basis Set:
  Basis Set: 6-31G*
  Basis Set:
  @DF-RHF Final Energy:  -321.73125314530324
    Total Energy =                       -321.7312531453031852
  Basis Set: 6-31G*
  Basis Set:
  Charge       = 0
  Multiplicity = 1
  Basis Set: 6-31G*
  Basis Set:

    Orbital Energies (a.u.)
    -----------------------

    Doubly Occupied:

       1A    -20.603492     2A    -20.598306     3A    -15.847560
       4A    -11.299759     5A    -11.255277     6A    -11.236895
       7A     -1.630977     8A     -1.416397     9A     -1.131840
      10A     -1.027371    11A     -0.884227    12A     -0.831369
      13A     -0.760019    14A     -0.734590    15A     -0.723044
      16A     -0.665918    17A     -0.609427    18A     -0.586384
      19A     -0.545813    20A     -0.519750    21A     -0.512473
      22A     -0.483434    23A     -0.473742    24A     -0.448136

  @DF-RHF Final Energy:  -321.73125316252526

   => Energetics <=

    Nuclear Repulsion Energy =            247.5313619536941587
    One-Electron Energy =                -928.8728319515747671
    Two-Electron Energy =                 359.6102168353554589
    DFT Exchange-Correlation Energy =       0.0000000000000000
    Empirical Dispersion Energy =           0.0000000000000000
    PCM Polarization Energy =               0.0000000000000000
    EFP Energy =                            0.0000000000000000
    Total Energy =                       -321.7312531625251495
    Molecular point group: c1
  Basis Set: 6-31G*
  Basis Set:

  -Total Gradient:
     Atom            X                  Y                   Z
    ------   -----------------  -----------------  -----------------
       1        0.000001502671     0.000000058949     0.000000600859
       2       -0.000019234020     0.000031728943    -0.000031336042
       3       -0.003020893038     0.000960646381    -0.002453024609
       4       -0.000001678691     0.000001085182     0.000001094778
       5        0.000001553061     0.000002343908     0.000001639167
       6        0.000550746654    -0.003114737336    -0.000487186623
       7        0.002498103350    -0.000118136991     0.002272247583
       8       -0.000015569335    -0.000062901534    -0.000043716380
       9        0.000000959333     0.002342229467     0.000792269544
      10       -0.000028043767    -0.000032997901    -0.000070306660
      11        0.000024651966    -0.000057452065     0.000031596814
      12        0.000029731412     0.000045043755    -0.000002926719
      13       -0.000021829592     0.000003089242    -0.000010951713

  **** Optimization is complete! (in 14 steps) ****
    Final optimized geometry and variables:
    Molecular point group: c1

    Geometry (in Angstrom), charge = 0, multiplicity = 1:

    H            3.304130893201     0.984837530350    -0.707132712137
    C            2.568950916164     0.783729376719     0.063959097307
    C            1.385733163581     0.005878228286    -0.514594721469
    H            3.063474990295     0.225245731946     0.853495664215
    H            2.245520858038     1.734326155231     0.475321609632
    C            0.359966008778    -0.355453958157     0.571321785784
    H            1.754466989092    -0.907285530958    -0.968052304815
    H            0.905240650388     0.594836940069    -1.283908865587
    N           -1.034874352736    -0.193728797031     0.077651849156
    H            0.441467589423    -1.372436885944     0.914923178565
    H            0.422719924108     0.323545394015     1.409711450747
    O           -1.726118549747    -1.163140223797     0.037880441690
    O           -1.369638731434     0.907277527380    -0.240156602655

  Mulliken Charges: (a.u.)
   Center  Symbol    Alpha    Beta     Spin     Total
       1     H     0.40966  0.40966  0.00000  0.18069
       2     C     3.24837  3.24837  0.00000 -0.49674
       3     C     3.17379  3.17379  0.00000 -0.34759
       4     H     0.41733  0.41733  0.00000  0.16535
       5     H     0.41124  0.41124  0.00000  0.17752
       6     C     3.08796  3.08796  0.00000 -0.17592
       7     H     0.40616  0.40616  0.00000  0.18768
       8     H     0.39026  0.39026  0.00000  0.21947
       9     N     3.22494  3.22494  0.00000  0.55012
      10     H     0.38405  0.38405  0.00000  0.23190
      11     H     0.38746  0.38746  0.00000  0.22509
      12     O     4.22679  4.22679  0.00000 -0.45358
      13     O     4.23199  4.23199  0.00000 -0.46399

   Total alpha = 24.00000, Total beta = 24.00000, Total charge =  0.00000
