                              Psi4 1.0.54 Driver

  ==> Input File <==

--------------------------------------------------------------------------
set {
	reference rhf
	basis cc-pvtz
}

set_num_threads( 4 )
memory 2 gb

molecule MOL {
0 1

H	 -4.230259	 0.539112	 0.036360
O	 -3.515113	 -0.019339	 -0.206321
C	 -2.302264	 0.528872	 0.237390
C	 -1.175688	 -0.398187	 -0.171891
H	 -2.148018	 1.514076	 -0.197759
H	 -2.310727	 0.646384	 1.319032
C	 0.196029	 0.106276	 0.266738
H	 -1.201873	 -0.515469	 -1.250677
H	 -1.365975	 -1.378728	 0.252664
C	 1.330220	 -0.826136	 -0.155230
H	 0.359542	 1.097229	 -0.145561
H	 0.212134	 0.218135	 1.348778
C	 2.719700	 -0.407669	 0.328325
H	 1.339388	 -0.911200	 -1.239363
H	 1.119001	 -1.821953	 0.224128
C	 3.868943	 -1.243586	 -0.230103
H	 2.738490	 -0.471560	 1.411963
H	 2.883868	 0.638833	 0.084775
H	 3.728275	 -2.296586	 -0.007693
H	 3.960157	 -1.142215	 -1.304855
H	 4.813307	 -0.938396	 0.206024

	symmetry c1
}
set optking {
	frozen_dihedral = ("
		16 13 10 14
	")
}

ee,wfn = optimize('scf', return_wfn=True)
oeprop( wfn, 'DIPOLE', 'QUADRUPOLE', 'MULLIKEN_CHARGES')
f=open( 'psi4out.xyz', 'w' )
f.write( "21  " )
f.write( str(ee) + "\n" )
f.write( MOL.save_string_xyz() )
f.close()
--------------------------------------------------------------------------

    Molecular point group: c1
  Charge       = 0
  Multiplicity = 1
  Basis Set: CC-PVTZ
  Basis Set:
  @DF-RHF Final Energy:  -310.33421004331240
    Total Energy =                       -310.3342100433125097
    Molecular point group: c1
  Basis Set: CC-PVTZ
  Basis Set:
  Basis Set: CC-PVTZ
  Basis Set:
  @DF-RHF Final Energy:  -310.33454156469031
    Total Energy =                       -310.3345415646900847
  Basis Set: CC-PVTZ
  Basis Set:
  Basis Set: CC-PVTZ
  Basis Set:
  @DF-RHF Final Energy:  -310.33457061298537
    Total Energy =                       -310.3345706129853738
  Basis Set: CC-PVTZ
  Basis Set:
  Charge       = 0
  Multiplicity = 1
  Basis Set: CC-PVTZ
  Basis Set:

    Orbital Energies (a.u.)
    -----------------------

    Doubly Occupied:

       1A    -20.545428     2A    -11.265033     3A    -11.213697
       4A    -11.212675     5A    -11.210921     6A    -11.209026
       7A    -11.206007     8A     -1.363304     9A     -1.087596
      10A     -1.035981    11A     -0.957880    12A     -0.868108
      13A     -0.802342    14A     -0.790976    15A     -0.695747
      16A     -0.665194    17A     -0.633380    18A     -0.598209
      19A     -0.581249    20A     -0.564308    21A     -0.549680
      22A     -0.521321    23A     -0.508836    24A     -0.484520
      25A     -0.477707    26A     -0.462649    27A     -0.461251
      28A     -0.444667    29A     -0.437427

  @DF-RHF Final Energy:  -310.33457135004795

   => Energetics <=

    Nuclear Repulsion Energy =            309.4198866822291052
    One-Electron Energy =               -1033.7986708218963940
    Two-Electron Energy =                 414.0442127896190527
    DFT Exchange-Correlation Energy =       0.0000000000000000
    Empirical Dispersion Energy =           0.0000000000000000
    PCM Polarization Energy =               0.0000000000000000
    EFP Energy =                            0.0000000000000000
    Total Energy =                       -310.3345713500481793
    Molecular point group: c1
  Basis Set: CC-PVTZ
  Basis Set:

  -Total Gradient:
     Atom            X                  Y                   Z
    ------   -----------------  -----------------  -----------------
       1        0.000022232283     0.000007547733     0.000005195724
       2        0.000032234283    -0.000030287877    -0.000015700975
       3       -0.000002686269     0.000038895185    -0.000000287966
       4       -0.000070601329     0.000010200636    -0.000020716905
       5       -0.000002130128     0.000011281197     0.000000404984
       6        0.000006386062    -0.000011366570    -0.000003250958
       7       -0.000047398370    -0.000006339035     0.000035197842
       8        0.000008000482    -0.000008012923    -0.000006813300
       9        0.000018882821     0.000008055547     0.000018069090
      10       -0.000474455295     0.002115632307    -0.000500541722
      11       -0.000002649674    -0.000003865718     0.000006622092
      12        0.000003868462    -0.000015772714    -0.000002391422
      13       -0.000096020001    -0.001307807228     0.001236865537
      14        0.000438335047    -0.001485802598     0.000152559677
      15       -0.000000810597     0.000002591927     0.000000461604
      16        0.000169618668     0.000680695666    -0.000883517640
      17       -0.000012429606     0.000003892225    -0.000011845746
      18        0.000002021893     0.000009004086     0.000008044088
      19        0.000009072781     0.000007979233    -0.000006314481
      20       -0.000004196048    -0.000002056014     0.000002768039
      21        0.000002724534    -0.000024465063    -0.000014807562

  **** Optimization is complete! (in 4 steps) ****
    Final optimized geometry and variables:
    Molecular point group: c1

    Geometry (in Angstrom), charge = 0, multiplicity = 1:

    H           -4.306516659868     0.897005779932    -0.025721719281
    O           -3.596120874804     0.330157599318    -0.262632460754
    C           -2.382774298947     0.854092510149     0.208017660472
    C           -1.263927679811    -0.085712739790    -0.193066414937
    H           -2.205749447059     1.841691227172    -0.212801874867
    H           -2.407818714047     0.959182742118     1.290659235480
    C            0.107501871527     0.393014114255     0.272746781863
    H           -1.274355266464    -0.191576383116    -1.273230025417
    H           -1.475432511455    -1.067486682040     0.218399009330
    C            1.240274625036    -0.543397322770    -0.136030211736
    H            0.301839775331     1.384125984981    -0.130292039954
    H            0.106210024854     0.499653337714     1.355137054280
    C            2.614230974964    -0.087494191988     0.348095856666
    H            1.256470636963    -0.648184758213    -1.218081566090
    H            1.039610156585    -1.538796453419     0.253562973755
    C            3.756570475899    -0.931142914615    -0.208224057521
    H            2.639211031687    -0.109637371039     1.433990230486
    H            2.768802130331     0.949678963192     0.062169085815
    H            3.646202897470    -1.974397618105     0.069235371756
    H            3.786031327015    -0.880423676885    -1.291403954772
    H            4.715412962223    -0.590317452749     0.165233711304

  Mulliken Charges: (a.u.)
   Center  Symbol    Alpha    Beta     Spin     Total
       1     H     0.39761  0.39761  0.00000  0.20478
       2     O     4.19430  4.19430  0.00000 -0.38860
       3     C     2.96386  2.96386  0.00000  0.07227
       4     C     3.08456  3.08456  0.00000 -0.16912
       5     H     0.47481  0.47481  0.00000  0.05038
       6     H     0.47487  0.47487  0.00000  0.05026
       7     C     3.10045  3.10045  0.00000 -0.20091
       8     H     0.45096  0.45096  0.00000  0.09808
       9     H     0.45095  0.45095  0.00000  0.09811
      10     C     3.08578  3.08578  0.00000 -0.17156
      11     H     0.45539  0.45539  0.00000  0.08922
      12     H     0.45545  0.45545  0.00000  0.08910
      13     C     3.08347  3.08347  0.00000 -0.16695
      14     H     0.45449  0.45449  0.00000  0.09103
      15     H     0.45396  0.45396  0.00000  0.09208
      16     C     3.15029  3.15029  0.00000 -0.30057
      17     H     0.45418  0.45418  0.00000  0.09163
      18     H     0.45598  0.45598  0.00000  0.08804
      19     H     0.45499  0.45499  0.00000  0.09001
      20     H     0.45496  0.45496  0.00000  0.09007
      21     H     0.44867  0.44867  0.00000  0.10266

   Total alpha = 29.00000, Total beta = 29.00000, Total charge =  0.00000

*** Psi4 exiting successfully. Buy a developer a beer!
