  ==> Input File <==

--------------------------------------------------------------------------
set {
	reference rhf
	basis cc-pvtz
}

set_num_threads( 4 )
memory 2 gb

molecule MOL {
0 1

H	 2.419314	 0.217619	 -0.781900
C	 1.886907	 -0.553127	 -0.236324
N	 0.526300	 -0.128137	 0.000000
H	 2.395755	 -0.697759	 0.708237
H	 1.963830	 -1.478427	 -0.811193
C	 -0.247113	 0.037112	 -1.209233
H	 0.070302	 -0.771207	 0.610071
H	 -0.996493	 -0.743733	 -1.271440
H	 0.397975	 -0.057351	 -2.073512
H	 -0.763794	 0.997171	 -1.271673

	symmetry c1
}
set optking {
	frozen_dihedral = ("
		2 3 6 8
	")
}

ee = optimize('scf')
oeprop('DIPOLE', 'QUADRUPOLE', 'MULLIKEN_CHARGES')
f=open( 'psi4out.xyz', 'w' )
f.write( "10  " )
f.write( str(ee) + "\n" )
f.write( MOL.save_string_xyz() )
f.close()
--------------------------------------------------------------------------

    Molecular point group: c1
  Charge       = 0
  Multiplicity = 1
  Basis Set: CC-PVTZ
  Basis Set:
  @DF-RHF Final Energy:  -134.28738524469347
    Total Energy =                       -134.2873852446936098
    Molecular point group: c1
  Basis Set: CC-PVTZ
  Basis Set:
  Basis Set: CC-PVTZ
  Basis Set:
  @DF-RHF Final Energy:  -134.28815650870746
    Total Energy =                       -134.2881565087074591
  Basis Set: CC-PVTZ
  Basis Set:
  Basis Set: CC-PVTZ
  Basis Set:
  @DF-RHF Final Energy:  -134.28823913059975
    Total Energy =                       -134.2882391305997771
  Basis Set: CC-PVTZ
  Basis Set:
  Basis Set: CC-PVTZ
  Basis Set:
  @DF-RHF Final Energy:  -134.28824201241719
    Total Energy =                       -134.2882420124171858
  Basis Set: CC-PVTZ
  Basis Set:
  Charge       = 0
  Multiplicity = 1
  Basis Set: CC-PVTZ
  Basis Set:

    Orbital Energies (a.u.)
    -----------------------

    Doubly Occupied:

       1A    -15.528757     2A    -11.234392     3A    -11.233842
       4A     -1.195724     5A     -0.947998     6A     -0.855278
       7A     -0.660917     8A     -0.608933     9A     -0.588757
      10A     -0.545131    11A     -0.511747    12A     -0.506861
      13A     -0.357390

  @DF-RHF Final Energy:  -134.28824253382419

   => Energetics <=

    Nuclear Repulsion Energy =             84.4633770866662275
    One-Electron Energy =                -347.9517848183842261
    Two-Electron Energy =                 129.2001651978937389
    DFT Exchange-Correlation Energy =       0.0000000000000000
    Empirical Dispersion Energy =           0.0000000000000000
    PCM Polarization Energy =               0.0000000000000000
    EFP Energy =                            0.0000000000000000
    Total Energy =                       -134.2882425338242456
    Molecular point group: c1
  Basis Set: CC-PVTZ
  Basis Set:

  -Total Gradient:
     Atom            X                  Y                   Z
    ------   -----------------  -----------------  -----------------
       1       -0.000008142236    -0.000000173117     0.000000262293
       2        0.000335490600     0.001000727595    -0.000069556136
       3       -0.000661866090    -0.001220079115     0.000331698841
       4        0.000002817315     0.000001142471     0.000000020809
       5       -0.000020978950     0.000013648375     0.000009979015
       6        0.001207283679    -0.000576710083    -0.001007735955
       7        0.000002075866    -0.000008883597    -0.000004876140
       8       -0.000867843206     0.000800689663     0.000705404110
       9        0.000005137727    -0.000005352240     0.000028833096
      10        0.000006025295    -0.000005009952     0.000005970068

  **** Optimization is complete! (in 5 steps) ****
    Final optimized geometry and variables:
    Molecular point group: c1

    Geometry (in Angstrom), charge = 0, multiplicity = 1:

    H            1.713214594360     0.446852920977    -0.278105361641
    C            1.175314836678    -0.317964400924     0.269469013974
    N           -0.189946626583     0.103263790828     0.484113610342
    H            1.670131317978    -0.442849077096     1.224600569990
    H            1.270652545147    -1.253452278495    -0.285541843976
    C           -0.987772909232     0.265541732612    -0.720121881691
    H           -0.643397409770    -0.504128595465     1.127806877465
    H           -1.754769652032    -0.498034682592    -0.815592076036
    H           -0.363942875832     0.211999595727    -1.604458573465
    H           -1.485733158929     1.229016567877    -0.729307172372

  Mulliken Charges: (a.u.)
   Center  Symbol    Alpha    Beta     Spin     Total
       1     H     0.45664  0.45664  0.00000  0.08672
       2     C     3.08198  3.08198  0.00000 -0.16395
       3     N     3.63508  3.63508  0.00000 -0.27016
       4     H     0.45330  0.45330  0.00000  0.09339
       5     H     0.47444  0.47444  0.00000  0.05112
       6     C     3.07804  3.07804  0.00000 -0.15608
       7     H     0.43917  0.43917  0.00000  0.12165
       8     H     0.46319  0.46319  0.00000  0.07361
       9     H     0.46240  0.46240  0.00000  0.07521
      10     H     0.45576  0.45576  0.00000  0.08848

   Total alpha = 13.00000, Total beta = 13.00000, Total charge = -0.00000
