                              Psi4 1.0.54 Driver

  ==> Input File <==

--------------------------------------------------------------------------
set {
	reference rhf
	basis cc-pvtz
}

set_num_threads( 4 )
memory 2 gb

molecule MOL {
0 1

H	 2.778157	 0.818641	 -0.020072
N	 2.326826	 -0.066186	 0.000000
C	 0.934676	 -0.005420	 0.000000
H	 2.712623	 -0.682743	 -0.676787
C	 0.226436	 -0.001077	 -1.195129
C	 0.226436	 -0.001077	 1.195129
H	 0.759091	 -0.011439	 -2.128123
C	 -1.153391	 0.009141	 -1.189028
H	 0.759091	 -0.011439	 2.128123
C	 -1.153391	 0.009141	 1.189028
H	 -1.680905	 0.012964	 -2.124348
C	 -1.857876	 0.014675	 0.000000
H	 -1.680905	 0.012964	 2.124348
H	 -2.930222	 0.022904	 0.000000

	symmetry c1
}
set optking {
	frozen_dihedral = ("
		1 2 3 5
	")
}

ee,wfn = optimize('scf', return_wfn=True)
oeprop( wfn, 'DIPOLE', 'QUADRUPOLE', 'MULLIKEN_CHARGES')
f=open( 'psi4out.xyz', 'w' )
f.write( "14  " )
f.write( str(ee) + "\n" )
f.write( MOL.save_string_xyz() )
f.close()
--------------------------------------------------------------------------

    Molecular point group: c1
  Charge       = 0
  Multiplicity = 1
  Basis Set: CC-PVTZ
  Basis Set:
  @DF-RHF Final Energy:  -285.82647912006087
    Total Energy =                       -285.8264791200607533
    Molecular point group: c1
  Basis Set: CC-PVTZ
  Basis Set:
  Basis Set: CC-PVTZ
  Basis Set:
  @DF-RHF Final Energy:  -285.82823415258974
    Total Energy =                       -285.8282341525895163
  Basis Set: CC-PVTZ
  Basis Set:
  Basis Set: CC-PVTZ
  Basis Set:
  @DF-RHF Final Energy:  -285.82855659105832
    Total Energy =                       -285.8285565910577475
  Basis Set: CC-PVTZ
  Basis Set:
  Basis Set: CC-PVTZ
  Basis Set:
  @DF-RHF Final Energy:  -285.82859402800381
    Total Energy =                       -285.8285940280039767
  Basis Set: CC-PVTZ
  Basis Set:
  Charge       = 0
  Multiplicity = 1
  Basis Set: CC-PVTZ
  Basis Set:

    Orbital Energies (a.u.)
    -----------------------

    Doubly Occupied:

       1A    -15.546168     2A    -11.262210     3A    -11.228680
       4A    -11.227331     5A    -11.223031     6A    -11.221716
       7A    -11.218839     8A     -1.213971     9A     -1.132191
      10A     -1.015872    11A     -0.990209    12A     -0.831597
      13A     -0.811357    14A     -0.706288    15A     -0.669699
      16A     -0.649307    17A     -0.623671    18A     -0.594357
      19A     -0.585547    20A     -0.511628    21A     -0.503753
      22A     -0.494106    23A     -0.425586    24A     -0.336719
      25A     -0.319972

  @DF-RHF Final Energy:  -285.82859619584065

   => Energetics <=

    Nuclear Repulsion Energy =            273.1246555887205432
    One-Electron Energy =                -927.2188945271689136
    Two-Electron Energy =                 368.2656427426078949
    DFT Exchange-Correlation Energy =       0.0000000000000000
    Empirical Dispersion Energy =           0.0000000000000000
    PCM Polarization Energy =               0.0000000000000000
    EFP Energy =                            0.0000000000000000
    Total Energy =                       -285.8285961958404755
    Molecular point group: c1
  Basis Set: CC-PVTZ
  Basis Set:

  -Total Gradient:
     Atom            X                  Y                   Z
    ------   -----------------  -----------------  -----------------
       1        0.000074936469     0.000017686717    -0.002905900403
       2       -0.000055020125     0.001062391299     0.003592009791
       3       -0.000054415652    -0.003392498754    -0.000534520722
       4       -0.000060287219     0.000079606709     0.000074504635
       5       -0.000095931165     0.002289828495    -0.000114902840
       6        0.000219501033    -0.000041549089    -0.000077819541
       7       -0.000000218010     0.000004898919     0.000020885792
       8        0.000135721023    -0.000092393756    -0.000076105998
       9        0.000000108903     0.000006193692     0.000006061459
      10       -0.000138663191    -0.000026296542    -0.000115597085
      11       -0.000025449794     0.000015434631     0.000004527328
      12       -0.000012222018     0.000083408672     0.000152740570
      13        0.000014437309    -0.000001346720    -0.000002476905
      14       -0.000002497563    -0.000005364271    -0.000023406079

  **** Optimization is complete! (in 5 steps) ****
    Final optimized geometry and variables:
    Molecular point group: c1

    Geometry (in Angstrom), charge = 0, multiplicity = 1:

    H            2.734679866866     0.846526185514     0.055629637345
    N            2.349726842421    -0.075077918116     0.044241308968
    C            0.926527968964    -0.038746585080     0.000153418263
    H            2.722087266654    -0.537245915828    -0.757285729259
    C            0.220842748176    -0.020481189404    -1.192724685253
    C            0.225336555481    -0.004698877212     1.193991774015
    H            0.754737258516    -0.035493645670    -2.125040618599
    C           -1.160930351074     0.012776551273    -1.190805623195
    H            0.772370871680    -0.030152612756     2.116364579581
    C           -1.155125182670     0.049402357342     1.194181466799
    H           -1.692904651737     0.017751244931    -2.123302829599
    C           -1.855598627738     0.053742762433     0.002520426613
    H           -1.684246139361     0.076624887153     2.127865038741
    H           -2.928071155682     0.086052960557     0.003946065543

  Mulliken Charges: (a.u.)
   Center  Symbol    Alpha    Beta     Spin     Total
       1     H     0.42229  0.42229  0.00000  0.15542
       2     N     3.69592  3.69592  0.00000 -0.39184
       3     C     2.89650  2.89650  0.00000  0.20700
       4     H     0.42389  0.42389  0.00000  0.15221
       5     C     3.11369  3.11369  0.00000 -0.22739
       6     C     3.10462  3.10462  0.00000 -0.20925
       7     H     0.42901  0.42901  0.00000  0.14197
       8     C     3.07089  3.07089  0.00000 -0.14178
       9     H     0.41945  0.41945  0.00000  0.16111
      10     C     3.06435  3.06435  0.00000 -0.12870
      11     H     0.42368  0.42368  0.00000  0.15263
      12     C     3.08845  3.08845  0.00000 -0.17691
      13     H     0.42333  0.42333  0.00000  0.15335
      14     H     0.42392  0.42392  0.00000  0.15217

   Total alpha = 25.00000, Total beta = 25.00000, Total charge = -0.00000

*** Psi4 exiting successfully. Buy a developer a beer!
