                              Psi4 1.0.54 Driver

  ==> Input File <==

--------------------------------------------------------------------------
set {
	reference rhf
	basis cc-pvtz
}

set_num_threads( 4 )
memory 2 gb

molecule MOL {
0 1

O	 -2.374409	 1.338660	 -0.336961
C	 -2.104891	 0.204655	 -0.107126
C	 -0.881910	 -0.448129	 -0.720509
C	 -2.949910	 -0.638219	 0.818225
C	 -0.700512	 -0.014781	 -2.180696
H	 -1.025158	 -1.520282	 -0.674916
H	 0.005150	 -0.197599	 -0.148473
C	 0.516488	 -0.668013	 -2.832389
H	 -1.602571	 -0.266246	 -2.724096
H	 -0.595090	 1.066225	 -2.231811
C	 0.779947	 -0.226751	 -4.273147
H	 0.399280	 -1.748489	 -2.803907
H	 1.395661	 -0.441670	 -2.235373
C	 -0.290400	 -0.651319	 -5.275633
H	 1.733874	 -0.639165	 -4.586587
H	 0.894050	 0.853746	 -4.302174
H	 -0.429627	 -1.727453	 -5.263739
H	 -0.006669	 -0.366930	 -6.282307
H	 -1.248845	 -0.192092	 -5.066414
H	 -3.440322	 -1.417144	 0.243099
H	 -3.694377	 -0.025850	 1.303346
H	 -2.331085	 -1.129829	 1.560495

	symmetry c1
}
set optking {
	frozen_dihedral = ("
		6 3 2 1
	")
}

ee,wfn = optimize('scf', return_wfn=True)
oeprop( wfn, 'DIPOLE', 'QUADRUPOLE', 'MULLIKEN_CHARGES')
f=open( 'psi4out.xyz', 'w' )
f.write( "22  " )
f.write( str(ee) + "\n" )
f.write( MOL.save_string_xyz() )
f.close()
--------------------------------------------------------------------------

    Molecular point group: c1
  Charge       = 0
  Multiplicity = 1
  Basis Set: CC-PVTZ
  Basis Set:
  @DF-RHF Final Energy:  -348.22297035588349
    Total Energy =                       -348.2229703558833762
    Molecular point group: c1
  Basis Set: CC-PVTZ
  Basis Set:
  Basis Set: CC-PVTZ
  Basis Set:
  @DF-RHF Final Energy:  -348.22374274136769
    Total Energy =                       -348.2237427413675732
  Basis Set: CC-PVTZ
  Basis Set:
  Basis Set: CC-PVTZ
  Basis Set:
  @DF-RHF Final Energy:  -348.22217085344460
    Total Energy =                       -348.2221708534447657
  Basis Set: CC-PVTZ
  Basis Set:
  Basis Set: CC-PVTZ
  Basis Set:
  @DF-RHF Final Energy:  -348.22412059353320
    Total Energy =                       -348.2241205935334847
  Basis Set: CC-PVTZ
  Basis Set:
  Basis Set: CC-PVTZ
  Basis Set:
  @DF-RHF Final Energy:  -348.22418493538316
    Total Energy =                       -348.2241849353829934
  Basis Set: CC-PVTZ
  Basis Set:
  Basis Set: CC-PVTZ
  Basis Set:
  @DF-RHF Final Energy:  -348.22418364236165
    Total Energy =                       -348.2241836423614814
  Basis Set: CC-PVTZ
  Basis Set:
  Basis Set: CC-PVTZ
  Basis Set:
  @DF-RHF Final Energy:  -348.22418525914168
    Total Energy =                       -348.2241852591420184
  Basis Set: CC-PVTZ
  Basis Set:
  Charge       = 0
  Multiplicity = 1
  Basis Set: CC-PVTZ
  Basis Set:

    Orbital Energies (a.u.)
    -----------------------

    Doubly Occupied:

       1A    -20.537533     2A    -11.320645     3A    -11.229595
       4A    -11.227217     5A    -11.217525     6A    -11.216397
       7A    -11.215223     8A    -11.207358     9A     -1.398148
      10A     -1.092696    11A     -1.044096    12A     -1.002295
      13A     -0.936569    14A     -0.855877    15A     -0.782989
      16A     -0.732424    17A     -0.657051    18A     -0.652289
      19A     -0.631170    20A     -0.612159    21A     -0.605058
      22A     -0.582303    23A     -0.559008    24A     -0.550120
      25A     -0.523229    26A     -0.519326    27A     -0.500093
      28A     -0.483958    29A     -0.465671    30A     -0.463419
      31A     -0.460544    32A     -0.399925

  @DF-RHF Final Energy:  -348.22418537756977

   => Energetics <=

    Nuclear Repulsion Energy =            372.7841576822480079
    One-Electron Energy =               -1210.6528715909555558
    Two-Electron Energy =                 489.6445285311375528
    DFT Exchange-Correlation Energy =       0.0000000000000000
    Empirical Dispersion Energy =           0.0000000000000000
    PCM Polarization Energy =               0.0000000000000000
    EFP Energy =                            0.0000000000000000
    Total Energy =                       -348.2241853775700520
    Molecular point group: c1
  Basis Set: CC-PVTZ
  Basis Set:

  -Total Gradient:
     Atom            X                  Y                   Z
    ------   -----------------  -----------------  -----------------
       1        0.001089130815     0.000526206984     0.001041053248
       2       -0.001304746683    -0.000747292169    -0.001164739043
       3       -0.000747121576     0.000214378605    -0.001133315519
       4       -0.000000335893     0.000006330986     0.000000461203
       5        0.000001060117    -0.000016571573     0.000043295729
       6        0.000962181429     0.000003523928     0.001254650045
       7       -0.000002971178    -0.000008431520    -0.000000750066
       8       -0.000009993180     0.000002497670    -0.000018249327
       9        0.000021349873     0.000003485987     0.000013071938
      10       -0.000011059750     0.000026546289    -0.000018497579
      11       -0.000004786478    -0.000001601365     0.000008255798
      12        0.000000055265    -0.000008605435    -0.000008179152
      13       -0.000009477776    -0.000006268671    -0.000010780021
      14        0.000003294690     0.000002274695    -0.000004612912
      15       -0.000006958173     0.000005218679     0.000007468920
      16       -0.000004473645     0.000006371638     0.000005685618
      17       -0.000002255715    -0.000005545051    -0.000000724544
      18        0.000002507115    -0.000006018236     0.000011543630
      19        0.000017406620    -0.000000380541    -0.000012226620
      20        0.000004959967    -0.000006028274    -0.000004214939
      21        0.000004951611     0.000005349137     0.000001868423
      22       -0.000002717451     0.000004558237    -0.000011064834

  **** Optimization is complete! (in 8 steps) ****
    Final optimized geometry and variables:
    Molecular point group: c1

    Geometry (in Angstrom), charge = 0, multiplicity = 1:

    O           -1.241639261220     1.399901745781     1.729338802631
    C           -0.888169199823     0.280323194281     1.908715266967
    C            0.208009352461    -0.353331938096     1.072297489878
    C           -1.475980532507    -0.566914831676     3.011417393721
    C            0.229500189193     0.116138042001    -0.378541787493
    H            0.141827071062    -1.434277186416     1.138234582376
    H            1.142542107683    -0.085622676178     1.562881746182
    C            1.393451512544    -0.482544934127    -1.165424777985
    H           -0.713783342305    -0.146212501354    -0.844943615275
    H            0.288525193942     1.197170291770    -0.395688549920
    C            1.506302132362     0.012349751303    -2.608344768664
    H            1.313409400176    -1.567610921766    -1.165760760862
    H            2.319995051089    -0.247746253006    -0.648240400528
    C            0.357529268425    -0.412036891065    -3.519989743118
    H            2.436995778840    -0.359655956382    -3.025430026844
    H            1.585622780241     1.095948756347    -2.608849979674
    H            0.247804903109    -1.491914909123    -3.531596689466
    H            0.537359766647    -0.088863559216    -4.538828716633
    H           -0.587857149676     0.013900569217    -3.206884917269
    H           -2.023619879100    -1.396578631366     2.576131990296
    H           -2.140216256081     0.025321776490     3.621803586647
    H           -0.686624252514    -0.990104610920     3.623245337828

  Mulliken Charges: (a.u.)
   Center  Symbol    Alpha    Beta     Spin     Total
       1     O     4.17397  4.17397  0.00000 -0.34795
       2     C     2.85977  2.85977  0.00000  0.28046
       3     C     3.10891  3.10891  0.00000 -0.21782
       4     C     3.15305  3.15305  0.00000 -0.30611
       5     C     3.09089  3.09089  0.00000 -0.18178
       6     H     0.44525  0.44525  0.00000  0.10950
       7     H     0.44409  0.44409  0.00000  0.11182
       8     C     3.09621  3.09621  0.00000 -0.19243
       9     H     0.45092  0.45092  0.00000  0.09816
      10     H     0.43863  0.43863  0.00000  0.12275
      11     C     3.09010  3.09010  0.00000 -0.18019
      12     H     0.45507  0.45507  0.00000  0.08986
      13     H     0.44939  0.44939  0.00000  0.10122
      14     C     3.15275  3.15275  0.00000 -0.30550
      15     H     0.44850  0.44850  0.00000  0.10301
      16     H     0.45290  0.45290  0.00000  0.09420
      17     H     0.45583  0.45583  0.00000  0.08833
      18     H     0.44598  0.44598  0.00000  0.10805
      19     H     0.45201  0.45201  0.00000  0.09598
      20     H     0.44945  0.44945  0.00000  0.10111
      21     H     0.43621  0.43621  0.00000  0.12759
      22     H     0.45012  0.45012  0.00000  0.09975

   Total alpha = 32.00000, Total beta = 32.00000, Total charge = -0.00000

*** Psi4 exiting successfully. Buy a developer a beer!
