  ==> Input File <==

--------------------------------------------------------------------------
set {
	reference rhf
	basis 6-31G*
}

set_num_threads( 4 )
memory 2 gb

molecule MOL {
0 1

O	 -2.439739	 -0.935931	 -0.423848
C	 -1.921153	 0.064240	 -0.045697
C	 -2.624470	 1.379923	 0.150949
O	 -0.632575	 0.154573	 0.251549
H	 -2.168117	 2.136577	 -0.476876
H	 -3.669540	 1.273223	 -0.098610
H	 -2.519365	 1.700893	 1.180846
C	 0.160891	 -1.019931	 0.106212
C	 1.589627	 -0.672828	 0.480843
H	 0.089836	 -1.367806	 -0.916050
H	 -0.238459	 -1.792301	 0.749618
C	 2.642636	 -1.315070	 -0.424197
H	 1.745548	 -0.995326	 1.508275
H	 1.702311	 0.408132	 0.471615
C	 4.069360	 -0.966341	 -0.002480
H	 2.515522	 -2.395702	 -0.410972
H	 2.478020	 -0.996684	 -1.448352
H	 4.796709	 -1.432393	 -0.659589
H	 4.274514	 -1.303262	 1.009782
H	 4.235933	 0.106681	 -0.033394

	symmetry c1
}
set optking {
	frozen_dihedral = ("
		12 9 8 10
	")
}

ee = optimize('scf')
oeprop('DIPOLE', 'QUADRUPOLE', 'MULLIKEN_CHARGES')
f=open( 'psi4out.xyz', 'w' )
f.write( "20  " )
f.write( str(ee) + "\n" )
f.write( MOL.save_string_xyz() )
f.close()
--------------------------------------------------------------------------

    Molecular point group: c1
  Charge       = 0
  Multiplicity = 1
  Basis Set: 6-31G*
  Basis Set:
  @DF-RHF Final Energy:  -383.94078394412963
    Total Energy =                       -383.9407839441291799
    Molecular point group: c1
  Basis Set: 6-31G*
  Basis Set:
  Basis Set: 6-31G*
  Basis Set:
  @DF-RHF Final Energy:  -383.94123740239371
    Total Energy =                       -383.9412374023940515
  Basis Set: 6-31G*
  Basis Set:
  Basis Set: 6-31G*
  Basis Set:
  @DF-RHF Final Energy:  -383.94113523540454
    Total Energy =                       -383.9411352354044311
  Basis Set: 6-31G*
  Basis Set:
  Basis Set: 6-31G*
  Basis Set:
  @DF-RHF Final Energy:  -383.94135949226592
    Total Energy =                       -383.9413594922659740
  Basis Set: 6-31G*
  Basis Set:
  Basis Set: 6-31G*
  Basis Set:
  @DF-RHF Final Energy:  -383.94135538966327
    Total Energy =                       -383.9413553896635563
  Basis Set: 6-31G*
  Basis Set:
  Basis Set: 6-31G*
  Basis Set:
  @DF-RHF Final Energy:  -383.94136563586778
    Total Energy =                       -383.9413656358680100
  Basis Set: 6-31G*
  Basis Set:
  Charge       = 0
  Multiplicity = 1
  Basis Set: 6-31G*
  Basis Set:

    Orbital Energies (a.u.)
    -----------------------

    Doubly Occupied:

       1A    -20.601805     2A    -20.543842     3A    -11.374081
       4A    -11.281601     5A    -11.233046     6A    -11.225768
       7A    -11.224051     8A    -11.215373     9A     -1.467865
      10A     -1.362005    11A     -1.086133    12A     -1.029488
      13A     -0.979727    14A     -0.881814    15A     -0.808250
      16A     -0.778976    17A     -0.689854    18A     -0.683507
      19A     -0.668371    20A     -0.636104    21A     -0.596990
      22A     -0.593409    23A     -0.570475    24A     -0.557807
      25A     -0.545072    26A     -0.520397    27A     -0.510356
      28A     -0.483089    29A     -0.481581    30A     -0.474486
      31A     -0.449049    32A     -0.437042

  @DF-RHF Final Energy:  -383.94136575680358

   => Energetics <=

    Nuclear Repulsion Energy =            379.0521469515903732
    One-Electron Energy =               -1274.0041926041049010
    Two-Electron Energy =                 511.0106798957110072
    DFT Exchange-Correlation Energy =       0.0000000000000000
    Empirical Dispersion Energy =           0.0000000000000000
    PCM Polarization Energy =               0.0000000000000000
    EFP Energy =                            0.0000000000000000
    Total Energy =                       -383.9413657568034637
    Molecular point group: c1
  Basis Set: 6-31G*
  Basis Set:

  -Total Gradient:
     Atom            X                  Y                   Z
    ------   -----------------  -----------------  -----------------
       1       -0.000015670234     0.000004295170    -0.000017675386
       2        0.000010199749     0.000009074604     0.000013895963
       3       -0.000006555740    -0.000006758736     0.000004068517
       4       -0.000024148106    -0.000067355664    -0.000019927157
       5       -0.000000951103     0.000005094395    -0.000004666273
       6        0.000001732470    -0.000000758885    -0.000001541324
       7        0.000004015191    -0.000003070145    -0.000003323611
       8       -0.000713808935     0.005772842859    -0.002330098277
       9        0.000264102291    -0.004206480437     0.002873380086
      10        0.000499880635    -0.003831234763     0.001267394718
      11       -0.000002840230     0.000028872901    -0.000020352590
      12       -0.000045821157     0.002299624350    -0.001743781674
      13        0.000024004159     0.000010452454    -0.000008493679
      14        0.000028186100    -0.000024291598     0.000001550888
      15        0.000006867496     0.000010561657    -0.000022976589
      16        0.000006595801    -0.000001090794     0.000020187281
      17       -0.000028833737    -0.000004113273    -0.000002454373
      18        0.000000526889     0.000006462916    -0.000006237028
      19       -0.000008347678    -0.000005206748    -0.000005563531
      20        0.000000866131     0.000003079736     0.000006614041

  **** Optimization is complete! (in 7 steps) ****
    Final optimized geometry and variables:
    Molecular point group: c1

    Geometry (in Angstrom), charge = 0, multiplicity = 1:

    O           -2.534769113974    -0.538321222237    -0.425266841962
    C           -2.024353619509     0.469974340521    -0.057350602929
    C           -2.743675306628     1.775361816377     0.150329700543
    O           -0.733310285595     0.579547385195     0.221918728938
    H           -2.307717087385     2.538484585025    -0.484061165799
    H           -3.790637434952     1.653283986364    -0.083815648405
    H           -2.627810918507     2.097671160044     1.178668227314
    C            0.071859208660    -0.583907045117     0.073125781998
    C            1.505850719204    -0.238452995067     0.473350228559
    H            0.014013807829    -0.938958273539    -0.947590795564
    H           -0.337127333095    -1.368979617458     0.694789241448
    C            2.548681102191    -0.906254323760    -0.426291374049
    H            1.677731624203    -0.505988635415     1.511779833038
    H            1.624721114694     0.838471002929     0.407919829920
    C            3.981903807928    -0.590398920411    -0.002740367583
    H            2.402435024815    -1.984815201907    -0.423271583295
    H            2.391442281539    -0.579462254033    -1.451277836410
    H            4.699349048718    -1.064146227878    -0.665032493770
    H            4.179611177375    -0.942070357259     1.005715588706
    H            4.168806382396     0.479481644425    -0.022016053822

  Mulliken Charges: (a.u.)
   Center  Symbol    Alpha    Beta     Spin     Total
       1     O     4.28338  4.28338  0.00000 -0.56676
       2     C     2.62005  2.62005  0.00000  0.75991
       3     C     3.28155  3.28155  0.00000 -0.56309
       4     O     4.30930  4.30930  0.00000 -0.61861
       5     H     0.40067  0.40067  0.00000  0.19867
       6     H     0.39699  0.39699  0.00000  0.20602
       7     H     0.40054  0.40054  0.00000  0.19892
       8     C     3.00009  3.00009  0.00000 -0.00019
       9     C     3.16814  3.16814  0.00000 -0.33629
      10     H     0.40922  0.40922  0.00000  0.18155
      11     H     0.40945  0.40945  0.00000  0.18110
      12     C     3.16026  3.16026  0.00000 -0.32052
      13     H     0.41558  0.41558  0.00000  0.16883
      14     H     0.40807  0.40807  0.00000  0.18386
      15     C     3.24025  3.24025  0.00000 -0.48050
      16     H     0.42052  0.42052  0.00000  0.15896
      17     H     0.41870  0.41870  0.00000  0.16259
      18     H     0.41700  0.41700  0.00000  0.16600
      19     H     0.42022  0.42022  0.00000  0.15955
      20     H     0.42001  0.42001  0.00000  0.15998

   Total alpha = 32.00000, Total beta = 32.00000, Total charge = -0.00000
