  ==> Input File <==

--------------------------------------------------------------------------
set {
	reference rhf
	basis 6-31G*
}

set_num_threads( 4 )
memory 2 gb

molecule MOL {
0 1

H	 5.268524	 0.192471	 1.070992
C	 4.673736	 -0.214914	 0.259335
C	 3.185378	 -0.203514	 0.605509
H	 4.871837	 0.380453	 -0.627026
H	 5.025590	 -1.224632	 0.065769
C	 2.317601	 -0.778379	 -0.516234
H	 2.874655	 0.814325	 0.817774
H	 3.023650	 -0.778480	 1.515976
C	 2.329333	 -2.305713	 -0.582421
H	 1.294978	 -0.438887	 -0.395276
H	 2.668833	 -0.392245	 -1.470476
C	 1.587922	 -2.988207	 0.557646
H	 1.853302	 -2.637216	 -1.503980
H	 3.347885	 -2.685084	 -0.624933
C	 1.870242	 -4.461259	 0.796655
O	 0.798056	 -2.398562	 1.232061
C	 1.485001	 -5.364028	 -0.384768
H	 1.318939	 -4.749611	 1.683578
H	 2.930986	 -4.580014	 1.009738
C	 1.690973	 -6.847720	 -0.073571
H	 0.441976	 -5.192180	 -0.642029
H	 2.069552	 -5.100540	 -1.262461
C	 1.311011	 -7.756496	 -1.241758
H	 1.102244	 -7.115844	 0.800254
H	 2.731623	 -7.017595	 0.193985
H	 0.266163	 -7.632391	 -1.511233
H	 1.908059	 -7.535529	 -2.121996
H	 1.465909	 -8.801046	 -0.991157

	symmetry c1
}
set optking {
	frozen_dihedral = ("
		10 6 3 2
	")
}

ee = optimize('scf')
oeprop('DIPOLE', 'QUADRUPOLE', 'MULLIKEN_CHARGES')
f=open( 'psi4out.xyz', 'w' )
f.write( "28  " )
f.write( str(ee) + "\n" )
f.write( MOL.save_string_xyz() )
f.close()
--------------------------------------------------------------------------

    Molecular point group: c1
  Charge       = 0
  Multiplicity = 1
  Basis Set: 6-31G*
  Basis Set:
  @DF-RHF Final Energy:  -426.16672333490499
    Total Energy =                       -426.1667233349048729
    Molecular point group: c1
  Basis Set: 6-31G*
  Basis Set:
  Basis Set: 6-31G*
  Basis Set:
  @DF-RHF Final Energy:  -426.16700980496432
    Total Energy =                       -426.1670098049644366
  Basis Set: 6-31G*
  Basis Set:
  Basis Set: 6-31G*
  Basis Set:
  @DF-RHF Final Energy:  -426.16686525695036
    Total Energy =                       -426.1668652569496771
  Basis Set: 6-31G*
  Basis Set:
  Basis Set: 6-31G*
  Basis Set:
  @DF-RHF Final Energy:  -426.16704935333178
    Total Energy =                       -426.1670493533315494
  Basis Set: 6-31G*
  Basis Set:
  Basis Set: 6-31G*
  Basis Set:
  @DF-RHF Final Energy:  -426.16703360417932
    Total Energy =                       -426.1670336041793234
  Basis Set: 6-31G*
  Basis Set:
  Basis Set: 6-31G*
  Basis Set:
  @DF-RHF Final Energy:  -426.16705053434953
    Total Energy =                       -426.1670505343495279
  Basis Set: 6-31G*
  Basis Set:
  Charge       = 0
  Multiplicity = 1
  Basis Set: 6-31G*
  Basis Set:

    Orbital Energies (a.u.)
    -----------------------

    Doubly Occupied:

       1A    -20.547997     2A    -11.321879     3A    -11.232428
       4A    -11.229727     5A    -11.228821     6A    -11.226104
       7A    -11.216621     8A    -11.216336     9A    -11.212777
      10A    -11.209407    11A     -1.393088    12A     -1.095179
      13A     -1.077336    14A     -1.022018    15A     -0.989571
      16A     -0.909842    17A     -0.878666    18A     -0.809159
      19A     -0.796819    20A     -0.720064    21A     -0.665742
      22A     -0.651585    23A     -0.639769    24A     -0.619736
      25A     -0.604102    26A     -0.597385    27A     -0.576959
      28A     -0.563495    29A     -0.541827    30A     -0.538109
      31A     -0.525804    32A     -0.508608    33A     -0.501566
      34A     -0.485018    35A     -0.479939    36A     -0.476001
      37A     -0.468485    38A     -0.460566    39A     -0.457516
      40A     -0.392153

  @DF-RHF Final Energy:  -426.16705123612917

   => Energetics <=

    Nuclear Repulsion Energy =            535.2150335413551829
    One-Electron Energy =               -1638.5877559396342349
    Two-Electron Energy =                 677.2056711621490876
    DFT Exchange-Correlation Energy =       0.0000000000000000
    Empirical Dispersion Energy =           0.0000000000000000
    PCM Polarization Energy =               0.0000000000000000
    EFP Energy =                            0.0000000000000000
    Total Energy =                       -426.1670512361300780
    Molecular point group: c1
  Basis Set: 6-31G*
  Basis Set:

  -Total Gradient:
     Atom            X                  Y                   Z
    ------   -----------------  -----------------  -----------------
       1        0.000005787719    -0.000001923700     0.000005205017
       2       -0.000162537878     0.001304968203    -0.000584178243
       3        0.000313839895    -0.001440731716     0.000528645036
       4       -0.000010127411    -0.000003063020     0.000003109450
       5       -0.000000655429    -0.000000875511    -0.000002698162
       6       -0.000503258811    -0.001441655100     0.001196097593
       7        0.000003677336     0.000022265258     0.000002173752
       8        0.000005345926    -0.000019384141     0.000011134630
       9       -0.000031973137     0.000019579731    -0.000019410662
      10        0.000373967450     0.001554919674    -0.001153217747
      11        0.000005824070     0.000006197621    -0.000009354774
      12        0.000021694055     0.000002756287     0.000026136478
      13       -0.000002329479    -0.000000736030    -0.000001945617
      14        0.000002455466     0.000013450589     0.000005742976
      15       -0.000020011630    -0.000005457147    -0.000016041397
      16       -0.000007860802    -0.000011531425     0.000000093460
      17        0.000010146732    -0.000003137116     0.000005347475
      18        0.000001974974     0.000002683671     0.000000004264
      19        0.000003575689     0.000006169378     0.000006150090
      20       -0.000005733590    -0.000001816746    -0.000000543195
      21       -0.000001169170    -0.000004361293     0.000001410372
      22       -0.000005563059     0.000002382848    -0.000003098233
      23        0.000005307499    -0.000000434502    -0.000001158200
      24       -0.000002032345    -0.000001056080    -0.000001135336
      25       -0.000000947365     0.000000814075     0.000002019653
      26        0.000000079891    -0.000000432281     0.000001658182
      27       -0.000000919462     0.000000438850    -0.000001299582
      28        0.000001442868    -0.000000030379    -0.000000847285

  **** Optimization is complete! (in 7 steps) ****
    Final optimized geometry and variables:
    Molecular point group: c1

    Geometry (in Angstrom), charge = 0, multiplicity = 1:

    H            3.105066768728     3.632401196764     1.030013657221
    C            2.544180463132     3.178242844802     0.218947325446
    C            1.046760086068     3.160516943028     0.532417031807
    H            2.745694121373     3.749714935444    -0.682732744052
    H            2.943403285220     2.178764062728     0.070110136619
    C            0.186178554300     2.546926459745    -0.580890311759
    H            0.719145831266     4.184096627435     0.693051383086
    H            0.865514353696     2.639936116042     1.467445043784
    C            0.214482659778     1.019088834656    -0.642081552644
    H           -0.839865939449     2.874920022865    -0.467080927289
    H            0.525685957076     2.933200344936    -1.539632780044
    C           -0.523632817711     0.336473668841     0.500244080351
    H           -0.258628420224     0.682448080242    -1.563202152281
    H            1.232454606554     0.640623891892    -0.684310060921
    C           -0.249178004848    -1.139744681650     0.730318399459
    O           -1.303894789905     0.927824627688     1.184106346424
    C           -0.656700894238    -2.035329061095    -0.449134122616
    H           -0.791555231237    -1.427055021476     1.623054797039
    H            0.813159099243    -1.267966141095     0.929571052047
    C           -0.460245638722    -3.521763243990    -0.144991060026
    H           -1.701163950424    -1.853395728439    -0.693199394036
    H           -0.080454208299    -1.774332741002    -1.333025169368
    C           -0.861505560144    -4.423354392622    -1.311623392637
    H           -1.041275617518    -3.787546239255     0.734674500042
    H            0.581879071791    -3.701618915477     0.110066548285
    H           -1.908275208202    -4.289345490265    -1.568590367755
    H           -0.272758772788    -4.204634137769    -2.197988168061
    H           -0.712771386170    -5.470041712942    -1.066177394916

  Mulliken Charges: (a.u.)
   Center  Symbol    Alpha    Beta     Spin     Total
       1     H     0.41808  0.41808  0.00000  0.16384
       2     C     3.24092  3.24092  0.00000 -0.48184
       3     C     3.15706  3.15706  0.00000 -0.31411
       4     H     0.42192  0.42192  0.00000  0.15616
       5     H     0.42552  0.42552  0.00000  0.14896
       6     C     3.15237  3.15237  0.00000 -0.30474
       7     H     0.41857  0.41857  0.00000  0.16285
       8     H     0.41323  0.41323  0.00000  0.17353
       9     C     3.21253  3.21253  0.00000 -0.42506
      10     H     0.40455  0.40455  0.00000  0.19090
      11     H     0.42207  0.42207  0.00000  0.15585
      12     C     2.73139  2.73139  0.00000  0.53721
      13     H     0.40296  0.40296  0.00000  0.19407
      14     H     0.41202  0.41202  0.00000  0.17597
      15     C     3.20165  3.20165  0.00000 -0.40331
      16     O     4.26634  4.26634  0.00000 -0.53267
      17     C     3.16372  3.16372  0.00000 -0.32744
      18     H     0.39978  0.39978  0.00000  0.20044
      19     H     0.41325  0.41325  0.00000  0.17349
      20     C     3.15181  3.15181  0.00000 -0.30362
      21     H     0.41374  0.41374  0.00000  0.17253
      22     H     0.41869  0.41869  0.00000  0.16263
      23     C     3.24033  3.24033  0.00000 -0.48067
      24     H     0.41837  0.41837  0.00000  0.16327
      25     H     0.42145  0.42145  0.00000  0.15709
      26     H     0.41960  0.41960  0.00000  0.16080
      27     H     0.42120  0.42120  0.00000  0.15760
      28     H     0.41688  0.41688  0.00000  0.16625

   Total alpha = 40.00000, Total beta = 40.00000, Total charge =  0.00000
