  ==> Input File <==

--------------------------------------------------------------------------
set {
	reference rhf
	basis 6-31G*
}

set_num_threads( 1 )
memory 2 gb

molecule MOL {
0 1

H	 3.960414	 -0.469565	 2.188081
C	 3.377496	 -0.773210	 1.324509
C	 2.068707	 0.011031	 1.240837
H	 3.988874	 -0.611926	 0.441089
H	 3.194357	 -1.840717	 1.408974
C	 1.217350	 -0.386724	 0.039429
H	 2.272697	 1.075643	 1.182718
H	 1.496359	 -0.145491	 2.153696
N	 0.000003	 0.397874	 -0.023260
H	 1.778816	 -0.206072	 -0.873305
H	 1.018156	 -1.463126	 0.071952
C	 -1.217365	 -0.386708	 0.039277
H	 -0.000031	 1.072115	 0.718656
C	 -2.452633	 0.504241	 -0.042481
H	 -1.215291	 -1.074557	 -0.802042
H	 -1.269739	 -1.003477	 0.942735
C	 -3.758029	 -0.289423	 -0.010781
H	 -2.394220	 1.093569	 -0.952170
H	 -2.440793	 1.210787	 0.785871
H	 -3.816659	 -0.981993	 -0.845726
H	 -4.617837	 0.370165	 -0.069296
H	 -3.847478	 -0.867502	 0.904682

	symmetry c1
}
set optking {
	frozen_dihedral = ("
		15 12 14 18
	")
}

ee = energy('scf')
oeprop('DIPOLE', 'QUADRUPOLE', 'MULLIKEN_CHARGES')
f=open( 'psi4out.xyz', 'w' )
f.write( "22  " )
f.write( str(ee) + "\n" )
f.write( MOL.save_string_xyz() )
f.close()
--------------------------------------------------------------------------

    Molecular point group: c1

    Geometry (in Angstrom), charge = 0, multiplicity = 1:

       Center              X                  Y                   Z               Mass
    ------------   -----------------  -----------------  -----------------  -----------------
           H          4.069994494768    -0.329630210065     1.811535390681     1.007825032070
           C          3.487076494768    -0.633275210065     0.947963390681    12.000000000000
           C          2.178287494768     0.150965789935     0.864291390681    12.000000000000
           H          4.098454494768    -0.471991210065     0.064543390681     1.007825032070
           H          3.303937494768    -1.700782210065     1.032428390681     1.007825032070
           C          1.326930494768    -0.246789210065    -0.337116609319    12.000000000000
           H          2.382277494768     1.215577789935     0.806172390681     1.007825032070
           H          1.605939494768    -0.005556210065     1.777150390681     1.007825032070
           N          0.109583494768     0.537808789935    -0.399805609319    14.003074004780
           H          1.888396494768    -0.066137210065    -1.249850609319     1.007825032070
           H          1.127736494768    -1.323191210065    -0.304593609319     1.007825032070
           C         -1.107784505232    -0.246773210065    -0.337268609319    12.000000000000
           H          0.109549494768     1.212049789935     0.342110390681     1.007825032070
           C         -2.343052505232     0.644175789935    -0.419026609319    12.000000000000
           H         -1.105710505232    -0.934622210065    -1.178587609319     1.007825032070
           H         -1.160158505232    -0.863542210065     0.566189390681     1.007825032070
           C         -3.648448505232    -0.149488210065    -0.387326609319    12.000000000000
           H         -2.284639505232     1.233503789935    -1.328715609319     1.007825032070
           H         -2.331212505232     1.350721789935     0.409325390681     1.007825032070
           H         -3.707078505232    -0.842058210065    -1.222271609319     1.007825032070
           H         -4.508256505232     0.510099789935    -0.445841609319     1.007825032070
           H         -3.737897505232    -0.727567210065     0.528136390681     1.007825032070

  Charge       = 0
  Multiplicity = 1
  Basis Set: 6-31G*
  Basis Set:

    Orbital Energies (a.u.)
    -----------------------

    Doubly Occupied:

       1A    -15.529847     2A    -11.237736     3A    -11.236605
       4A    -11.218480     5A    -11.212520     6A    -11.212249
       7A    -11.209171     8A     -1.205237     9A     -1.060197
      10A     -1.026340    11A     -0.928597    12A     -0.867962
      13A     -0.814313    14A     -0.798510    15A     -0.652225
      16A     -0.643608    17A     -0.614079    18A     -0.608569
      19A     -0.575301    20A     -0.556181    21A     -0.545124
      22A     -0.521394    23A     -0.516329    24A     -0.486640
      25A     -0.483430    26A     -0.478734    27A     -0.470320
      28A     -0.451220    29A     -0.352363

  @DF-RHF Final Energy:  -290.37683990998374

   => Energetics <=

    Nuclear Repulsion Energy =            315.1281365596279898
    One-Electron Energy =               -1015.9837222047716523
    Two-Electron Energy =                 410.4787457351610556
    DFT Exchange-Correlation Energy =       0.0000000000000000
    Empirical Dispersion Energy =           0.0000000000000000
    PCM Polarization Energy =               0.0000000000000000
    EFP Energy =                            0.0000000000000000
    Total Energy =                       -290.3768399099826638

  Mulliken Charges: (a.u.)
   Center  Symbol    Alpha    Beta     Spin     Total
       1     H     0.41788  0.41788  0.00000  0.16425
       2     C     3.24286  3.24286  0.00000 -0.48573
       3     C     3.17028  3.17028  0.00000 -0.34055
       4     H     0.41917  0.41917  0.00000  0.16166
       5     H     0.42051  0.42051  0.00000  0.15899
       6     C     3.04001  3.04001  0.00000 -0.08002
       7     H     0.41901  0.41901  0.00000  0.16198
       8     H     0.42316  0.42316  0.00000  0.15369
       9     N     3.85990  3.85990  0.00000 -0.71979
      10     H     0.42026  0.42026  0.00000  0.15947
      11     H     0.42664  0.42664  0.00000  0.14672
      12     C     3.05099  3.05099  0.00000 -0.10197
      13     H     0.33190  0.33190  0.00000  0.33620
      14     C     3.15586  3.15586  0.00000 -0.31172
      15     H     0.42090  0.42090  0.00000  0.15821
      16     H     0.43706  0.43706  0.00000  0.12588
      17     C     3.24312  3.24312  0.00000 -0.48624
      18     H     0.41286  0.41286  0.00000  0.17428
      19     H     0.42700  0.42700  0.00000  0.14600
      20     H     0.42078  0.42078  0.00000  0.15845
      21     H     0.41788  0.41788  0.00000  0.16424
      22     H     0.42200  0.42200  0.00000  0.15601

   Total alpha = 29.00000, Total beta = 29.00000, Total charge = -0.00000
