  ==> Input File <==

--------------------------------------------------------------------------
set {
	reference rhf
	basis 6-31G*
}

set_num_threads( 4 )
memory 2 gb

molecule MOL {
0 1

O	 -2.634604	 0.617311	 -0.139667
C	 -2.112323	 -0.300239	 0.416894
C	 -0.885648	 -0.972937	 -0.173912
C	 -2.620084	 -0.816541	 1.744669
C	 0.379448	 -0.143569	 0.099626
H	 -1.039521	 -1.055856	 -1.244309
H	 -0.767419	 -1.974594	 0.229489
C	 1.631333	 -0.777471	 -0.511575
H	 0.223057	 0.852834	 -0.298001
H	 0.521073	 -0.034753	 1.173800
C	 2.915987	 -0.544314	 0.291766
H	 1.766672	 -0.399098	 -1.523130
H	 1.471257	 -1.849544	 -0.605828
C	 3.373361	 0.914346	 0.347591
H	 3.708709	 -1.142521	 -0.150311
H	 2.780642	 -0.921148	 1.303579
H	 3.506512	 1.320010	 -0.651625
H	 4.322697	 0.999599	 0.867103
H	 2.660624	 1.545032	 0.868198
H	 -3.006678	 -1.824747	 1.620856
H	 -3.406158	 -0.173758	 2.115752
H	 -1.813552	 -0.869914	 2.470246

	symmetry c1
}
set optking {
	frozen_dihedral = ("
		3 5 8 12
	")
}

ee = optimize('scf')
oeprop('DIPOLE', 'QUADRUPOLE', 'MULLIKEN_CHARGES')
f=open( 'psi4out.xyz', 'w' )
f.write( "22  " )
f.write( str(ee) + "\n" )
f.write( MOL.save_string_xyz() )
f.close()
--------------------------------------------------------------------------

    Molecular point group: c1
  Charge       = 0
  Multiplicity = 1
  Basis Set: 6-31G*
  Basis Set:
  @DF-RHF Final Energy:  -348.09554822422797
    Total Energy =                       -348.0955482242277412
    Molecular point group: c1
  Basis Set: 6-31G*
  Basis Set:
  Basis Set: 6-31G*
  Basis Set:
  @DF-RHF Final Energy:  -348.09555941296935
    Total Energy =                       -348.0955594129691235
  Basis Set: 6-31G*
  Basis Set:
  Basis Set: 6-31G*
  Basis Set:
  @DF-RHF Final Energy:  -348.09482725076623
    Total Energy =                       -348.0948272507660022
  Basis Set: 6-31G*
  Basis Set:
  Basis Set: 6-31G*
  Basis Set:
  @DF-RHF Final Energy:  -348.09577584123343
    Total Energy =                       -348.0957758412331486
  Basis Set: 6-31G*
  Basis Set:
  @DF-RHF Final Energy:  -348.09466697346926
    Total Energy =                       -348.0946669734696002
  @DF-RHF Final Energy:  -348.09570666356956
    Total Energy =                       -348.0957066635695583
  @DF-RHF Final Energy:  -348.09513061282070
    Total Energy =                       -348.0951306128209808
  @DF-RHF Final Energy:  -348.09586320026995
    Total Energy =                       -348.0958632002704007
  Basis Set: 6-31G*
  Basis Set:
  @DF-RHF Final Energy:  -348.09586483073980
    Total Energy =                       -348.0958648307397993
  Basis Set: 6-31G*
  Basis Set:
  Basis Set: 6-31G*
  Basis Set:
  @DF-RHF Final Energy:  -348.09588985076317
    Total Energy =                       -348.0958898507627737
  Basis Set: 6-31G*
  Basis Set:
  Basis Set: 6-31G*
  Basis Set:
  @DF-RHF Final Energy:  -348.09589194760434
    Total Energy =                       -348.0958919476042297
  Basis Set: 6-31G*
  Basis Set:
  Charge       = 0
  Multiplicity = 1
  Basis Set: 6-31G*
  Basis Set:

    Orbital Energies (a.u.)
    -----------------------

    Doubly Occupied:

       1A    -20.547336     2A    -11.324404     3A    -11.229726
       4A    -11.229149     5A    -11.228289     6A    -11.222127
       7A    -11.220876     8A    -11.211983     9A     -1.393099
      10A     -1.095037    11A     -1.044570    12A     -0.999221
      13A     -0.936925    14A     -0.858605    15A     -0.785882
      16A     -0.733853    17A     -0.663135    18A     -0.642994
      19A     -0.626556    20A     -0.618483    21A     -0.594295
      22A     -0.589355    23A     -0.560245    24A     -0.539459
      25A     -0.534593    26A     -0.524024    27A     -0.496208
      28A     -0.488584    29A     -0.468784    30A     -0.466397
      31A     -0.457921    32A     -0.396090

  @DF-RHF Final Energy:  -348.09589201602694

   => Energetics <=

    Nuclear Repulsion Energy =            373.1448415909804908
    One-Electron Energy =               -1211.0250550866030608
    Two-Electron Energy =                 489.7843214795953486
    DFT Exchange-Correlation Energy =       0.0000000000000000
    Empirical Dispersion Energy =           0.0000000000000000
    PCM Polarization Energy =               0.0000000000000000
    EFP Energy =                            0.0000000000000000
    Total Energy =                       -348.0958920160272214
    Molecular point group: c1
  Basis Set: 6-31G*
  Basis Set:

  -Total Gradient:
     Atom            X                  Y                   Z
    ------   -----------------  -----------------  -----------------
       1       -0.000011067880    -0.000006077277    -0.000000413995
       2        0.000010538394     0.000003451845    -0.000013065855
       3        0.000438635421    -0.001551351157     0.002439686581
       4        0.000016027239     0.000004316615     0.000011770051
       5       -0.000093510292     0.002835254153    -0.003032991930
       6        0.000003313202     0.000007344635     0.000005068870
       7        0.000000905100    -0.000001304218     0.000003575209
       8       -0.002644261437    -0.004295122391    -0.000884772496
       9        0.000001618701     0.000003082865    -0.000001785011
      10        0.000000722734     0.000001275250    -0.000002397104
      11       -0.000000092484    -0.000000384836     0.000000897465
      12        0.002287876970     0.003003663933     0.001475630434
      13        0.000000108952     0.000000773387     0.000002216547
      14       -0.000000955490    -0.000002261655    -0.000000687349
      15        0.000000636697     0.000002224432     0.000000106661
      16        0.000000891346     0.000000013316     0.000000726384
      17       -0.000000284543    -0.000000320923    -0.000000769465
      18       -0.000000692402    -0.000001295333    -0.000000422110
      19       -0.000000060388    -0.000000771025     0.000000821743
      20       -0.000004381174     0.000000884671    -0.000002912977
      21       -0.000000655029    -0.000000306604    -0.000000386243
      22       -0.000005313637    -0.000003089684     0.000000104589

  **** Optimization is complete! (in 12 steps) ****
    Final optimized geometry and variables:
    Molecular point group: c1

    Geometry (in Angstrom), charge = 0, multiplicity = 1:

    O           -2.611707599999     0.887925147854    -0.404581642566
    C           -2.115516192184    -0.042693337620     0.154017937206
    C           -0.897092345467    -0.739837279769    -0.425955397051
    C           -2.653490592519    -0.557800542880     1.470433304943
    C            0.382312668239     0.066993674913    -0.151323651015
    H           -1.049468111814    -0.831161103288    -1.496436255585
    H           -0.794276721774    -1.738981167584    -0.013132444633
    C            1.630397902321    -0.572485955027    -0.784039848260
    H            0.244725803757     1.079349611929    -0.513146911357
    H            0.521621977460     0.139080077800     0.926160329755
    C            2.923448144925    -0.313303689243    -0.001445677613
    H            1.763203361932    -0.179379686450    -1.789440269785
    H            1.487927028931    -1.645834234160    -0.875848202259
    C            3.317223011036     1.162624517781     0.073913239597
    H            3.730996859467    -0.870185465517    -0.470144718564
    H            2.821275467593    -0.713633608101     1.005316457380
    H            3.440784712203     1.583682776469    -0.920124235627
    H            4.256276865589     1.286817068286     0.604095746788
    H            2.569015847590     1.754313171984     0.591852586821
    H           -3.054557722820    -1.558817891417     1.335039944870
    H           -3.434532993879     0.096176918534     1.832410746400
    H           -1.859628123778    -0.628257034245     2.208470882468

  Mulliken Charges: (a.u.)
   Center  Symbol    Alpha    Beta     Spin     Total
       1     O     4.26240  4.26240  0.00000 -0.52480
       2     C     2.73753  2.73753  0.00000  0.52495
       3     C     3.20099  3.20099  0.00000 -0.40198
       4     C     3.28965  3.28965  0.00000 -0.57929
       5     C     3.16454  3.16454  0.00000 -0.32908
       6     H     0.40108  0.40108  0.00000  0.19783
       7     H     0.41674  0.41674  0.00000  0.16653
       8     C     3.15360  3.15360  0.00000 -0.30720
       9     H     0.40276  0.40276  0.00000  0.19449
      10     H     0.42106  0.42106  0.00000  0.15787
      11     C     3.15437  3.15437  0.00000 -0.30875
      12     H     0.41823  0.41823  0.00000  0.16355
      13     H     0.41990  0.41990  0.00000  0.16021
      14     C     3.24202  3.24202  0.00000 -0.48403
      15     H     0.42002  0.42002  0.00000  0.15997
      16     H     0.42384  0.42384  0.00000  0.15233
      17     H     0.42068  0.42068  0.00000  0.15864
      18     H     0.41822  0.41822  0.00000  0.16355
      19     H     0.41869  0.41869  0.00000  0.16262
      20     H     0.40692  0.40692  0.00000  0.18616
      21     H     0.39706  0.39706  0.00000  0.20588
      22     H     0.40972  0.40972  0.00000  0.18056

   Total alpha = 32.00000, Total beta = 32.00000, Total charge = -0.00000
