  ==> Input File <==

--------------------------------------------------------------------------
set {
	reference rhf
	basis 6-31G*
}

set_num_threads( 4 )
memory 2 gb

molecule MOL {
0 1

O	 -2.042549	 -1.228399	 -0.269030
C	 -1.653912	 -0.146171	 0.050137
C	 -0.332303	 0.024011	 0.778412
C	 -2.438579	 1.106236	 -0.272369
C	 0.335830	 -1.337102	 1.029095
H	 0.336099	 0.665020	 0.210320
H	 -0.539278	 0.506678	 1.727157
C	 1.657404	 -1.213349	 1.788804
H	 0.513675	 -1.840068	 0.080159
H	 -0.352897	 -1.962948	 1.588659
C	 2.319570	 -2.566090	 2.047329
H	 2.339059	 -0.577966	 1.227503
H	 1.479505	 -0.710432	 2.736430
H	 2.541258	 -3.079295	 1.115917
H	 1.674026	 -3.212077	 2.635051
H	 3.252254	 -2.447938	 2.589700
H	 -3.277823	 0.863061	 -0.908988
H	 -1.806773	 1.843019	 -0.759671
H	 -2.802853	 1.554979	 0.648059

	symmetry c1
}
set optking {
	frozen_dihedral = ("
		5 3 2 4
	")
}

ee = optimize('scf')
oeprop('DIPOLE', 'QUADRUPOLE', 'MULLIKEN_CHARGES')
f=open( 'psi4out.xyz', 'w' )
f.write( "19  " )
f.write( str(ee) + "\n" )
f.write( MOL.save_string_xyz() )
f.close()
--------------------------------------------------------------------------

    Molecular point group: c1
  Charge       = 0
  Multiplicity = 1
  Basis Set: 6-31G*
  Basis Set:
  @DF-RHF Final Energy:  -309.06596987605201
    Total Energy =                       -309.0659698760521223
    Molecular point group: c1
  Basis Set: 6-31G*
  Basis Set:
  Basis Set: 6-31G*
  Basis Set:
  @DF-RHF Final Energy:  -309.06607640307959
    Total Energy =                       -309.0660764030798191
  Basis Set: 6-31G*
  Basis Set:
  Basis Set: 6-31G*
  Basis Set:
  @DF-RHF Final Energy:  -309.06682487523085
    Total Energy =                       -309.0668248752306795
  Basis Set: 6-31G*
  Basis Set:
  Basis Set: 6-31G*
  Basis Set:
  @DF-RHF Final Energy:  -309.06708014961708
    Total Energy =                       -309.0670801496171407
  Basis Set: 6-31G*
  Basis Set:
  @DF-RHF Final Energy:  -309.06709952782643
    Total Energy =                       -309.0670995278267128
  @DF-RHF Final Energy:  -309.06711180449082
    Total Energy =                       -309.0671118044907075
  @DF-RHF Final Energy:  -309.06711352332746
    Total Energy =                       -309.0671135233274640
  @DF-RHF Final Energy:  -309.06711773917613
    Total Energy =                       -309.0671177391761830
  Basis Set: 6-31G*
  Basis Set:
  @DF-RHF Final Energy:  -309.06712461569231
    Total Energy =                       -309.0671246156923075
  Basis Set: 6-31G*
  Basis Set:
  Basis Set: 6-31G*
  Basis Set:
  @DF-RHF Final Energy:  -309.06712834483545
    Total Energy =                       -309.0671283448353961
  Basis Set: 6-31G*
  Basis Set:
  Basis Set: 6-31G*
  Basis Set:
  @DF-RHF Final Energy:  -309.06713222413987
    Total Energy =                       -309.0671322241396410
  Basis Set: 6-31G*
  Basis Set:
  Charge       = 0
  Multiplicity = 1
  Basis Set: 6-31G*
  Basis Set:

    Orbital Energies (a.u.)
    -----------------------

    Doubly Occupied:

       1A    -20.550729     2A    -11.326595     3A    -11.232245
       4A    -11.228553     5A    -11.219391     6A    -11.217147
       7A    -11.210012     8A     -1.396045     9A     -1.085728
      10A     -1.029673    11A     -0.983596    12A     -0.886228
      13A     -0.801182    14A     -0.730956    15A     -0.656249
      16A     -0.651443    17A     -0.625840    18A     -0.611334
      19A     -0.580892    20A     -0.570006    21A     -0.554734
      22A     -0.529625    23A     -0.511281    24A     -0.486516
      25A     -0.476617    26A     -0.473155    27A     -0.468515
      28A     -0.400719

  @DF-RHF Final Energy:  -309.06713246993957

   => Energetics <=

    Nuclear Repulsion Energy =            300.8044508828830885
    One-Electron Energy =               -1014.7531547064861570
    Two-Electron Energy =                 404.8815713536633325
    DFT Exchange-Correlation Energy =       0.0000000000000000
    Empirical Dispersion Energy =           0.0000000000000000
    PCM Polarization Energy =               0.0000000000000000
    EFP Energy =                            0.0000000000000000
    Total Energy =                       -309.0671324699397360
    Molecular point group: c1
  Basis Set: 6-31G*
  Basis Set:

  -Total Gradient:
     Atom            X                  Y                   Z
    ------   -----------------  -----------------  -----------------
       1        0.000009840592     0.000004115688    -0.000044820841
       2       -0.000060486094     0.000031161477     0.000003298991
       3       -0.000121475051     0.000006018004     0.000187231770
       4       -0.000085530726    -0.000043221999     0.000053547446
       5        0.000056564662     0.000017773432    -0.000021350624
       6        0.000045039677    -0.000002206731    -0.000010226509
       7        0.000039501635     0.000023271525    -0.000082385476
       8        0.000004834692    -0.000023306311    -0.000031707601
       9       -0.000009985800    -0.000015411738    -0.000041308877
      10        0.000041785632    -0.000006697288    -0.000011142034
      11       -0.000015361792     0.000003183272     0.000050042346
      12       -0.000002187427    -0.000014226849    -0.000009764995
      13        0.000021116983     0.000017631191     0.000002138297
      14        0.000000726963     0.000017339042    -0.000001022670
      15       -0.000001548223    -0.000017510940    -0.000007190028
      16       -0.000007709959    -0.000003189813     0.000012392731
      17        0.000026751251    -0.000001567824    -0.000024810049
      18        0.000025496647    -0.000007860392    -0.000014697630
      19        0.000032626340     0.000014706255    -0.000008224244

  **** Optimization is complete! (in 12 steps) ****
    Final optimized geometry and variables:
    Molecular point group: c1

    Geometry (in Angstrom), charge = 0, multiplicity = 1:

    O           -1.784211768914    -0.431342100417    -1.074810730282
    C           -1.356921879705     0.620349501707    -0.708661341545
    C           -0.050126626702     0.741659996541     0.054794603717
    C           -2.096768752761     1.912716078703    -0.986634776414
    C            0.649549342795    -0.590950567397     0.305168469456
    H            0.598489801139     1.417939995126    -0.500688308074
    H           -0.258715087662     1.250065933424     0.995075699879
    C            1.961874274928    -0.430293372551     1.074311535095
    H            0.837486602885    -1.079264415549    -0.645975794710
    H           -0.019440791144    -1.247704548231     0.852385087908
    C            2.661127683242    -1.764135343014     1.333636869434
    H            2.630924858561     0.224839982959     0.519749758158
    H            1.769001775396     0.065185615799     2.023900172974
    H            2.901174304590    -2.267677893914     0.401709080415
    H            2.030219852743    -2.430244694310     1.914962322276
    H            3.587264605143    -1.622328509055     1.881921843096
    H           -3.009229355412     1.701827901154    -1.526732575229
    H           -1.476274522019     2.584640096274    -1.572556254184
    H           -2.334179723664     2.421870197663    -0.057172103964

  Mulliken Charges: (a.u.)
   Center  Symbol    Alpha    Beta     Spin     Total
       1     O     4.26100  4.26100  0.00000 -0.52200
       2     C     2.73579  2.73579  0.00000  0.52842
       3     C     3.21078  3.21078  0.00000 -0.42155
       4     C     3.28673  3.28673  0.00000 -0.57345
       5     C     3.14688  3.14688  0.00000 -0.29376
       6     H     0.41000  0.41000  0.00000  0.18000
       7     H     0.40997  0.40997  0.00000  0.18006
       8     C     3.15359  3.15359  0.00000 -0.30719
       9     H     0.41234  0.41234  0.00000  0.17531
      10     H     0.41246  0.41246  0.00000  0.17508
      11     C     3.23926  3.23926  0.00000 -0.47852
      12     H     0.42403  0.42403  0.00000  0.15195
      13     H     0.42409  0.42409  0.00000  0.15182
      14     H     0.42002  0.42002  0.00000  0.15996
      15     H     0.42003  0.42003  0.00000  0.15994
      16     H     0.41925  0.41925  0.00000  0.16149
      17     H     0.39640  0.39640  0.00000  0.20719
      18     H     0.40861  0.40861  0.00000  0.18278
      19     H     0.40876  0.40876  0.00000  0.18248

   Total alpha = 28.00000, Total beta = 28.00000, Total charge = -0.00000
