                              Psi4 1.0.54 Driver

  ==> Input File <==

--------------------------------------------------------------------------
set {
	reference rhf
	basis cc-pvtz
}

set_num_threads( 4 )
memory 2 gb

molecule MOL {
0 1

O	 -0.219917	 -2.263722	 -0.045568
C	 -1.290379	 -1.757649	 -0.024919
C	 -2.580391	 -2.532275	 -0.014613
O	 -1.481217	 -0.452708	 0.001092
H	 -2.584114	 -3.183020	 0.849446
H	 -3.440527	 -1.882487	 0.009481
H	 -2.613398	 -3.156918	 -0.897113
C	 -0.332055	 0.384012	 -0.000250
C	 0.892252	 -0.506059	 -0.000295
H	 -0.360822	 1.020205	 -0.874146
H	 -0.359817	 1.021310	 0.872861
C	 2.188199	 0.299473	 -0.001416
H	 0.857046	 -1.152781	 -0.871031
H	 0.857910	 -1.151798	 0.871202
C	 3.437151	 -0.577593	 -0.000991
H	 2.209565	 0.950707	 -0.871712
H	 2.210062	 0.952234	 0.867721
C	 4.732399	 0.226982	 -0.000914
H	 3.417321	 -1.229122	 -0.869998
H	 3.416993	 -1.228707	 0.868337
H	 4.797903	 0.863451	 -0.876963
H	 5.598517	 -0.424436	 -0.000420
H	 4.797415	 0.864118	 0.874691

	symmetry c1
}
set optking {
	frozen_dihedral = ("
		2 4 8 10
	")
}

ee,wfn = optimize('scf', return_wfn=True)
oeprop( wfn, 'DIPOLE', 'QUADRUPOLE', 'MULLIKEN_CHARGES')
f=open( 'psi4out.xyz', 'w' )
f.write( "23  " )
f.write( str(ee) + "\n" )
f.write( MOL.save_string_xyz() )
f.close()
--------------------------------------------------------------------------

    Molecular point group: c1
  Charge       = 0
  Multiplicity = 1
  Basis Set: CC-PVTZ
  Basis Set:
  @DF-RHF Final Energy:  -423.05481696973226
    Total Energy =                       -423.0548169697317462
    Molecular point group: c1
  Basis Set: CC-PVTZ
  Basis Set:
  Basis Set: CC-PVTZ
  Basis Set:
  @DF-RHF Final Energy:  -423.09482866024365
    Total Energy =                       -423.0948286602438202
  Basis Set: CC-PVTZ
  Basis Set:
  Basis Set: CC-PVTZ
  Basis Set:
  @DF-RHF Final Energy:  -423.11158261065498
    Total Energy =                       -423.1115826106549775
  Basis Set: CC-PVTZ
  Basis Set:
  Basis Set: CC-PVTZ
  Basis Set:
  @DF-RHF Final Energy:  -423.11811381761993
    Total Energy =                       -423.1181138176191325
  Basis Set: CC-PVTZ
  Basis Set:
  @DF-RHF Final Energy:  -423.11786439500941
    Total Energy =                       -423.1178643950092919
  @DF-RHF Final Energy:  -423.12077845484021
    Total Energy =                       -423.1207784548410018
  Basis Set: CC-PVTZ
  Basis Set:
  @DF-RHF Final Energy:  -423.12172783722724
    Total Energy =                       -423.1217278372273540
  Basis Set: CC-PVTZ
  Basis Set:
  Basis Set: CC-PVTZ
  Basis Set:
  @DF-RHF Final Energy:  -423.12177309542648
    Total Energy =                       -423.1217730954260787
  Basis Set: CC-PVTZ
  Basis Set:
  Basis Set: CC-PVTZ
  Basis Set:
  @DF-RHF Final Energy:  -423.12177797536970
    Total Energy =                       -423.1217779753700370
  Basis Set: CC-PVTZ
  Basis Set:
  Charge       = 0
  Multiplicity = 1
  Basis Set: CC-PVTZ
  Basis Set:

    Orbital Energies (a.u.)
    -----------------------

    Doubly Occupied:

       1A    -20.592501     2A    -20.524605     3A    -11.367800
       4A    -11.286611     5A    -11.227420     6A    -11.217986
       7A    -11.215420     8A    -11.215248     9A    -11.208247
      10A     -1.462641    11A     -1.363323    12A     -1.092055
      13A     -1.040595    14A     -1.000175    15A     -0.934420
      16A     -0.858973    17A     -0.797964    18A     -0.748453
      19A     -0.690794    20A     -0.680297    21A     -0.674391
      22A     -0.643978    23A     -0.605686    24A     -0.590268
      25A     -0.580882    26A     -0.564553    27A     -0.557940
      28A     -0.532549    29A     -0.525024    30A     -0.514539
      31A     -0.497455    32A     -0.475530    33A     -0.468688
      34A     -0.454261    35A     -0.441635    36A     -0.429389

  @DF-RHF Final Energy:  -423.12177880797759

   => Energetics <=

    Nuclear Repulsion Energy =            457.8216809093190136
    One-Electron Energy =               -1483.7223266099194916
    Two-Electron Energy =                 602.7788668926225455
    DFT Exchange-Correlation Energy =       0.0000000000000000
    Empirical Dispersion Energy =           0.0000000000000000
    PCM Polarization Energy =               0.0000000000000000
    EFP Energy =                            0.0000000000000000
    Total Energy =                       -423.1217788079779893
    Molecular point group: c1
  Basis Set: CC-PVTZ
  Basis Set:

  -Total Gradient:
     Atom            X                  Y                   Z
    ------   -----------------  -----------------  -----------------
       1        0.000040998593    -0.000031028214    -0.000013395050
       2        0.000127343826    -0.000001651102     0.001017045577
       3        0.000002555485     0.000031116692     0.000027576374
       4       -0.000290632620     0.000161395961    -0.001452487516
       5       -0.000003925210    -0.000037766040     0.000014619837
       6       -0.000024751776     0.000015088729    -0.000003580944
       7       -0.000031391372    -0.000005367471    -0.000042369516
       8        0.000437178878    -0.000900541974    -0.000126977188
       9       -0.000017371215    -0.000004207857     0.000113015734
      10       -0.000283394314     0.000757207113     0.000553179620
      11        0.000040766760    -0.000016557621    -0.000008453646
      12        0.000005565491     0.000004320232    -0.000005477142
      13       -0.000021910229    -0.000027358099    -0.000032620214
      14       -0.000003266837     0.000029875700    -0.000022660047
      15        0.000020149204     0.000008679178    -0.000006977581
      16        0.000018522057     0.000017632622    -0.000009255148
      17        0.000009941078    -0.000003025422     0.000005917980
      18       -0.000009431646     0.000003364821    -0.000004635933
      19       -0.000002000295    -0.000002775725    -0.000008230459
      20       -0.000008294030     0.000003455096     0.000009435486
      21        0.000000186004     0.000006104750    -0.000005754057
      22       -0.000004231816    -0.000008489679    -0.000000829215
      23       -0.000002606018     0.000000528309     0.000002913046

  **** Optimization is complete! (in 10 steps) ****
    Final optimized geometry and variables:
    Molecular point group: c1

    Geometry (in Angstrom), charge = 0, multiplicity = 1:

    O           -1.434258090007    -1.778365206815    -0.071466173502
    C           -2.212266892113    -0.896765597370     0.060841864235
    C           -3.693533103310    -1.135172269265     0.216050887111
    O           -1.927350744321     0.388903495377     0.088199634759
    H           -3.849384065204    -1.757025930147     1.087661625611
    H           -4.246626806702    -0.215252625397     0.315666498814
    H           -4.043177935558    -1.686495813716    -0.646624721734
    C           -0.634660806885     0.995927755545     0.007563001577
    C            0.611599950424     0.125713847640    -0.024969903804
    H           -0.671567547169     1.623602455722    -0.873015415176
    H           -0.592510355159     1.651134676966     0.867294961948
    C            1.852853028220     1.017393832992    -0.053703750450
    H            0.601066543165    -0.519991944543    -0.890843748226
    H            0.642199079856    -0.518912416783     0.842792399776
    C            3.152973975843     0.219192163784    -0.099268692478
    H            1.810760865110     1.677026565291    -0.917728855358
    H            1.862330580951     1.662707629501     0.821884753497
    C            4.395724015970     1.102308056650    -0.127958687195
    H            3.146918751315    -0.424401494662    -0.974023638401
    H            3.198165645198    -0.440004211461     0.762729036921
    H            4.396352223243     1.749996340506    -0.998470982162
    H            5.299705567634     0.505266325411    -0.160179971689
    H            4.448212209839     1.734046968215     0.752631169843

  Mulliken Charges: (a.u.)
   Center  Symbol    Alpha    Beta     Spin     Total
       1     O     4.20278  4.20278  0.00000 -0.40555
       2     C     2.81314  2.81314  0.00000  0.37372
       3     C     3.13772  3.13772  0.00000 -0.27543
       4     O     4.15061  4.15061  0.00000 -0.30121
       5     H     0.44320  0.44320  0.00000  0.11360
       6     H     0.44199  0.44199  0.00000  0.11601
       7     H     0.44256  0.44256  0.00000  0.11487
       8     C     2.97750  2.97750  0.00000  0.04500
       9     C     3.10066  3.10066  0.00000 -0.20133
      10     H     0.45405  0.45405  0.00000  0.09190
      11     H     0.45333  0.45333  0.00000  0.09333
      12     C     3.09361  3.09361  0.00000 -0.18722
      13     H     0.43863  0.43863  0.00000  0.12275
      14     H     0.44180  0.44180  0.00000  0.11640
      15     C     3.08254  3.08254  0.00000 -0.16507
      16     H     0.45612  0.45612  0.00000  0.08776
      17     H     0.45619  0.45619  0.00000  0.08762
      18     C     3.15087  3.15087  0.00000 -0.30174
      19     H     0.45201  0.45201  0.00000  0.09598
      20     H     0.45232  0.45232  0.00000  0.09536
      21     H     0.45538  0.45538  0.00000  0.08923
      22     H     0.44754  0.44754  0.00000  0.10492
      23     H     0.45546  0.45546  0.00000  0.08909

   Total alpha = 36.00000, Total beta = 36.00000, Total charge =  0.00000

*** Psi4 exiting successfully. Buy a developer a beer!
