  ==> Input File <==

--------------------------------------------------------------------------
set {
	reference rhf
	basis 6-31G*
}

set_num_threads( 4 )
memory 2 gb

molecule MOL {
0 1

H	 3.729471	 -0.928294	 -0.070608
O	 2.826016	 -1.159218	 0.122261
C	 2.077727	 -0.067559	 -0.035091
C	 0.624473	 -0.343591	 0.253101
O	 2.542965	 0.974826	 -0.363729
C	 -0.265902	 0.883932	 0.072916
H	 0.324016	 -1.163849	 -0.390541
H	 0.565024	 -0.726111	 1.268924
C	 -1.728698	 0.646073	 0.462102
H	 -0.209144	 1.219470	 -0.958188
H	 0.135059	 1.692851	 0.673903
C	 -2.482460	 -0.343073	 -0.431425
H	 -2.245265	 1.602650	 0.432430
H	 -1.779332	 0.308348	 1.496285
C	 -3.983168	 -0.058042	 -0.487198
H	 -2.069836	 -0.303001	 -1.437496
H	 -2.330086	 -1.359632	 -0.078194
H	 -4.495551	 -0.772110	 -1.124289
H	 -4.178974	 0.935835	 -0.879239
H	 -4.430095	 -0.116556	 0.501270

	symmetry c1
}
set optking {
	frozen_dihedral = ("
		16 12 9 6
	")
}

ee = optimize('scf')
oeprop('DIPOLE', 'QUADRUPOLE', 'MULLIKEN_CHARGES')
f=open( 'psi4out.xyz', 'w' )
f.write( "20  " )
f.write( str(ee) + "\n" )
f.write( MOL.save_string_xyz() )
f.close()
--------------------------------------------------------------------------

    Molecular point group: c1
  Charge       = 0
  Multiplicity = 1
  Basis Set: 6-31G*
  Basis Set:
  @DF-RHF Final Energy:  -383.94679098291522
    Total Energy =                       -383.9467909829155587
    Molecular point group: c1
  Basis Set: 6-31G*
  Basis Set:
  Basis Set: 6-31G*
  Basis Set:
  @DF-RHF Final Energy:  -383.94688668847783
    Total Energy =                       -383.9468866884781164
  Basis Set: 6-31G*
  Basis Set:
  Basis Set: 6-31G*
  Basis Set:
  @DF-RHF Final Energy:  -383.94702332270754
    Total Energy =                       -383.9470233227075369
  Basis Set: 6-31G*
  Basis Set:
  Basis Set: 6-31G*
  Basis Set:
  @DF-RHF Final Energy:  -383.94703495947294
    Total Energy =                       -383.9470349594727168
  Basis Set: 6-31G*
  Basis Set:
  Basis Set: 6-31G*
  Basis Set:
  @DF-RHF Final Energy:  -383.94704817438424
    Total Energy =                       -383.9470481743842356
  Basis Set: 6-31G*
  Basis Set:
  Basis Set: 6-31G*
  Basis Set:
  @DF-RHF Final Energy:  -383.94705662955738
    Total Energy =                       -383.9470566295572667
  Basis Set: 6-31G*
  Basis Set:
  Basis Set: 6-31G*
  Basis Set:
  @DF-RHF Final Energy:  -383.94706071104889
    Total Energy =                       -383.9470607110486640
  Basis Set: 6-31G*
  Basis Set:
  Charge       = 0
  Multiplicity = 1
  Basis Set: 6-31G*
  Basis Set:

    Orbital Energies (a.u.)
    -----------------------

    Doubly Occupied:

       1A    -20.612432     2A    -20.551516     3A    -11.381019
       4A    -11.240008     5A    -11.222989     6A    -11.220720
       7A    -11.219981     8A    -11.212727     9A     -1.474483
      10A     -1.365530    11A     -1.096022    12A     -1.040079
      13A     -0.961358    14A     -0.868899    15A     -0.817251
      16A     -0.776067    17A     -0.699454    18A     -0.689250
      19A     -0.665148    20A     -0.634216    21A     -0.598911
      22A     -0.596878    23A     -0.573995    24A     -0.561272
      25A     -0.535538    26A     -0.514144    27A     -0.496659
      28A     -0.478995    29A     -0.471040    30A     -0.464951
      31A     -0.457308    32A     -0.443326

  @DF-RHF Final Energy:  -383.94706105824008

   => Energetics <=

    Nuclear Repulsion Energy =            376.1265392196746120
    One-Electron Energy =               -1268.2628690713768265
    Two-Electron Energy =                 508.1892687934620199
    DFT Exchange-Correlation Energy =       0.0000000000000000
    Empirical Dispersion Energy =           0.0000000000000000
    PCM Polarization Energy =               0.0000000000000000
    EFP Energy =                            0.0000000000000000
    Total Energy =                       -383.9470610582401378
    Molecular point group: c1
  Basis Set: 6-31G*
  Basis Set:

  -Total Gradient:
     Atom            X                  Y                   Z
    ------   -----------------  -----------------  -----------------
       1       -0.000002753531     0.000005333926     0.000002101587
       2       -0.000026947057     0.000006844602     0.000000363009
       3       -0.000010457034     0.000033932076    -0.000032812413
       4       -0.000062273821    -0.000031039910    -0.000007872843
       5        0.000014186703    -0.000000053296     0.000010682465
       6       -0.000794788083     0.002198891989    -0.001633725584
       7       -0.000002160208    -0.000025106179     0.000005555845
       8       -0.000014765750     0.000004371435     0.000012758882
       9        0.001786004428    -0.003725750972     0.002787824222
      10       -0.000004095601    -0.000036454508    -0.000009771560
      11       -0.000007218465     0.000037885928    -0.000007011955
      12       -0.003439194098     0.004325692381    -0.002123218411
      13        0.000113036931     0.000003299870     0.000001288117
      14        0.000025813663     0.000054134146     0.000025791039
      15       -0.000062675352    -0.000073019188     0.000032283890
      16        0.002499140296    -0.002800052528     0.000965903389
      17       -0.000005513237     0.000038007217    -0.000034029227
      18       -0.000016547369    -0.000008821673     0.000001340513
      19        0.000032804225    -0.000015259324    -0.000004069007
      20       -0.000021596639     0.000007164010     0.000006618042

  **** Optimization is complete! (in 8 steps) ****
    Final optimized geometry and variables:
    Molecular point group: c1

    Geometry (in Angstrom), charge = 0, multiplicity = 1:

    H            3.704128258048    -1.022576333154    -0.054191920067
    O            2.800096497259    -1.237339556785     0.154027697697
    C            2.068987701007    -0.132372384914     0.009893044997
    C            0.616076409385    -0.381366444567     0.322247679065
    O            2.547148070975     0.901864228814    -0.326040848126
    C           -0.254804530256     0.863176757836     0.166330104961
    H            0.284947856979    -1.190266006752    -0.321780885928
    H            0.565975533101    -0.770511315904     1.336005055715
    C           -1.722530539471     0.624799604850     0.532133205314
    H           -0.188845510455     1.221438931274    -0.856113284323
    H            0.149127046621     1.652908725279     0.790694674839
    C           -2.455416790759    -0.374136926155    -0.378137630795
    H           -2.229129744130     1.585660736174     0.476612419091
    H           -1.802692206112     0.304671646986     1.568975662375
    C           -3.963093899837    -0.138093223163    -0.438350236922
    H           -2.028665577270    -0.341429910455    -1.378513555246
    H           -2.273190345166    -1.386920328655    -0.025222261232
    H           -4.455168818855    -0.886685703665    -1.051358909013
    H           -4.189575328262     0.837574227405    -0.858221694351
    H           -4.404264106420    -0.180670535728     0.553643707954

  Mulliken Charges: (a.u.)
   Center  Symbol    Alpha    Beta     Spin     Total
       1     H     0.26789  0.26789  0.00000  0.46422
       2     O     4.35154  4.35154  0.00000 -0.70308
       3     C     2.62240  2.62240  0.00000  0.75520
       4     C     3.21267  3.21267  0.00000 -0.42534
       5     O     4.27938  4.27938  0.00000 -0.55875
       6     C     3.15505  3.15505  0.00000 -0.31010
       7     H     0.39640  0.39640  0.00000  0.20721
       8     H     0.39912  0.39912  0.00000  0.20176
       9     C     3.15685  3.15685  0.00000 -0.31371
      10     H     0.41148  0.41148  0.00000  0.17703
      11     H     0.40902  0.40902  0.00000  0.18196
      12     C     3.15648  3.15648  0.00000 -0.31296
      13     H     0.41757  0.41757  0.00000  0.16486
      14     H     0.42158  0.42158  0.00000  0.15684
      15     C     3.23924  3.23924  0.00000 -0.47847
      16     H     0.42141  0.42141  0.00000  0.15718
      17     H     0.42206  0.42206  0.00000  0.15589
      18     H     0.41878  0.41878  0.00000  0.16244
      19     H     0.42028  0.42028  0.00000  0.15945
      20     H     0.42081  0.42081  0.00000  0.15838

   Total alpha = 32.00000, Total beta = 32.00000, Total charge =  0.00000
