  ==> Input File <==

--------------------------------------------------------------------------
set {
	reference rhf
	basis 6-31G*
}

set_num_threads( 4 )
memory 2 gb

molecule MOL {
0 1

O	 1.531069	 0.190294	 0.969694
C	 0.861134	 0.272526	 -0.014869
C	 -0.623889	 -0.118271	 -0.003699
C	 1.483270	 0.767056	 -1.308852
C	 -0.895332	 -1.256461	 -1.002431
C	 -1.473649	 1.103340	 -0.370799
C	 -0.983900	 -0.581483	 1.422328
H	 -0.615301	 -0.972064	 -2.012700
H	 -1.954261	 -1.493213	 -1.010207
H	 -0.360539	 -2.164946	 -0.747760
H	 -1.227476	 1.468527	 -1.361691
H	 -2.526716	 0.838935	 -0.358521
H	 -1.314819	 1.915855	 0.325860
H	 -2.039679	 -0.828001	 1.472951
H	 -0.427637	 -1.464071	 1.720694
H	 -0.789023	 0.202493	 2.147048
H	 1.215919	 1.808192	 -1.463833
H	 2.559010	 0.697175	 -1.225077
H	 1.145865	 0.211610	 -2.175373

	symmetry c1
}
set optking {
	frozen_dihedral = ("
		1 2 3 5
	")
}

ee = optimize('scf')
oeprop('DIPOLE', 'QUADRUPOLE', 'MULLIKEN_CHARGES')
f=open( 'psi4out.xyz', 'w' )
f.write( "19  " )
f.write( str(ee) + "\n" )
f.write( MOL.save_string_xyz() )
f.close()
--------------------------------------------------------------------------

    Molecular point group: c1
  Charge       = 0
  Multiplicity = 1
  Basis Set: 6-31G*
  Basis Set:
  @DF-RHF Final Energy:  -309.06178945956236
    Total Energy =                       -309.0617894595624193
    Molecular point group: c1
  Basis Set: 6-31G*
  Basis Set:
  Basis Set: 6-31G*
  Basis Set:
  @DF-RHF Final Energy:  -309.06087139569752
    Total Energy =                       -309.0608713956978022
  Basis Set: 6-31G*
  Basis Set:
  Basis Set: 6-31G*
  Basis Set:
  @DF-RHF Final Energy:  -309.06115864278490
    Total Energy =                       -309.0611586427849033
  Basis Set: 6-31G*
  Basis Set:
  Basis Set: 6-31G*
  Basis Set:
  @DF-RHF Final Energy:  -309.06265766287061
    Total Energy =                       -309.0626576628706061
  Basis Set: 6-31G*
  Basis Set:
  @DF-RHF Final Energy:  -309.06244468531764
    Total Energy =                       -309.0624446853171889
  @DF-RHF Final Energy:  -309.06272174954989
    Total Energy =                       -309.0627217495499508
  @DF-RHF Final Energy:  -309.06272679856954
    Total Energy =                       -309.0627267985692583
  Basis Set: 6-31G*
  Basis Set:
  @DF-RHF Final Energy:  -309.06272857257693
    Total Energy =                       -309.0627285725769298
  Basis Set: 6-31G*
  Basis Set:
  Basis Set: 6-31G*
  Basis Set:
  @DF-RHF Final Energy:  -309.06273128714872
    Total Energy =                       -309.0627312871487788
  Basis Set: 6-31G*
  Basis Set:
  Basis Set: 6-31G*
  Basis Set:
  @DF-RHF Final Energy:  -309.06273257706380
    Total Energy =                       -309.0627325770637412
  Basis Set: 6-31G*
  Basis Set:
  Charge       = 0
  Multiplicity = 1
  Basis Set: 6-31G*
  Basis Set:

    Orbital Energies (a.u.)
    -----------------------

    Doubly Occupied:

       1A    -20.548211     2A    -11.322769     3A    -11.246570
       4A    -11.226411     5A    -11.224874     6A    -11.224556
       7A    -11.207761     8A     -1.394571     9A     -1.109592
      10A     -1.001320    11A     -0.947034    12A     -0.934656
      13A     -0.835371    14A     -0.703502    15A     -0.664447
      16A     -0.631294    17A     -0.618759    18A     -0.599223
      19A     -0.593130    20A     -0.564683    21A     -0.545937
      22A     -0.543680    23A     -0.523078    24A     -0.512723
      25A     -0.497667    26A     -0.471271    27A     -0.467136
      28A     -0.392850

  @DF-RHF Final Energy:  -309.06273266443378

   => Energetics <=

    Nuclear Repulsion Energy =            326.1975021069618492
    One-Electron Energy =               -1065.4143192648655258
    Two-Electron Energy =                 430.1540844934698953
    DFT Exchange-Correlation Energy =       0.0000000000000000
    Empirical Dispersion Energy =           0.0000000000000000
    PCM Polarization Energy =               0.0000000000000000
    EFP Energy =                            0.0000000000000000
    Total Energy =                       -309.0627326644338382
    Molecular point group: c1
  Basis Set: 6-31G*
  Basis Set:

  -Total Gradient:
     Atom            X                  Y                   Z
    ------   -----------------  -----------------  -----------------
       1       -0.000346188149     0.001366240641     0.000342491682
       2        0.000414840088    -0.001686206333    -0.000732872901
       3        0.000103843999    -0.000355810381     0.001147422396
       4       -0.000004515038    -0.000007974177    -0.000000554335
       5       -0.000179533192     0.000671594781    -0.000747785851
       6        0.000001774753     0.000000978563    -0.000000179162
       7        0.000004781969     0.000003422536    -0.000010358200
       8        0.000001303253     0.000000167743     0.000001947809
       9        0.000001817263     0.000002125821     0.000000421906
      10       -0.000000359763    -0.000001802003    -0.000001190427
      11       -0.000001747373    -0.000000036742    -0.000000027139
      12        0.000003600807    -0.000001421496     0.000001089308
      13       -0.000002054403     0.000004291701     0.000001323713
      14       -0.000002504543     0.000001104080    -0.000000167592
      15        0.000001857396     0.000000905006    -0.000001626467
      16        0.000001688094    -0.000000133253     0.000000408092
      17        0.000000581137     0.000001056924     0.000001067547
      18        0.000000440958     0.000002025718    -0.000001617255
      19        0.000000372744    -0.000000529128     0.000000206876

  **** Optimization is complete! (in 11 steps) ****
    Final optimized geometry and variables:
    Molecular point group: c1

    Geometry (in Angstrom), charge = 0, multiplicity = 1:

    O            1.556515367370     0.114950969915     1.009665859443
    C            0.880338581474     0.196779664784     0.029196669240
    C           -0.609057588398    -0.175958298671     0.052140226155
    C            1.491557813406     0.737409033079    -1.252797984625
    C           -0.877883682324    -1.320969316212    -0.943285339287
    C           -1.440267177324     1.057633064484    -0.348902592298
    C           -0.998683593953    -0.624167411147     1.464275674885
    H           -0.698367697556    -1.027770970224    -1.971279910699
    H           -1.915250000270    -1.631101072751    -0.870546702487
    H           -0.259230786692    -2.186496511238    -0.725173729423
    H           -1.226491585212     1.383087656394    -1.361568018977
    H           -2.498146690946     0.821090808838    -0.297948664565
    H           -1.255289885421     1.892075993695     0.321083644294
    H           -2.053282260639    -0.881483488423     1.492476103117
    H           -0.427064851199    -1.490971764422     1.772607605316
    H           -0.818575708824     0.160013886860     2.189187541624
    H            1.297167766133     1.804510584649    -1.312318494464
    H            2.562371458860     0.591900567344    -1.212992090543
    H            1.092291771697     0.280023602935    -2.148289947984

  Mulliken Charges: (a.u.)
   Center  Symbol    Alpha    Beta     Spin     Total
       1     O     4.26368  4.26368  0.00000 -0.52735
       2     C     2.72596  2.72596  0.00000  0.54808
       3     C     3.07084  3.07084  0.00000 -0.14169
       4     C     3.28796  3.28796  0.00000 -0.57592
       5     C     3.24120  3.24120  0.00000 -0.48240
       6     C     3.24231  3.24231  0.00000 -0.48461
       7     C     3.22516  3.22516  0.00000 -0.45032
       8     H     0.41818  0.41818  0.00000  0.16363
       9     H     0.41294  0.41294  0.00000  0.17411
      10     H     0.41252  0.41252  0.00000  0.17495
      11     H     0.41707  0.41707  0.00000  0.16586
      12     H     0.41300  0.41300  0.00000  0.17401
      13     H     0.41290  0.41290  0.00000  0.17420
      14     H     0.42409  0.42409  0.00000  0.15181
      15     H     0.41108  0.41108  0.00000  0.17783
      16     H     0.41107  0.41107  0.00000  0.17786
      17     H     0.40309  0.40309  0.00000  0.19383
      18     H     0.39622  0.39622  0.00000  0.20757
      19     H     0.41072  0.41072  0.00000  0.17857

   Total alpha = 28.00000, Total beta = 28.00000, Total charge =  0.00000
