  ==> Input File <==

--------------------------------------------------------------------------
set {
	reference rhf
	basis 6-31G*
}

set_num_threads( 4 )
memory 2 gb

molecule MOL {
0 1

H	 -3.498780	 -0.964398	 -0.081282
O	 -3.517110	 -0.026191	 -0.205115
C	 -2.306886	 0.532354	 0.237577
C	 -1.177863	 -0.397191	 -0.171080
H	 -2.156308	 1.517575	 -0.201710
H	 -2.315015	 0.655684	 1.319734
C	 0.198102	 0.111031	 0.262842
H	 -1.208843	 -0.518759	 -1.250427
H	 -1.368741	 -1.376554	 0.258909
C	 1.331804	 -0.827780	 -0.158768
H	 0.361943	 1.100838	 -0.156218
H	 0.217265	 0.229072	 1.345532
C	 2.723619	 -0.410569	 0.329459
H	 1.342964	 -0.912588	 -1.244120
H	 1.116806	 -1.824343	 0.220779
C	 3.243875	 0.895854	 -0.272975
H	 3.424222	 -1.207124	 0.091250
H	 2.714788	 -0.329854	 1.414619
H	 3.251977	 0.848779	 -1.358681
H	 2.637085	 1.747371	 0.016682
H	 4.259473	 1.094070	 0.055697

	symmetry c1
}
set optking {
	frozen_dihedral = ("
		1 2 3 5
	")
}

ee = optimize('scf')
oeprop('DIPOLE', 'QUADRUPOLE', 'MULLIKEN_CHARGES')
f=open( 'psi4out.xyz', 'w' )
f.write( "21  " )
f.write( str(ee) + "\n" )
f.write( MOL.save_string_xyz() )
f.close()
--------------------------------------------------------------------------

    Molecular point group: c1
  Charge       = 0
  Multiplicity = 1
  Basis Set: 6-31G*
  Basis Set:
  @DF-RHF Final Energy:  -310.21005683148167
    Total Energy =                       -310.2100568314814950
    Molecular point group: c1
  Basis Set: 6-31G*
  Basis Set:
  Basis Set: 6-31G*
  Basis Set:
  @DF-RHF Final Energy:  -310.21158305163164
    Total Energy =                       -310.2115830516318056
  Basis Set: 6-31G*
  Basis Set:
  Basis Set: 6-31G*
  Basis Set:
  @DF-RHF Final Energy:  -310.21200056894571
    Total Energy =                       -310.2120005689456548
  Basis Set: 6-31G*
  Basis Set:
  Basis Set: 6-31G*
  Basis Set:
  @DF-RHF Final Energy:  -310.21200576463701
    Total Energy =                       -310.2120057646366718
  Basis Set: 6-31G*
  Basis Set:
  Basis Set: 6-31G*
  Basis Set:
  @DF-RHF Final Energy:  -310.21200255916403
    Total Energy =                       -310.2120025591641479
  Basis Set: 6-31G*
  Basis Set:
  Basis Set: 6-31G*
  Basis Set:
  @DF-RHF Final Energy:  -310.21200708841394
    Total Energy =                       -310.2120070884136567
  Basis Set: 6-31G*
  Basis Set:
  Charge       = 0
  Multiplicity = 1
  Basis Set: 6-31G*
  Basis Set:

    Orbital Energies (a.u.)
    -----------------------

    Doubly Occupied:

       1A    -20.550816     2A    -11.266382     3A    -11.221656
       4A    -11.220826     5A    -11.219000     6A    -11.218412
       7A    -11.210828     8A     -1.358054     9A     -1.091228
      10A     -1.036560    11A     -0.956285    12A     -0.880690
      13A     -0.823396    14A     -0.782931    15A     -0.682354
      16A     -0.653069    17A     -0.623038    18A     -0.612974
      19A     -0.594898    20A     -0.577322    21A     -0.540622
      22A     -0.535454    23A     -0.507128    24A     -0.490480
      25A     -0.489602    26A     -0.465917    27A     -0.460509
      28A     -0.451628    29A     -0.425424

  @DF-RHF Final Energy:  -310.21200693810533

   => Energetics <=

    Nuclear Repulsion Energy =            312.3881873172722408
    One-Electron Energy =               -1039.3054244736729288
    Two-Electron Energy =                 416.7052302182953554
    DFT Exchange-Correlation Energy =       0.0000000000000000
    Empirical Dispersion Energy =           0.0000000000000000
    PCM Polarization Energy =               0.0000000000000000
    EFP Energy =                            0.0000000000000000
    Total Energy =                       -310.2120069381053327
    Molecular point group: c1
  Basis Set: 6-31G*
  Basis Set:

  -Total Gradient:
     Atom            X                  Y                   Z
    ------   -----------------  -----------------  -----------------
       1        0.000711233883    -0.000239233043    -0.001895242438
       2       -0.000804251101     0.000064626693     0.001985417308
       3       -0.000762480746     0.000891130299     0.001266450852
       4        0.000048727630     0.000034540319    -0.000010551967
       5        0.000799586644    -0.000742738678    -0.001372108915
       6        0.000034704596     0.000010700889     0.000004159746
       7        0.000013094659    -0.000010942177     0.000016615687
       8       -0.000001029000    -0.000006467733    -0.000000871284
       9       -0.000002878641     0.000009698602     0.000014205007
      10        0.000012353803    -0.000011684204    -0.000014630641
      11        0.000000448231     0.000008683413     0.000004199097
      12       -0.000012874593    -0.000008231115     0.000009017023
      13       -0.000014635218     0.000015483245    -0.000006570419
      14       -0.000006132611    -0.000009045011    -0.000004538958
      15        0.000011489910    -0.000001781997     0.000008541952
      16       -0.000000792814    -0.000002512153    -0.000002509085
      17       -0.000012381555    -0.000003231266    -0.000004836221
      18       -0.000004480138    -0.000000118255     0.000001939992
      19       -0.000002370603     0.000001058289    -0.000000494251
      20       -0.000009547572     0.000000849059     0.000003204330
      21        0.000002215236    -0.000000785176    -0.000001396814

  **** Optimization is complete! (in 7 steps) ****
    Final optimized geometry and variables:
    Molecular point group: c1

    Geometry (in Angstrom), charge = 0, multiplicity = 1:

    H           -3.615964162489    -0.878684858221    -0.104045250781
    O           -3.566192495537     0.061944179598    -0.200279163470
    C           -2.312522191894     0.514517902231     0.242371917428
    C           -1.172825022078    -0.408751159073    -0.172266097855
    H           -2.170013889259     1.489749299608    -0.206842486127
    H           -2.315829259412     0.643701758710     1.323329704618
    C            0.200539710786     0.104571515671     0.264418004915
    H           -1.200623385922    -0.528057228964    -1.252621366763
    H           -1.341314388446    -1.397277469384     0.256408044575
    C            1.341445900593    -0.826471724293    -0.154713018438
    H            0.356274224971     1.094967477703    -0.155182168293
    H            0.214879883654     0.223630231613     1.346713575070
    C            2.729676351029    -0.394354908855     0.330778218875
    H            1.352600676278    -0.915368302127    -1.239730821426
    H            1.136236606286    -1.823585169030     0.229397647446
    C            3.237035135611     0.914364539445    -0.277546919700
    H            3.437003477922    -1.185560144701     0.094985949848
    H            2.720837711544    -0.309545822281     1.415567424891
    H            3.244012186315     0.863221458070    -1.363037705490
    H            2.623391096362     1.761635626566     0.009948588318
    H            4.251234244601     1.122604094697     0.048892104380

  Mulliken Charges: (a.u.)
   Center  Symbol    Alpha    Beta     Spin     Total
       1     H     0.28270  0.28270  0.00000  0.43460
       2     O     4.37401  4.37401  0.00000 -0.74801
       3     C     2.97805  2.97805  0.00000  0.04390
       4     C     3.17778  3.17778  0.00000 -0.35556
       5     H     0.41875  0.41875  0.00000  0.16251
       6     H     0.43081  0.43081  0.00000  0.13839
       7     C     3.16051  3.16051  0.00000 -0.32101
       8     H     0.41440  0.41440  0.00000  0.17119
       9     H     0.42798  0.42798  0.00000  0.14405
      10     C     3.15208  3.15208  0.00000 -0.30416
      11     H     0.41850  0.41850  0.00000  0.16300
      12     H     0.42215  0.42215  0.00000  0.15570
      13     C     3.15276  3.15276  0.00000 -0.30552
      14     H     0.42267  0.42267  0.00000  0.15467
      15     H     0.42202  0.42202  0.00000  0.15595
      16     C     3.24155  3.24155  0.00000 -0.48310
      17     H     0.42017  0.42017  0.00000  0.15967
      18     H     0.42298  0.42298  0.00000  0.15404
      19     H     0.42168  0.42168  0.00000  0.15664
      20     H     0.41998  0.41998  0.00000  0.16004
      21     H     0.41849  0.41849  0.00000  0.16302

   Total alpha = 29.00000, Total beta = 29.00000, Total charge =  0.00000
