                              Psi4 1.0.54 Driver

  ==> Input File <==

--------------------------------------------------------------------------
set {
	reference rhf
	basis cc-pvtz
}

set_num_threads( 4 )
memory 2 gb

molecule MOL {
0 1

H	 3.721907	 -0.933076	 -0.066039
O	 2.824271	 -1.154299	 0.131461
C	 2.076458	 -0.067370	 -0.038225
C	 0.626018	 -0.337582	 0.258241
O	 2.538288	 0.965419	 -0.381593
C	 -0.267326	 0.883135	 0.076490
H	 0.325620	 -1.161483	 -0.378003
H	 0.574537	 -0.713685	 1.275261
C	 -1.726822	 0.642622	 0.463839
H	 -0.210803	 1.217591	 -0.953497
H	 0.129920	 1.693110	 0.675679
C	 -1.970618	 0.399365	 1.952272
H	 -2.083712	 -0.220676	 -0.089875
H	 -2.332905	 1.483339	 0.133227
C	 -3.425252	 0.062096	 2.263345
H	 -1.332622	 -0.413106	 2.289741
H	 -1.682208	 1.273634	 2.527100
H	 -3.570699	 -0.107716	 3.323860
H	 -3.739938	 -0.833431	 1.738271
H	 -4.086252	 0.868718	 1.964021

	symmetry c1
}
set optking {
	frozen_dihedral = ("
		12 9 6 10
	")
}

ee,wfn = optimize('scf', return_wfn=True)
oeprop( wfn, 'DIPOLE', 'QUADRUPOLE', 'MULLIKEN_CHARGES')
f=open( 'psi4out.xyz', 'w' )
f.write( "20  " )
f.write( str(ee) + "\n" )
f.write( MOL.save_string_xyz() )
f.close()
--------------------------------------------------------------------------

    Molecular point group: c1
  Charge       = 0
  Multiplicity = 1
  Basis Set: CC-PVTZ
  Basis Set:
  @DF-RHF Final Energy:  -384.09428673652548
    Total Energy =                       -384.0942867365254187
    Molecular point group: c1
  Basis Set: CC-PVTZ
  Basis Set:
  Basis Set: CC-PVTZ
  Basis Set:
  @DF-RHF Final Energy:  -384.09489166576464
    Total Energy =                       -384.0948916657650329
  Basis Set: CC-PVTZ
  Basis Set:
  Basis Set: CC-PVTZ
  Basis Set:
  @DF-RHF Final Energy:  -384.09481838253697
    Total Energy =                       -384.0948183825369142
  Basis Set: CC-PVTZ
  Basis Set:
  Basis Set: CC-PVTZ
  Basis Set:
  @DF-RHF Final Energy:  -384.09497485407456
    Total Energy =                       -384.0949748540742235
  Basis Set: CC-PVTZ
  Basis Set:
  Basis Set: CC-PVTZ
  Basis Set:
  @DF-RHF Final Energy:  -384.09501438666484
    Total Energy =                       -384.0950143866649569
  Basis Set: CC-PVTZ
  Basis Set:
  Basis Set: CC-PVTZ
  Basis Set:
  @DF-RHF Final Energy:  -384.09501572675697
    Total Energy =                       -384.0950157267566851
  Basis Set: CC-PVTZ
  Basis Set:
  Charge       = 0
  Multiplicity = 1
  Basis Set: CC-PVTZ
  Basis Set:

    Orbital Energies (a.u.)
    -----------------------

    Doubly Occupied:

       1A    -20.603853     2A    -20.540467     3A    -11.373406
       4A    -11.238675     5A    -11.220996     6A    -11.218748
       7A    -11.218136     8A    -11.210503     9A     -1.477448
      10A     -1.368952    11A     -1.097527    12A     -1.042320
      13A     -0.962496    14A     -0.870353    15A     -0.817469
      16A     -0.778541    17A     -0.703665    18A     -0.693018
      19A     -0.666550    20A     -0.637108    21A     -0.605394
      22A     -0.596371    23A     -0.576793    24A     -0.556946
      25A     -0.541382    26A     -0.513303    27A     -0.496119
      28A     -0.484534    29A     -0.471764    30A     -0.468429
      31A     -0.458138    32A     -0.446399

  @DF-RHF Final Energy:  -384.09501590205446

   => Energetics <=

    Nuclear Repulsion Energy =            376.5069007578397304
    One-Electron Energy =               -1269.2922235779365110
    Two-Electron Energy =                 508.6903069180421539
    DFT Exchange-Correlation Energy =       0.0000000000000000
    Empirical Dispersion Energy =           0.0000000000000000
    PCM Polarization Energy =               0.0000000000000000
    EFP Energy =                            0.0000000000000000
    Total Energy =                       -384.0950159020546266
    Molecular point group: c1
  Basis Set: CC-PVTZ
  Basis Set:

  -Total Gradient:
     Atom            X                  Y                   Z
    ------   -----------------  -----------------  -----------------
       1       -0.000007902374    -0.000001381952     0.000003044674
       2        0.000004122926     0.000022086067    -0.000000717165
       3       -0.000008663602     0.000000441094    -0.000043388087
       4       -0.000002218261     0.000000853054     0.000022594737
       5       -0.000003565173    -0.000031028759     0.000032414803
       6        0.000034981060    -0.000254794818    -0.000093485373
       7        0.000003506792     0.000017244121     0.000011396818
       8        0.000006316008     0.000001147969    -0.000010412140
       9        0.000059471940    -0.000299538501    -0.000049291192
      10       -0.000057417800     0.000306522782     0.000097643837
      11        0.000010877072    -0.000008830640    -0.000006862793
      12       -0.000039561186     0.000266037825     0.000040481676
      13       -0.000018987470    -0.000004309669    -0.000010003580
      14        0.000022768747    -0.000003435738     0.000011196701
      15       -0.000008709380    -0.000022030846    -0.000009226514
      16       -0.000029523517     0.000024772925    -0.000000255588
      17       -0.000003000330    -0.000013421396    -0.000006150350
      18       -0.000001524133    -0.000002201157    -0.000016696781
      19        0.000006331450     0.000032442657     0.000016136745
      20        0.000032697243    -0.000030575017     0.000011579569

  **** Optimization is complete! (in 7 steps) ****
    Final optimized geometry and variables:
    Molecular point group: c1

    Geometry (in Angstrom), charge = 0, multiplicity = 1:

    H            3.637655493320    -0.949944404702    -0.782372872439
    O            2.766837221226    -1.197810558514    -0.510449159880
    C            1.962662152986    -0.150169092959    -0.669359461405
    C            0.550490456331    -0.464541631418    -0.255137100057
    O            2.353503411529     0.884235528838    -1.087882882754
    C           -0.407620180671     0.707012114235    -0.429470367307
    H            0.231380920379    -1.322475591818    -0.838514151863
    H            0.595202507675    -0.805200772202     0.772510995570
    C           -1.859637031296     0.371766476516    -0.086381832260
    H           -0.354234505023     1.048280340120    -1.455961079564
    H           -0.069566148885     1.538963791073     0.178363012943
    C           -2.128908600573     0.105470961099     1.393770757309
    H           -2.182961663404    -0.486191298335    -0.671882389636
    H           -2.481149796870     1.203433258214    -0.404621983764
    C           -3.605381985164    -0.137114403117     1.689957207557
    H           -1.557471118634    -0.753761494449     1.730290219867
    H           -1.779028902662     0.952954607069     1.977018380227
    H           -3.768758183292    -0.322843486632     2.745158208376
    H           -3.978441691237    -0.995712458116     1.141607486538
    H           -4.206767236272     0.720357247054     1.407658928919

  Mulliken Charges: (a.u.)
   Center  Symbol    Alpha    Beta     Spin     Total
       1     H     0.38237  0.38237  0.00000  0.23525
       2     O     4.16027  4.16027  0.00000 -0.32055
       3     C     2.80337  2.80337  0.00000  0.39327
       4     C     3.11157  3.11157  0.00000 -0.22314
       5     O     4.19131  4.19131  0.00000 -0.38263
       6     C     3.09280  3.09280  0.00000 -0.18561
       7     H     0.43781  0.43781  0.00000  0.12438
       8     H     0.43735  0.43735  0.00000  0.12530
       9     C     3.09940  3.09940  0.00000 -0.19880
      10     H     0.43939  0.43939  0.00000  0.12122
      11     H     0.44566  0.44566  0.00000  0.10868
      12     C     3.08633  3.08633  0.00000 -0.17265
      13     H     0.45418  0.45418  0.00000  0.09165
      14     H     0.44542  0.44542  0.00000  0.10916
      15     C     3.14960  3.14960  0.00000 -0.29919
      16     H     0.45453  0.45453  0.00000  0.09093
      17     H     0.45248  0.45248  0.00000  0.09504
      18     H     0.44771  0.44771  0.00000  0.10458
      19     H     0.45482  0.45482  0.00000  0.09036
      20     H     0.45363  0.45363  0.00000  0.09275

   Total alpha = 32.00000, Total beta = 32.00000, Total charge = -0.00000

*** Psi4 exiting successfully. Buy a developer a beer!
