  ==> Input File <==

--------------------------------------------------------------------------
set {
	reference rhf
	basis cc-pvtz
}

set_num_threads( 4 )
memory 2 gb

molecule MOL {
0 1

H	 2.342730	 0.877684	 -1.045694
C	 2.360424	 0.000000	 -0.411793
C	 1.173749	 0.000000	 0.526870
H	 3.286567	 0.000000	 0.151574
H	 2.342730	 -0.877684	 -1.045694
O	 -0.000000	 0.000000	 -0.223739
H	 1.203779	 0.876757	 1.172538
H	 1.203779	 -0.876757	 1.172538
C	 -1.173749	 0.000000	 0.526870
C	 -2.250054	 -0.737553	 -0.239204
H	 -1.488118	 1.023351	 0.727908
H	 -1.000902	 -0.478974	 1.489782
H	 -2.435746	 -0.256100	 -1.191146
H	 -3.174318	 -0.750109	 0.327101
H	 -1.948015	 -1.760014	 -0.428467

	symmetry c1
}
set optking {
	frozen_dihedral = ("
		11 9 6 3
	")
}

ee = optimize('scf')
oeprop('DIPOLE', 'QUADRUPOLE', 'MULLIKEN_CHARGES')
f=open( 'psi4out.xyz', 'w' )
f.write( "15  " )
f.write( str(ee) + "\n" )
f.write( MOL.save_string_xyz() )
f.close()
--------------------------------------------------------------------------

    Molecular point group: c1
  Charge       = 0
  Multiplicity = 1
  Basis Set: CC-PVTZ
  Basis Set:
  @DF-RHF Final Energy:  -232.23160764848768
    Total Energy =                       -232.2316076484872838
    Molecular point group: c1
  Basis Set: CC-PVTZ
  Basis Set:
  Basis Set: CC-PVTZ
  Basis Set:
  @DF-RHF Final Energy:  -232.23171954657926
    Total Energy =                       -232.2317195465790860
  Basis Set: CC-PVTZ
  Basis Set:
  Basis Set: CC-PVTZ
  Basis Set:
  @DF-RHF Final Energy:  -232.23175045304407
    Total Energy =                       -232.2317504530443557
  Basis Set: CC-PVTZ
  Basis Set:
  Charge       = 0
  Multiplicity = 1
  Basis Set: CC-PVTZ
  Basis Set:

    Orbital Energies (a.u.)
    -----------------------

    Doubly Occupied:

       1A    -20.543944     2A    -11.266645     3A    -11.265967
       4A    -11.207066     5A    -11.206853     6A     -1.379173
       7A     -1.044693     8A     -0.983404     9A     -0.848444
      10A     -0.825181    11A     -0.676821    12A     -0.667541
      13A     -0.618882    14A     -0.588848    15A     -0.549777
      16A     -0.533530    17A     -0.522592    18A     -0.496214
      19A     -0.487167    20A     -0.466066    21A     -0.410705

  @DF-RHF Final Energy:  -232.23175087643801

   => Energetics <=

    Nuclear Repulsion Energy =            191.3063980442138927
    One-Electron Energy =                -693.8972747718905794
    Two-Electron Energy =                 270.3591258512387299
    DFT Exchange-Correlation Energy =       0.0000000000000000
    Empirical Dispersion Energy =           0.0000000000000000
    PCM Polarization Energy =               0.0000000000000000
    EFP Energy =                            0.0000000000000000
    Total Energy =                       -232.2317508764379568
    Molecular point group: c1
  Basis Set: CC-PVTZ
  Basis Set:

  -Total Gradient:
     Atom            X                  Y                   Z
    ------   -----------------  -----------------  -----------------
       1       -0.000008094430    -0.000006617821     0.000010692741
       2        0.000005570512    -0.000009285814     0.000001429725
       3        0.000030093030    -0.002328330292     0.000018363043
       4        0.000021316522    -0.000002955326    -0.000000780561
       5        0.000002444839     0.000004222230    -0.000000873525
       6       -0.000469362061     0.003382304604    -0.000648361567
       7       -0.000009236017    -0.000008043356    -0.000005214148
       8       -0.000013748220     0.000004557159    -0.000009173729
       9        0.001995055605    -0.001017107717     0.003078489663
      10       -0.000000586266     0.000031538212     0.000006659336
      11       -0.001534827214    -0.000042680809    -0.002458712322
      12       -0.000007146175    -0.000003965600     0.000010037001
      13       -0.000010424763    -0.000008896232    -0.000008379737
      14       -0.000012112730     0.000000780867     0.000000926865
      15        0.000011057367     0.000004479896     0.000004897214

  **** Optimization is complete! (in 4 steps) ****
    Final optimized geometry and variables:
    Molecular point group: c1

    Geometry (in Angstrom), charge = 0, multiplicity = 1:

    H            2.310111579983     1.041328712634    -1.087824552212
    C            2.338342324830     0.161557393481    -0.457164992719
    C            1.161588699432     0.152197275258     0.493759165954
    H            3.270409703838     0.163820011140     0.096673298897
    H            2.317695282284    -0.713955974882    -1.094157001657
    O           -0.019058251755     0.138583009880    -0.246978064354
    H            1.194241776694     1.029953694864     1.138336223092
    H            1.205212943005    -0.723732104813     1.138872300186
    C           -1.200559530860     0.140630278240     0.497176377443
    C           -2.280886056592    -0.583198008635    -0.280476733487
    H           -1.515137418643     1.165953644992     0.681327368052
    H           -1.045857587715    -0.340731242763     1.459399619970
    H           -2.427626356973    -0.115118124128    -1.245988475870
    H           -3.220176309931    -0.554989908053     0.260879656598
    H           -2.006508256191    -1.618186585643    -0.443723416130

  Mulliken Charges: (a.u.)
   Center  Symbol    Alpha    Beta     Spin     Total
       1     H     0.45144  0.45144  0.00000  0.09711
       2     C     3.13631  3.13631  0.00000 -0.27263
       3     C     2.96553  2.96553  0.00000  0.06893
       4     H     0.45909  0.45909  0.00000  0.08182
       5     H     0.45170  0.45170  0.00000  0.09661
       6     O     4.18152  4.18152  0.00000 -0.36305
       7     H     0.47367  0.47367  0.00000  0.05266
       8     H     0.47318  0.47318  0.00000  0.05365
       9     C     2.96964  2.96964  0.00000  0.06072
      10     C     3.13433  3.13433  0.00000 -0.26866
      11     H     0.46598  0.46598  0.00000  0.06803
      12     H     0.47347  0.47347  0.00000  0.05307
      13     H     0.45081  0.45081  0.00000  0.09838
      14     H     0.45936  0.45936  0.00000  0.08129
      15     H     0.45397  0.45397  0.00000  0.09206

   Total alpha = 21.00000, Total beta = 21.00000, Total charge = -0.00000
