                              Psi4 1.0.54 Driver

  ==> Input File <==

--------------------------------------------------------------------------
set {
	reference rhf
	basis cc-pvtz
}

set_num_threads( 4 )
memory 2 gb

molecule MOL {
0 1

H	 -0.046668	 -0.721224	 -1.849461
C	 -0.588582	 -1.199364	 -1.036691
O	 -1.401606	 -0.295183	 -0.366624
H	 -1.221929	 -1.971642	 -1.448210
H	 0.134184	 -1.660682	 -0.366110
C	 -0.718530	 0.758693	 0.228682
C	 0.718529	 0.758687	 -0.228709
H	 -1.176498	 1.708665	 -0.046615
H	 -0.748705	 0.673525	 1.312779
O	 1.401606	 -0.295166	 0.366636
H	 0.748705	 0.673477	 -1.312803
H	 1.176496	 1.708671	 0.046552
C	 2.714315	 -0.441627	 -0.061017
H	 2.765292	 -0.641548	 -1.128869
H	 3.305661	 0.447341	 0.150952
H	 3.143725	 -1.278506	 0.470147

	symmetry c1
}
set optking {
	frozen_dihedral = ("
		2 3 6 7
	")
}

ee,wfn = optimize('scf', return_wfn=True)
oeprop( wfn, 'DIPOLE', 'QUADRUPOLE', 'MULLIKEN_CHARGES')
f=open( 'psi4out.xyz', 'w' )
f.write( "16  " )
f.write( str(ee) + "\n" )
f.write( MOL.save_string_xyz() )
f.close()
--------------------------------------------------------------------------

    Molecular point group: c1
  Charge       = 0
  Multiplicity = 1
  Basis Set: CC-PVTZ
  Basis Set:
  @DF-RHF Final Energy:  -307.06805352695216
    Total Energy =                       -307.0680535269520988
    Molecular point group: c1
  Basis Set: CC-PVTZ
  Basis Set:
  Basis Set: CC-PVTZ
  Basis Set:
  @DF-RHF Final Energy:  -307.02359518309333
    Total Energy =                       -307.0235951830932208
  Basis Set: CC-PVTZ
  Basis Set:
  Basis Set: CC-PVTZ
  Basis Set:
  @DF-RHF Final Energy:  -307.08081410012090
    Total Energy =                       -307.0808141001210743
  Basis Set: CC-PVTZ
  Basis Set:
  Basis Set: CC-PVTZ
  Basis Set:
  @DF-RHF Final Energy:  -307.08716468967629
    Total Energy =                       -307.0871646896762286
  Basis Set: CC-PVTZ
  Basis Set:
  @DF-RHF Final Energy:  -307.08798939169793
    Total Energy =                       -307.0879893916978176
  @DF-RHF Final Energy:  -307.08845284548357
    Total Energy =                       -307.0884528454835731
  Basis Set: CC-PVTZ
  Basis Set:
  @DF-RHF Final Energy:  -307.08866550486732
    Total Energy =                       -307.0886655048674925
  Basis Set: CC-PVTZ
  Basis Set:
  Basis Set: CC-PVTZ
  Basis Set:
  @DF-RHF Final Energy:  -307.08871789082514
    Total Energy =                       -307.0887178908251371
  Basis Set: CC-PVTZ
  Basis Set:
  Basis Set: CC-PVTZ
  Basis Set:
  @DF-RHF Final Energy:  -307.08872330314642
    Total Energy =                       -307.0887233031465939
  Basis Set: CC-PVTZ
  Basis Set:
  Charge       = 0
  Multiplicity = 1
  Basis Set: CC-PVTZ
  Basis Set:

    Orbital Energies (a.u.)
    -----------------------

    Doubly Occupied:

       1A    -20.557836     2A    -20.539370     3A    -11.275163
       4A    -11.269864     5A    -11.266910     6A    -11.254025
       7A     -1.395045     8A     -1.365656     9A     -1.031132
      10A     -0.951776    11A     -0.897880    12A     -0.811950
      13A     -0.695521    14A     -0.683707    15A     -0.657739
      16A     -0.636935    17A     -0.627314    18A     -0.591971
      19A     -0.558051    20A     -0.547509    21A     -0.517351
      22A     -0.494257    23A     -0.448042    24A     -0.427004
      25A     -0.405561

  @DF-RHF Final Energy:  -307.08872406711453

   => Energetics <=

    Nuclear Repulsion Energy =            264.6256986979979047
    One-Electron Energy =                -943.6137060513656252
    Two-Electron Energy =                 371.8992832862530236
    DFT Exchange-Correlation Energy =       0.0000000000000000
    Empirical Dispersion Energy =           0.0000000000000000
    PCM Polarization Energy =               0.0000000000000000
    EFP Energy =                            0.0000000000000000
    Total Energy =                       -307.0887240671146969
    Molecular point group: c1
  Basis Set: CC-PVTZ
  Basis Set:

  -Total Gradient:
     Atom            X                  Y                   Z
    ------   -----------------  -----------------  -----------------
       1       -0.000015219695    -0.000027208212     0.000038768112
       2       -0.000470984604     0.001154900241    -0.001024201440
       3        0.001070148964    -0.002332170732     0.001845762396
       4        0.000015890057     0.000010933043    -0.000001666291
       5       -0.000014666158     0.000010959023     0.000005882293
       6       -0.001193265217     0.002228805092    -0.001595689647
       7        0.000645256722    -0.001115795737     0.000761479368
       8        0.000006314958     0.000004305371    -0.000002709696
       9        0.000013037155     0.000007956287     0.000012139501
      10       -0.000042866830     0.000021023730    -0.000036916788
      11       -0.000017581125     0.000021673255    -0.000026872934
      12        0.000016547174     0.000011950819     0.000002603736
      13       -0.000012439573     0.000063503197     0.000019568193
      14        0.000000899050    -0.000012820693     0.000020887786
      15       -0.000006700685    -0.000030304112    -0.000016799610
      16        0.000005629808    -0.000017710571    -0.000002234975

  **** Optimization is complete! (in 10 steps) ****
    Final optimized geometry and variables:
    Molecular point group: c1

    Geometry (in Angstrom), charge = 0, multiplicity = 1:

    H           -0.915636477767    -0.446162272897    -1.884899509893
    C           -1.237943229726    -1.115208294409    -1.093069462577
    O           -1.802265778569    -0.432035995526    -0.017031528124
    H           -2.016481660723    -1.750933767849    -1.489921138878
    H           -0.398375522100    -1.729150040474    -0.793425391397
    C           -1.066805111604     0.501505700773     0.723387381985
    C            0.287584833202     0.933672680063     0.201260969771
    H           -1.680894904284     1.391750854716     0.808831672054
    H           -0.919613334012     0.105670889504     1.723299938242
    O            1.221206227172    -0.088260038548     0.346431911819
    H            0.228769184340     1.254232901521    -0.836702376636
    H            0.590303291937     1.801111043971     0.786781236036
    C            2.502300842160     0.240605947543    -0.080552442799
    H            2.518718689382     0.487160074287    -1.139832442349
    H            2.901377173944     1.086040732165     0.475439035278
    H            3.137223180094    -0.616927585344     0.087091298059

  Mulliken Charges: (a.u.)
   Center  Symbol    Alpha    Beta     Spin     Total
       1     H     0.47468  0.47468  0.00000  0.05064
       2     C     3.03500  3.03500  0.00000 -0.07000
       3     O     4.18401  4.18401  0.00000 -0.36802
       4     H     0.44410  0.44410  0.00000  0.11179
       5     H     0.46073  0.46073  0.00000  0.07853
       6     C     2.95413  2.95413  0.00000  0.09174
       7     C     3.00334  3.00334  0.00000 -0.00668
       8     H     0.46513  0.46513  0.00000  0.06975
       9     H     0.46525  0.46525  0.00000  0.06951
      10     O     4.17558  4.17558  0.00000 -0.35117
      11     H     0.46289  0.46289  0.00000  0.07423
      12     H     0.45704  0.45704  0.00000  0.08592
      13     C     3.03599  3.03599  0.00000 -0.07198
      14     H     0.46992  0.46992  0.00000  0.06015
      15     H     0.46748  0.46748  0.00000  0.06504
      16     H     0.44472  0.44472  0.00000  0.11056

   Total alpha = 25.00000, Total beta = 25.00000, Total charge = -0.00000

*** Psi4 exiting successfully. Buy a developer a beer!
