                              Psi4 1.0.54 Driver

  ==> Input File <==

--------------------------------------------------------------------------
set {
	reference rhf
	basis cc-pvtz
}

set_num_threads( 4 )
memory 2 gb

molecule MOL {
0 1

H	 -2.431790	 -0.312281	 0.891192
O	 -2.313989	 -0.142475	 -0.025864
C	 -0.943808	 -0.065018	 -0.330000
H	 -0.812293	 -0.225641	 -1.398673
C	 -0.231030	 -1.182113	 0.407592
C	 -0.353797	 1.300461	 0.050970
H	 -0.312800	 -0.992012	 1.473041
H	 -0.738841	 -2.119564	 0.220514
C	 1.246176	 -1.268044	 -0.015480
H	 -0.539537	 2.008579	 -0.751815
H	 -0.889989	 1.662858	 0.920677
C	 1.153605	 1.231851	 0.356834
H	 1.823096	 -1.684665	 0.802361
H	 1.352335	 -1.958223	 -0.845114
C	 1.826409	 0.100723	 -0.416008
H	 1.622968	 2.181508	 0.128734
H	 1.301983	 1.066493	 1.419367
H	 2.897299	 0.112407	 -0.249665
H	 1.683458	 0.265621	 -1.480024

	symmetry c1
}
set optking {
	frozen_dihedral = ("
		1 2 3 4
	")
}

ee,wfn = optimize('scf', return_wfn=True)
oeprop( wfn, 'DIPOLE', 'QUADRUPOLE', 'MULLIKEN_CHARGES')
f=open( 'psi4out.xyz', 'w' )
f.write( "19  " )
f.write( str(ee) + "\n" )
f.write( MOL.save_string_xyz() )
f.close()
--------------------------------------------------------------------------

    Molecular point group: c1
  Charge       = 0
  Multiplicity = 1
  Basis Set: CC-PVTZ
  Basis Set:
  @DF-RHF Final Energy:  -309.16106991409805
    Total Energy =                       -309.1610699140981069
    Molecular point group: c1
  Basis Set: CC-PVTZ
  Basis Set:
  Basis Set: CC-PVTZ
  Basis Set:
  @DF-RHF Final Energy:  -309.16246961956881
    Total Energy =                       -309.1624696195689808
  Basis Set: CC-PVTZ
  Basis Set:
  Basis Set: CC-PVTZ
  Basis Set:
  @DF-RHF Final Energy:  -309.16282117716526
    Total Energy =                       -309.1628211771653696
  Basis Set: CC-PVTZ
  Basis Set:
  Basis Set: CC-PVTZ
  Basis Set:
  @DF-RHF Final Energy:  -309.16282565572106
    Total Energy =                       -309.1628256557208942
  Basis Set: CC-PVTZ
  Basis Set:
  Charge       = 0
  Multiplicity = 1
  Basis Set: CC-PVTZ
  Basis Set:

    Orbital Energies (a.u.)
    -----------------------

    Doubly Occupied:

       1A    -20.542464     2A    -11.267265     3A    -11.217795
       4A    -11.215451     5A    -11.214875     6A    -11.214810
       7A    -11.209888     8A     -1.362893     9A     -1.111535
      10A     -1.005305    11A     -0.989714    12A     -0.850528
      13A     -0.838395    14A     -0.752619    15A     -0.672972
      16A     -0.668158    17A     -0.621777    18A     -0.595297
      19A     -0.582696    20A     -0.562022    21A     -0.532931
      22A     -0.521459    23A     -0.502280    24A     -0.493608
      25A     -0.465634    26A     -0.450485    27A     -0.431727
      28A     -0.410472

  @DF-RHF Final Energy:  -309.16282612759630

   => Energetics <=

    Nuclear Repulsion Energy =            331.8196605432658544
    One-Electron Energy =               -1077.3548659645884982
    Two-Electron Energy =                 436.3723792937263397
    DFT Exchange-Correlation Energy =       0.0000000000000000
    Empirical Dispersion Energy =           0.0000000000000000
    PCM Polarization Energy =               0.0000000000000000
    EFP Energy =                            0.0000000000000000
    Total Energy =                       -309.1628261275963041
    Molecular point group: c1
  Basis Set: CC-PVTZ
  Basis Set:

  -Total Gradient:
     Atom            X                  Y                   Z
    ------   -----------------  -----------------  -----------------
       1       -0.000018908339    -0.001500369177    -0.000285202438
       2        0.000035484348     0.001577734811     0.000378132353
       3       -0.000074665080     0.001168949861    -0.000271479905
       4        0.000061295328    -0.001270099414     0.000216866920
       5       -0.000013208781    -0.000007290099    -0.000021048166
       6        0.000039020222    -0.000011818401     0.000010173381
       7       -0.000001091982    -0.000003066005    -0.000021999021
       8       -0.000001123392    -0.000007788219     0.000010337356
       9       -0.000020298831    -0.000014442148     0.000050699571
      10        0.000015688236     0.000023002918    -0.000007678757
      11        0.000008487452    -0.000009675247    -0.000009576718
      12       -0.000013756381     0.000033757605    -0.000031952860
      13        0.000014940502    -0.000025585732    -0.000003284464
      14       -0.000012001220     0.000004099012    -0.000001822252
      15       -0.000006082377     0.000023230791    -0.000020857483
      16       -0.000000035171     0.000014846224     0.000015229828
      17       -0.000008959820     0.000000968883    -0.000001445829
      18       -0.000010701394    -0.000003174665     0.000001541034
      19        0.000005916681     0.000006719001    -0.000006632551

  **** Optimization is complete! (in 5 steps) ****
    Final optimized geometry and variables:
    Molecular point group: c1

    Geometry (in Angstrom), charge = 0, multiplicity = 1:

    H           -2.513138428395    -0.217433342108     0.834395130295
    O           -2.339209695898    -0.058054568698    -0.075983169809
    C           -0.952681271681    -0.051964368604    -0.304919681145
    H           -0.851098857203    -0.227566398112    -1.369285065905
    C           -0.236327026793    -1.179059530750     0.424429588605
    C           -0.333822203349     1.305459292733     0.054543823360
    H           -0.287297139088    -0.988381871740     1.495022663664
    H           -0.755770334970    -2.113397785402     0.248840350662
    C            1.233504545978    -1.285471827648    -0.021974983510
    H           -0.539025283652     2.007629727652    -0.745465008103
    H           -0.842729068725     1.687284212788     0.933639035046
    C            1.179534840915     1.218663821733     0.323685027732
    H            1.822319161689    -1.694203821307     0.791411527118
    H            1.315831570772    -1.990186633935    -0.841731806184
    C            1.816504917196     0.071441235616    -0.455699312466
    H            1.656164076170     2.159338779113     0.074660549681
    H            1.356165065933     1.060761604308     1.383596658799
    H            2.891908138825     0.070625786329    -0.321472665293
    H            1.643248955830     0.225441327538    -1.516607443798

  Mulliken Charges: (a.u.)
   Center  Symbol    Alpha    Beta     Spin     Total
       1     H     0.39462  0.39462  0.00000  0.21077
       2     O     4.20852  4.20852  0.00000 -0.41704
       3     C     2.93480  2.93480  0.00000  0.13039
       4     H     0.44329  0.44329  0.00000  0.11343
       5     C     3.11086  3.11086  0.00000 -0.22172
       6     C     3.10845  3.10845  0.00000 -0.21689
       7     H     0.45964  0.45964  0.00000  0.08072
       8     H     0.43920  0.43920  0.00000  0.12160
       9     C     3.11255  3.11255  0.00000 -0.22510
      10     H     0.44702  0.44702  0.00000  0.10596
      11     H     0.45242  0.45242  0.00000  0.09515
      12     C     3.10105  3.10105  0.00000 -0.20209
      13     H     0.44759  0.44759  0.00000  0.10483
      14     H     0.44555  0.44555  0.00000  0.10891
      15     C     3.10207  3.10207  0.00000 -0.20413
      16     H     0.44189  0.44189  0.00000  0.11623
      17     H     0.45476  0.45476  0.00000  0.09049
      18     H     0.44273  0.44273  0.00000  0.11454
      19     H     0.45302  0.45302  0.00000  0.09397

   Total alpha = 28.00000, Total beta = 28.00000, Total charge = -0.00000

*** Psi4 exiting successfully. Buy a developer a beer!
