  ==> Input File <==

--------------------------------------------------------------------------
set {
	reference rhf
	basis 6-31G*
}

set_num_threads( 4 )
memory 2 gb

molecule MOL {
0 1

O	 2.846782	 -1.231332	 -1.843427
C	 2.498453	 -1.118115	 -0.712538
C	 1.068423	 -1.036922	 -0.235874
O	 3.347903	 -1.046386	 0.304773
C	 0.051483	 -1.127835	 -1.371516
H	 0.931840	 -1.825587	 0.496618
H	 0.962483	 -0.102993	 0.310250
C	 -1.400030	 -0.941901	 -0.916505
H	 0.159752	 -2.084268	 -1.874142
H	 0.291280	 -0.372085	 -2.111625
C	 -1.938405	 -2.050398	 -0.007387
H	 -2.026476	 -0.885408	 -1.803691
H	 -1.502178	 0.018781	 -0.413848
C	 -3.420862	 -1.876518	 0.328896
H	 -1.790432	 -3.014116	 -0.492331
H	 -1.369875	 -2.084190	 0.919222
C	 -3.968428	 -2.975678	 1.241119
H	 -3.998867	 -1.855098	 -0.593430
H	 -3.571152	 -0.908415	 0.804174
C	 -5.450378	 -2.796769	 1.569017
H	 -3.818144	 -3.943848	 0.768146
H	 -3.394737	 -2.995769	 2.165378
H	 -5.808981	 -3.590726	 2.216816
H	 -6.055541	 -2.807398	 0.666876
H	 -5.628846	 -1.851727	 2.074309
C	 4.728119	 -1.109107	 -0.004993
H	 4.882018	 -1.033965	 -1.071845
H	 5.068212	 -2.067527	 0.355250
H	 5.265056	 -0.311663	 0.488280

	symmetry c1
}
set optking {
	frozen_dihedral = ("
		2 4 26 27
	")
}

ee = optimize('scf')
oeprop('DIPOLE', 'QUADRUPOLE', 'MULLIKEN_CHARGES')
f=open( 'psi4out.xyz', 'w' )
f.write( "29  " )
f.write( str(ee) + "\n" )
f.write( MOL.save_string_xyz() )
f.close()
--------------------------------------------------------------------------

    Molecular point group: c1
  Charge       = 0
  Multiplicity = 1
  Basis Set: 6-31G*
  Basis Set:
  @DF-RHF Final Energy:  -501.04090918808470
    Total Energy =                       -501.0409091880844699
    Molecular point group: c1
  Basis Set: 6-31G*
  Basis Set:
  Basis Set: 6-31G*
  Basis Set:
  @DF-RHF Final Energy:  -501.04152518893784
    Total Energy =                       -501.0415251889374986
  Basis Set: 6-31G*
  Basis Set:
  Basis Set: 6-31G*
  Basis Set:
  @DF-RHF Final Energy:  -501.04184841209906
    Total Energy =                       -501.0418484120989433
  Basis Set: 6-31G*
  Basis Set:
  Basis Set: 6-31G*
  Basis Set:
  @DF-RHF Final Energy:  -501.04197405311572
    Total Energy =                       -501.0419740531164052
  Basis Set: 6-31G*
  Basis Set:
  Basis Set: 6-31G*
  Basis Set:
  @DF-RHF Final Energy:  -501.04208202283996
    Total Energy =                       -501.0420820228395087
  Basis Set: 6-31G*
  Basis Set:
  Basis Set: 6-31G*
  Basis Set:
  @DF-RHF Final Energy:  -501.04209470772366
    Total Energy =                       -501.0420947077226401
  Basis Set: 6-31G*
  Basis Set:
  Basis Set: 6-31G*
  Basis Set:
  @DF-RHF Final Energy:  -501.04209286266837
    Total Energy =                       -501.0420928626693922
  Basis Set: 6-31G*
  Basis Set:
  Charge       = 0
  Multiplicity = 1
  Basis Set: 6-31G*
  Basis Set:

    Orbital Energies (a.u.)
    -----------------------

    Doubly Occupied:

       1A    -20.602307     2A    -20.544483     3A    -11.373431
       4A    -11.279195     5A    -11.234097     6A    -11.218557
       7A    -11.217295     8A    -11.215765     9A    -11.215649
      10A    -11.214253    11A    -11.208940    12A     -1.466285
      13A     -1.363000    14A     -1.097700    15A     -1.066504
      16A     -1.019558    17A     -0.977801    18A     -0.928422
      19A     -0.861258    20A     -0.798914    21A     -0.790173
      22A     -0.762876    23A     -0.701662    24A     -0.680040
      25A     -0.672093    26A     -0.650679    27A     -0.628777
      28A     -0.605038    29A     -0.594661    30A     -0.580610
      31A     -0.568397    32A     -0.550056    33A     -0.533683
      34A     -0.527431    35A     -0.514494    36A     -0.511769
      37A     -0.496149    38A     -0.477549    39A     -0.469885
      40A     -0.462098    41A     -0.458298    42A     -0.452393
      43A     -0.440799    44A     -0.435413

  @DF-RHF Final Energy:  -501.04209490398182

   => Energetics <=

    Nuclear Repulsion Energy =            609.7085459713626960
    One-Electron Energy =               -1890.5644087752370979
    Two-Electron Energy =                 779.8137678998926958
    DFT Exchange-Correlation Energy =       0.0000000000000000
    Empirical Dispersion Energy =           0.0000000000000000
    PCM Polarization Energy =               0.0000000000000000
    EFP Energy =                            0.0000000000000000
    Total Energy =                       -501.0420949039818197
    Molecular point group: c1
  Basis Set: 6-31G*
  Basis Set:

  -Total Gradient:
     Atom            X                  Y                   Z
    ------   -----------------  -----------------  -----------------
       1        0.000004439121     0.000003483353     0.000013204546
       2       -0.000005448932     0.000623309833    -0.000068888485
       3       -0.000007219403     0.000004723897     0.000000677914
       4        0.000007448951    -0.001137096956     0.000046463763
       5       -0.000000804702     0.000001615163     0.000000437330
       6       -0.000001526289     0.000000137957     0.000000799266
       7       -0.000005574808    -0.000000822333     0.000001544092
       8        0.000000626727     0.000002198761     0.000001836806
       9        0.000001570077     0.000001310962     0.000001671935
      10        0.000000200966    -0.000000519782     0.000000506110
      11       -0.000000248989    -0.000000183007    -0.000000294833
      12        0.000001233731    -0.000000716642     0.000000096449
      13       -0.000001348691     0.000000578315    -0.000000260407
      14       -0.000000058932    -0.000000497567     0.000000361470
      15       -0.000000600072    -0.000000014919    -0.000000141293
      16        0.000000542309    -0.000000297014    -0.000000161024
      17       -0.000000154339     0.000000254988     0.000000165173
      18        0.000000128200    -0.000000467537    -0.000000067112
      19       -0.000000107442     0.000000111883    -0.000000306796
      20        0.000000108558     0.000000133035     0.000000365663
      21       -0.000000158583     0.000000111521    -0.000000161621
      22        0.000000151670    -0.000000174137     0.000000004209
      23       -0.000000054950    -0.000000000264     0.000000128601
      24        0.000000071607    -0.000000045999    -0.000000030269
      25       -0.000000091446     0.000000063062    -0.000000005732
      26        0.000048009193     0.001237255797     0.000050697630
      27       -0.000031969080    -0.000738283804    -0.000064901665
      28       -0.000009983391     0.000000614397     0.000003649401
      29        0.000000818921     0.000003217036     0.000012608883

  **** Optimization is complete! (in 8 steps) ****
    Final optimized geometry and variables:
    Molecular point group: c1

    Geometry (in Angstrom), charge = 0, multiplicity = 1:

    O            2.934683314519     0.336791901658    -1.727990336596
    C            2.601076334398     0.446402170320    -0.592654097828
    C            1.174180944734     0.530950692461    -0.105888569121
    O            3.448661532365     0.510545111076     0.428312515922
    C            0.148498770833     0.449720115248    -1.234263040850
    H            1.039950138217    -0.260856674792     0.623586473211
    H            1.075965359811     1.462345838719     0.445871568658
    C           -1.298828800816     0.638258514457    -0.767074105679
    H            0.249489868526    -0.504313801905    -1.742889234044
    H            0.385187984042     1.208655923384    -1.972080833281
    C           -1.834339547103    -0.473508698844     0.139766833356
    H           -1.931864771617     0.702086000164    -1.649081093445
    H           -1.393705250078     1.596385997227    -0.258130030692
    C           -3.313579224538    -0.296283227418     0.488274269094
    H           -1.693527960713    -1.434944770377    -0.351787999040
    H           -1.258946409829    -0.514662345338     1.061818286736
    C           -3.858111530112    -1.398462305509     1.398660122838
    H           -3.898506018444    -0.267794623432    -0.429485527076
    H           -3.456816793025     0.669733575750     0.969930801217
    C           -5.336741854332    -1.215842035512     1.739276542744
    H           -3.715239794928    -2.364531000793     0.919140177328
    H           -3.277225730626    -1.425877881871     2.318225295654
    H           -5.693195815989    -2.011988069706     2.385583616523
    H           -5.949058686772    -1.219288357005     0.841919136803
    H           -5.507652104838    -0.272912231131     2.251086855974
    C            4.843237774096     0.464880484307     0.178147131456
    H            5.048391167440     0.553736392617    -0.875308352291
    H            5.227279413434    -0.475959692286     0.548615728963
    H            5.295929804561     1.279386393925     0.724802216211

  Mulliken Charges: (a.u.)
   Center  Symbol    Alpha    Beta     Spin     Total
       1     O     4.28542  4.28542  0.00000 -0.57083
       2     C     2.60447  2.60447  0.00000  0.79106
       3     C     3.21021  3.21021  0.00000 -0.42041
       4     O     4.30957  4.30957  0.00000 -0.61914
       5     C     3.15375  3.15375  0.00000 -0.30749
       6     H     0.39884  0.39884  0.00000  0.20232
       7     H     0.40144  0.40144  0.00000  0.19713
       8     C     3.15659  3.15659  0.00000 -0.31318
       9     H     0.41314  0.41314  0.00000  0.17372
      10     H     0.40887  0.40887  0.00000  0.18226
      11     C     3.15503  3.15503  0.00000 -0.31007
      12     H     0.41832  0.41832  0.00000  0.16335
      13     H     0.42394  0.42394  0.00000  0.15212
      14     C     3.15028  3.15028  0.00000 -0.30056
      15     H     0.42263  0.42263  0.00000  0.15473
      16     H     0.42360  0.42360  0.00000  0.15280
      17     C     3.15145  3.15145  0.00000 -0.30289
      18     H     0.42335  0.42335  0.00000  0.15331
      19     H     0.42400  0.42400  0.00000  0.15199
      20     C     3.23934  3.23934  0.00000 -0.47868
      21     H     0.42281  0.42281  0.00000  0.15438
      22     H     0.42344  0.42344  0.00000  0.15311
      23     H     0.41926  0.41926  0.00000  0.16149
      24     H     0.42156  0.42156  0.00000  0.15688
      25     H     0.42184  0.42184  0.00000  0.15631
      26     C     3.09832  3.09832  0.00000 -0.19665
      27     H     0.39399  0.39399  0.00000  0.21202
      28     H     0.41307  0.41307  0.00000  0.17385
      29     H     0.41147  0.41147  0.00000  0.17707

   Total alpha = 44.00000, Total beta = 44.00000, Total charge =  0.00000
