  ==> Input File <==

--------------------------------------------------------------------------
set {
	reference rhf
	basis 6-31G*
}

set_num_threads( 4 )
memory 2 gb

molecule MOL {
0 1

H	 2.163406	 -1.302519	 -0.318445
N	 2.434251	 -0.367735	 -0.081097
C	 1.267428	 0.496480	 0.024474
H	 3.042734	 -0.048540	 -0.811014
C	 -0.016086	 -0.325158	 -0.029487
H	 1.288818	 1.183521	 -0.816092
H	 1.267576	 1.109062	 0.929528
C	 -1.282277	 0.529072	 0.046735
H	 -0.012495	 -0.908639	 -0.945788
H	 -0.015903	 -1.041248	 0.791956
C	 -2.563920	 -0.301775	 -0.006060
H	 -1.284084	 1.244622	 -0.773004
H	 -1.271387	 1.115393	 0.963286
H	 -2.621848	 -0.873522	 -0.927727
H	 -3.445135	 0.329952	 0.047812
H	 -2.609542	 -1.004582	 0.821105

	symmetry c1
}
set optking {
	frozen_dihedral = ("
		1 2 3 6
	")
}

ee = optimize('scf')
oeprop('DIPOLE', 'QUADRUPOLE', 'MULLIKEN_CHARGES')
f=open( 'psi4out.xyz', 'w' )
f.write( "16  " )
f.write( str(ee) + "\n" )
f.write( MOL.save_string_xyz() )
f.close()
--------------------------------------------------------------------------

    Molecular point group: c1
  Charge       = 0
  Multiplicity = 1
  Basis Set: 6-31G*
  Basis Set:
  @DF-RHF Final Energy:  -212.31133876185862
    Total Energy =                       -212.3113387618585648
    Molecular point group: c1
  Basis Set: 6-31G*
  Basis Set:
  Basis Set: 6-31G*
  Basis Set:
  @DF-RHF Final Energy:  -212.31273683600992
    Total Energy =                       -212.3127368360098330
  Basis Set: 6-31G*
  Basis Set:
  Basis Set: 6-31G*
  Basis Set:
  @DF-RHF Final Energy:  -212.31295257665005
    Total Energy =                       -212.3129525766501047
  Basis Set: 6-31G*
  Basis Set:
  Basis Set: 6-31G*
  Basis Set:
  @DF-RHF Final Energy:  -212.31295818647797
    Total Energy =                       -212.3129581864780562
  Basis Set: 6-31G*
  Basis Set:
  Basis Set: 6-31G*
  Basis Set:
  @DF-RHF Final Energy:  -212.31295932903535
    Total Energy =                       -212.3129593290354933
  Basis Set: 6-31G*
  Basis Set:
  Charge       = 0
  Multiplicity = 1
  Basis Set: 6-31G*
  Basis Set:

    Orbital Energies (a.u.)
    -----------------------

    Doubly Occupied:

       1A    -15.528192     2A    -11.239245     3A    -11.218461
       4A    -11.216545     5A    -11.210782     6A     -1.172899
       7A     -1.062562     8A     -0.960481     9A     -0.846642
      10A     -0.798249    11A     -0.659972    12A     -0.642008
      13A     -0.597127    14A     -0.581610    15A     -0.570202
      16A     -0.520273    17A     -0.511858    18A     -0.473404
      19A     -0.471279    20A     -0.463574    21A     -0.373096

  @DF-RHF Final Energy:  -212.31295954357375

   => Energetics <=

    Nuclear Repulsion Energy =            186.2692829949854172
    One-Electron Energy =                -654.9275661196525107
    Two-Electron Energy =                 256.3453235810932256
    DFT Exchange-Correlation Energy =       0.0000000000000000
    Empirical Dispersion Energy =           0.0000000000000000
    PCM Polarization Energy =               0.0000000000000000
    EFP Energy =                            0.0000000000000000
    Total Energy =                       -212.3129595435738679
    Molecular point group: c1
  Basis Set: 6-31G*
  Basis Set:

  -Total Gradient:
     Atom            X                  Y                   Z
    ------   -----------------  -----------------  -----------------
       1       -0.000277276364    -0.000374641488     0.001863123787
       2        0.000544318288     0.000817982986    -0.002081470883
       3       -0.001149378203    -0.001610950627    -0.000801553759
       4       -0.000010907075     0.000004528383     0.000008815124
       5        0.000045765381     0.000000599620    -0.000000684850
       6        0.000870285613     0.001168511832     0.000981505998
       7        0.000007747537     0.000004012000     0.000015932192
       8       -0.000030341432    -0.000003248552     0.000001372289
       9       -0.000009942623     0.000002244236     0.000014424850
      10       -0.000006399373    -0.000000011471     0.000000507808
      11        0.000000640655     0.000002306224    -0.000004585923
      12        0.000012494285    -0.000005593525     0.000000495808
      13       -0.000000913409    -0.000006452494     0.000006891759
      14       -0.000002028835    -0.000002393490    -0.000004164959
      15        0.000004514964     0.000001843393    -0.000001472329
      16        0.000001420593     0.000001262974     0.000000863089

  **** Optimization is complete! (in 6 steps) ****
    Final optimized geometry and variables:
    Molecular point group: c1

    Geometry (in Angstrom), charge = 0, multiplicity = 1:

    H            2.237448568299    -1.298918295423    -0.252646579686
    N            2.460205621958    -0.353367701337    -0.015626171919
    C            1.270633179737     0.494252408451    -0.003923640157
    H            3.148685662242    -0.028699755254    -0.662617993262
    C           -0.018298507836    -0.321480847467    -0.037838480775
    H            1.278579818233     1.196276993094    -0.836544083116
    H            1.280138044782     1.099738799571     0.898987243572
    C           -1.278890174769     0.536372486504     0.077228943654
    H           -0.053072162318    -0.896227165642    -0.962496423977
    H            0.004433796812    -1.043401658227     0.776693606794
    C           -2.565023357282    -0.288269959822     0.039548572634
    H           -1.294551660568     1.265360253605    -0.730210110228
    H           -1.242843719043     1.105841768644     1.002989284691
    H           -2.648015423779    -0.843703458213    -0.890379967377
    H           -3.441249150262     0.346811903171     0.124521522345
    H           -2.595026909924    -1.004540428685     0.855623545102

  Mulliken Charges: (a.u.)
   Center  Symbol    Alpha    Beta     Spin     Total
       1     H     0.33151  0.33151  0.00000  0.33697
       2     N     3.93350  3.93350  0.00000 -0.86700
       3     C     3.04394  3.04394  0.00000 -0.08787
       4     H     0.33139  0.33139  0.00000  0.33723
       5     C     3.16716  3.16716  0.00000 -0.33432
       6     H     0.43062  0.43062  0.00000  0.13875
       7     H     0.42113  0.42113  0.00000  0.15774
       8     C     3.15451  3.15451  0.00000 -0.30902
       9     H     0.42543  0.42543  0.00000  0.14914
      10     H     0.41789  0.41789  0.00000  0.16423
      11     C     3.23924  3.23924  0.00000 -0.47847
      12     H     0.42249  0.42249  0.00000  0.15503
      13     H     0.42015  0.42015  0.00000  0.15971
      14     H     0.42178  0.42178  0.00000  0.15644
      15     H     0.41856  0.41856  0.00000  0.16288
      16     H     0.42072  0.42072  0.00000  0.15857

   Total alpha = 21.00000, Total beta = 21.00000, Total charge =  0.00000
