  ==> Input File <==

--------------------------------------------------------------------------
set {
	reference rhf
	basis cc-pvtz
}

set_num_threads( 4 )
memory 2 gb

molecule MOL {
0 1

H	 3.273419	 0.176595	 -0.102789
N	 2.433987	 -0.362316	 -0.080024
C	 1.263552	 0.494993	 0.021953
H	 2.497638	 -0.973615	 0.707122
C	 -0.016533	 -0.325589	 -0.026925
H	 1.280915	 1.180773	 -0.818522
H	 1.263064	 1.106893	 0.925038
C	 -1.280353	 0.525521	 0.047747
H	 -0.016686	 -0.912532	 -0.939714
H	 -0.014099	 -1.037598	 0.796369
C	 -2.484687	 -0.135216	 -0.614822
H	 -1.094117	 1.486612	 -0.424043
H	 -1.514332	 0.737491	 1.087553
H	 -2.294907	 -0.329838	 -1.664981
H	 -3.364391	 0.494618	 -0.548636
H	 -2.720183	 -1.082922	 -0.141984

	symmetry c1
}
set optking {
	frozen_dihedral = ("
		12 8 5 9
	")
}

ee = optimize('scf')
oeprop('DIPOLE', 'QUADRUPOLE', 'MULLIKEN_CHARGES')
f=open( 'psi4out.xyz', 'w' )
f.write( "16  " )
f.write( str(ee) + "\n" )
f.write( MOL.save_string_xyz() )
f.close()
--------------------------------------------------------------------------

    Molecular point group: c1
  Charge       = 0
  Multiplicity = 1
  Basis Set: CC-PVTZ
  Basis Set:
  @DF-RHF Final Energy:  -212.39815767928479
    Total Energy =                       -212.3981576792847932
    Molecular point group: c1
  Basis Set: CC-PVTZ
  Basis Set:
  Basis Set: CC-PVTZ
  Basis Set:
  @DF-RHF Final Energy:  -212.39839993012814
    Total Energy =                       -212.3983999301278800
  Basis Set: CC-PVTZ
  Basis Set:
  Basis Set: CC-PVTZ
  Basis Set:
  @DF-RHF Final Energy:  -212.39843039592532
    Total Energy =                       -212.3984303959255158
  Basis Set: CC-PVTZ
  Basis Set:
  Charge       = 0
  Multiplicity = 1
  Basis Set: CC-PVTZ
  Basis Set:

    Orbital Energies (a.u.)
    -----------------------

    Doubly Occupied:

       1A    -15.526693     2A    -11.238606     3A    -11.212906
       4A    -11.207808     5A    -11.206106     6A     -1.178535
       7A     -1.059869     8A     -0.960029     9A     -0.845033
      10A     -0.792887    11A     -0.665064    12A     -0.632787
      13A     -0.613209    14A     -0.575399    15A     -0.563487
      16A     -0.529649    17A     -0.498006    18A     -0.473261
      19A     -0.464777    20A     -0.458793    21A     -0.384091

  @DF-RHF Final Energy:  -212.39843122690772

   => Energetics <=

    Nuclear Repulsion Energy =            186.5258251255172297
    One-Electron Energy =                -655.6745254234238018
    Two-Electron Energy =                 256.7502690709987974
    DFT Exchange-Correlation Energy =       0.0000000000000000
    Empirical Dispersion Energy =           0.0000000000000000
    PCM Polarization Energy =               0.0000000000000000
    EFP Energy =                            0.0000000000000000
    Total Energy =                       -212.3984312269077463
    Molecular point group: c1
  Basis Set: CC-PVTZ
  Basis Set:

  -Total Gradient:
     Atom            X                  Y                   Z
    ------   -----------------  -----------------  -----------------
       1        0.000037348381    -0.000009194726     0.000003998634
       2        0.000036769640    -0.000011845991    -0.000022841207
       3       -0.000028573300     0.000021517924     0.000007263705
       4       -0.000004297956     0.000000182404     0.000006565236
       5        0.002480695946     0.003944291131    -0.001449213523
       6       -0.000007868075    -0.000000431058     0.000002475185
       7       -0.000019812035    -0.000018868483    -0.000016148205
       8       -0.001912045960    -0.002465598991    -0.003743189209
       9       -0.001774897174    -0.002860144717     0.001840133859
      10       -0.000001064502    -0.000004902731     0.000006181285
      11       -0.000023424923    -0.000010321060    -0.000012711019
      12        0.001182656504     0.001393238050     0.003344877452
      13        0.000001422694    -0.000006505097     0.000005969617
      14        0.000008866613     0.000012955094     0.000013153038
      15        0.000003593080     0.000008274656     0.000012354879
      16        0.000020631063     0.000007353594     0.000001130272

  **** Optimization is complete! (in 4 steps) ****
    Final optimized geometry and variables:
    Molecular point group: c1

    Geometry (in Angstrom), charge = 0, multiplicity = 1:

    H            3.267409585381     0.133666587875     0.092234864815
    N            2.425249973339    -0.401533929647     0.090692314882
    C            1.255549768031     0.460746723603     0.138256156813
    H            2.457155593961    -1.003626231503     0.886764543014
    C           -0.024935102125    -0.353228547926     0.050011776053
    H            1.306339714296     1.137178794991    -0.708236487426
    H            1.221734632425     1.083316951233     1.033892124356
    C           -1.295241702283     0.495782355479     0.145826634217
    H           -0.024819531632    -0.935511586298    -0.865541225924
    H           -0.031576603635    -1.087549555309     0.853543758288
    C           -2.519923097233    -0.173749768364    -0.465190190657
    H           -1.125504097889     1.464152312972    -0.317492895544
    H           -1.494697504217     0.716355969783     1.191067305132
    H           -2.382424928102    -0.343776511210    -1.527487595913
    H           -3.407064670191     0.435957281810    -0.337610602676
    H           -2.710029142929    -1.135698294717    -0.000311446645

  Mulliken Charges: (a.u.)
   Center  Symbol    Alpha    Beta     Spin     Total
       1     H     0.43019  0.43019  0.00000  0.13962
       2     N     3.68939  3.68939  0.00000 -0.37879
       3     C     3.02619  3.02619  0.00000 -0.05238
       4     H     0.43079  0.43079  0.00000  0.13841
       5     C     3.08074  3.08074  0.00000 -0.16148
       6     H     0.45677  0.45677  0.00000  0.08646
       7     H     0.46816  0.46816  0.00000  0.06369
       8     C     3.08996  3.08996  0.00000 -0.17993
       9     H     0.45050  0.45050  0.00000  0.09901
      10     H     0.45984  0.45984  0.00000  0.08032
      11     C     3.14769  3.14769  0.00000 -0.29537
      12     H     0.45621  0.45621  0.00000  0.08758
      13     H     0.45523  0.45523  0.00000  0.08955
      14     H     0.45429  0.45429  0.00000  0.09143
      15     H     0.44939  0.44939  0.00000  0.10121
      16     H     0.45466  0.45466  0.00000  0.09067

   Total alpha = 21.00000, Total beta = 21.00000, Total charge = -0.00000
