  ==> Input File <==

--------------------------------------------------------------------------
set {
	reference rhf
	basis 6-31G*
}

set_num_threads( 4 )
memory 2 gb

molecule MOL {
0 1

H	 -0.068065	 1.931363	 0.531005
O	 0.055946	 1.300438	 -0.164479
C	 0.004957	 -0.004114	 0.366649
C	 1.201664	 -0.828089	 -0.095740
C	 -1.317755	 -0.601827	 -0.081511
H	 0.013527	 0.048298	 1.454924
H	 1.216388	 -0.895289	 -1.178704
H	 2.135132	 -0.372895	 0.226467
H	 1.166770	 -1.832878	 0.313827
H	 -1.355732	 -0.658248	 -1.164429
H	 -2.141614	 0.017037	 0.254547
H	 -1.447303	 -1.600817	 0.322594

	symmetry c1
}
set optking {
	frozen_dihedral = ("
		1 2 3 4
	")
}

ee = optimize('scf')
oeprop('DIPOLE', 'QUADRUPOLE', 'MULLIKEN_CHARGES')
f=open( 'psi4out.xyz', 'w' )
f.write( "12  " )
f.write( str(ee) + "\n" )
f.write( MOL.save_string_xyz() )
f.close()
--------------------------------------------------------------------------

    Molecular point group: c1
  Charge       = 0
  Multiplicity = 1
  Basis Set: 6-31G*
  Basis Set:
  @DF-RHF Final Energy:  -193.11239464978874
    Total Energy =                       -193.1123946497886550
    Molecular point group: c1
  Basis Set: 6-31G*
  Basis Set:
  Basis Set: 6-31G*
  Basis Set:
  @DF-RHF Final Energy:  -193.11316951434833
    Total Energy =                       -193.1131695143483000
  Basis Set: 6-31G*
  Basis Set:
  Basis Set: 6-31G*
  Basis Set:
  @DF-RHF Final Energy:  -193.11331678417474
    Total Energy =                       -193.1133167841747991
  Basis Set: 6-31G*
  Basis Set:
  Basis Set: 6-31G*
  Basis Set:
  @DF-RHF Final Energy:  -193.11331834973572
    Total Energy =                       -193.1133183497358061
  Basis Set: 6-31G*
  Basis Set:
  Charge       = 0
  Multiplicity = 1
  Basis Set: 6-31G*
  Basis Set:

    Orbital Energies (a.u.)
    -----------------------

    Doubly Occupied:

       1A    -20.549375     2A    -11.276246     3A    -11.206635
       4A    -11.205956     5A     -1.358004     6A     -1.040713
       7A     -0.935360     8A     -0.798193     9A     -0.711093
      10A     -0.608238    11A     -0.597414    12A     -0.556027
      13A     -0.537904    14A     -0.522659    15A     -0.505666
      16A     -0.463893    17A     -0.428499

  @DF-RHF Final Energy:  -193.11331964986729

   => Energetics <=

    Nuclear Repulsion Energy =            135.2757401218193820
    One-Electron Energy =                -530.1743653786037385
    Two-Electron Energy =                 201.7853056069169497
    DFT Exchange-Correlation Energy =       0.0000000000000000
    Empirical Dispersion Energy =           0.0000000000000000
    PCM Polarization Energy =               0.0000000000000000
    EFP Energy =                            0.0000000000000000
    Total Energy =                       -193.1133196498674351
    Molecular point group: c1
  Basis Set: 6-31G*
  Basis Set:

  -Total Gradient:
     Atom            X                  Y                   Z
    ------   -----------------  -----------------  -----------------
       1        0.001157660185    -0.000003335709     0.000214341277
       2       -0.001315788094     0.000088109432    -0.000058661504
       3       -0.000215106927    -0.000221317197    -0.000784223893
       4        0.000339048923     0.000161612524     0.000619674225
       5        0.000011819269    -0.000013257442     0.000003277914
       6        0.000003609424    -0.000020832020    -0.000004140932
       7       -0.000012586211     0.000004344230    -0.000005767052
       8       -0.000007641040     0.000011385492     0.000011118181
       9        0.000011281336    -0.000004624796    -0.000010650283
      10        0.000009074389     0.000012119577     0.000005852199
      11        0.000022197436    -0.000003126460    -0.000001856465
      12       -0.000003568692    -0.000011077633     0.000011036333

  **** Optimization is complete! (in 5 steps) ****
    Final optimized geometry and variables:
    Molecular point group: c1

    Geometry (in Angstrom), charge = 0, multiplicity = 1:

    H           -0.002992806475     1.941765075372     0.500983860025
    O            0.116727802687     1.295904179089    -0.178192060171
    C           -0.000150864701    -0.007225814621     0.359751151455
    C            1.203337404784    -0.817178449090    -0.098546392797
    C           -1.322116432638    -0.620181785941    -0.082666774781
    H            0.014163642628     0.047573536733     1.446581053148
    H            1.233136819422    -0.859608661924    -1.182554637899
    H            2.122058119659    -0.355237977624     0.245379894065
    H            1.161078905322    -1.832337328241     0.284505510763
    H           -1.365137857783    -0.670020630850    -1.165727243945
    H           -2.155706664076    -0.014885768609     0.258493933221
    H           -1.443077238589    -1.623749369431     0.314553748771

  Mulliken Charges: (a.u.)
   Center  Symbol    Alpha    Beta     Spin     Total
       1     H     0.28013  0.28013  0.00000  0.43974
       2     O     4.37417  4.37417  0.00000 -0.74833
       3     C     2.92502  2.92502  0.00000  0.14996
       4     C     3.23656  3.23656  0.00000 -0.47312
       5     C     3.23708  3.23708  0.00000 -0.47415
       6     H     0.43114  0.43114  0.00000  0.13771
       7     H     0.41477  0.41477  0.00000  0.17047
       8     H     0.41683  0.41683  0.00000  0.16635
       9     H     0.42453  0.42453  0.00000  0.15094
      10     H     0.41466  0.41466  0.00000  0.17068
      11     H     0.42048  0.42048  0.00000  0.15904
      12     H     0.42464  0.42464  0.00000  0.15072

   Total alpha = 17.00000, Total beta = 17.00000, Total charge = -0.00000
