                              Psi4 1.0.54 Driver

  ==> Input File <==

--------------------------------------------------------------------------
set {
	reference rhf
	basis cc-pvtz
}

set_num_threads( 4 )
memory 2 gb

molecule MOL {
0 1

H	 1.839237	 -0.689783	 -1.144883
O	 1.025216	 -0.684580	 -0.676922
C	 0.700177	 0.619554	 -0.266242
C	 -0.713111	 0.588314	 0.266177
H	 0.757568	 1.309926	 -1.102315
H	 1.376243	 0.960947	 0.513350
O	 -1.421673	 -0.521378	 -0.196983
H	 -1.244794	 1.469161	 -0.069059
H	 -0.685100	 0.604721	 1.352683
H	 -0.933408	 -1.297830	 0.014544

	symmetry c1
}
set optking {
	frozen_dihedral = ("
		5 3 4 7
	")
}

ee,wfn = optimize('scf', return_wfn=True)
oeprop( wfn, 'DIPOLE', 'QUADRUPOLE', 'MULLIKEN_CHARGES')
f=open( 'psi4out.xyz', 'w' )
f.write( "10  " )
f.write( str(ee) + "\n" )
f.write( MOL.save_string_xyz() )
f.close()
--------------------------------------------------------------------------

    Molecular point group: c1
  Charge       = 0
  Multiplicity = 1
  Basis Set: CC-PVTZ
  Basis Set:
  @DF-RHF Final Energy:  -229.01805766556907
    Total Energy =                       -229.0180576655690743
    Molecular point group: c1
  Basis Set: CC-PVTZ
  Basis Set:
  Basis Set: CC-PVTZ
  Basis Set:
  @DF-RHF Final Energy:  -229.01204139025765
    Total Energy =                       -229.0120413902575365
  Basis Set: CC-PVTZ
  Basis Set:
  Basis Set: CC-PVTZ
  Basis Set:
  @DF-RHF Final Energy:  -229.02078098935192
    Total Energy =                       -229.0207809893521187
  Basis Set: CC-PVTZ
  Basis Set:
  Basis Set: CC-PVTZ
  Basis Set:
  @DF-RHF Final Energy:  -229.02107152477376
    Total Energy =                       -229.0210715247739017
  Basis Set: CC-PVTZ
  Basis Set:
  @DF-RHF Final Energy:  -229.02118664628398
    Total Energy =                       -229.0211866462838941
  Basis Set: CC-PVTZ
  Basis Set:
  @DF-RHF Final Energy:  -229.02126917943829
    Total Energy =                       -229.0212691794382920
  Basis Set: CC-PVTZ
  Basis Set:
  Basis Set: CC-PVTZ
  Basis Set:
  @DF-RHF Final Energy:  -229.02127919560698
    Total Energy =                       -229.0212791956069509
  Basis Set: CC-PVTZ
  Basis Set:
  Basis Set: CC-PVTZ
  Basis Set:
  @DF-RHF Final Energy:  -229.02128238025711
    Total Energy =                       -229.0212823802571620
  Basis Set: CC-PVTZ
  Basis Set:
  Charge       = 0
  Multiplicity = 1
  Basis Set: CC-PVTZ
  Basis Set:

    Orbital Energies (a.u.)
    -----------------------

    Doubly Occupied:

       1A    -20.568112     2A    -20.535332     3A    -11.279224
       4A    -11.267353     5A     -1.392765     6A     -1.351034
       7A     -1.000181     8A     -0.848068     9A     -0.731499
      10A     -0.682400    11A     -0.659830    12A     -0.593165
      13A     -0.582924    14A     -0.544708    15A     -0.487212
      16A     -0.463314    17A     -0.422557

  @DF-RHF Final Energy:  -229.02128315140712

   => Energetics <=

    Nuclear Repulsion Energy =            135.0111930558547613
    One-Electron Energy =                -581.2455973478772648
    Two-Electron Energy =                 217.2131211406154421
    DFT Exchange-Correlation Energy =       0.0000000000000000
    Empirical Dispersion Energy =           0.0000000000000000
    PCM Polarization Energy =               0.0000000000000000
    EFP Energy =                            0.0000000000000000
    Total Energy =                       -229.0212831514070899
    Molecular point group: c1
  Basis Set: CC-PVTZ
  Basis Set:

  -Total Gradient:
     Atom            X                  Y                   Z
    ------   -----------------  -----------------  -----------------
       1        0.000003506500     0.000014417385     0.000031736314
       2        0.000000463331    -0.000139797895    -0.000093990977
       3       -0.003294268078    -0.007279380799    -0.004512075893
       4       -0.001740121296     0.006485386434    -0.004476383852
       5        0.003187298943     0.004818625465     0.004884260940
       6       -0.000034087919    -0.000018198258    -0.000036644827
       7        0.001925170480    -0.003893107029     0.004182965863
       8       -0.000007185262    -0.000024884077     0.000011379412
       9        0.000001662192     0.000002943306    -0.000016066426
      10       -0.000042438891     0.000033995469     0.000024819445

  **** Optimization is complete! (in 9 steps) ****
    Final optimized geometry and variables:
    Molecular point group: c1

    Geometry (in Angstrom), charge = 0, multiplicity = 1:

    H            1.814588933073    -0.904407940282    -1.034692419246
    O            0.990711892205    -0.786270322177    -0.600480516016
    C            0.868480850493     0.525274126538    -0.125000059842
    C           -0.473936611075     0.670336599421     0.609054497540
    H            0.959236527869     1.261267214579    -0.917946360298
    H            1.665722145591     0.745109551010     0.579915428045
    O           -1.429883955271    -0.254404963696     0.194913165230
    H           -0.871532082018     1.663160736617     0.447502010187
    H           -0.303304928340     0.556807004338     1.676393990060
    H           -0.992501922887    -1.041596666391    -0.078077742048

  Mulliken Charges: (a.u.)
   Center  Symbol    Alpha    Beta     Spin     Total
       1     H     0.39378  0.39378  0.00000  0.21243
       2     O     4.19857  4.19857  0.00000 -0.39714
       3     C     2.96799  2.96799  0.00000  0.06402
       4     C     2.95775  2.95775  0.00000  0.08451
       5     H     0.47427  0.47427  0.00000  0.05147
       6     H     0.47459  0.47459  0.00000  0.05082
       7     O     4.20817  4.20817  0.00000 -0.41634
       8     H     0.46476  0.46476  0.00000  0.07048
       9     H     0.47804  0.47804  0.00000  0.04392
      10     H     0.38208  0.38208  0.00000  0.23584

   Total alpha = 17.00000, Total beta = 17.00000, Total charge =  0.00000

*** Psi4 exiting successfully. Buy a developer a beer!
