  ==> Input File <==

--------------------------------------------------------------------------
set {
	reference rhf
	basis 6-31G*
}

set_num_threads( 4 )
memory 2 gb

molecule MOL {
0 1

O	 -0.682937	 1.318834	 -0.186099
C	 -0.860635	 0.152188	 -0.042321
C	 -2.173363	 -0.477127	 0.338347
O	 0.083258	 -0.765189	 -0.202595
H	 -2.477673	 -1.180929	 -0.427595
H	 -2.923125	 0.290956	 0.455536
H	 -2.058825	 -1.029004	 1.264191
C	 1.391937	 -0.334737	 -0.569838
C	 2.424382	 -1.418747	 -0.321592
H	 1.633222	 0.568038	 -0.029542
H	 1.316292	 -0.105865	 -1.623116
H	 3.395054	 -1.090398	 -0.680358
H	 2.508596	 -1.636556	 0.735685
H	 2.156461	 -2.328435	 -0.847996

	symmetry c1
}
set optking {
	frozen_dihedral = ("
		10 8 4 2
	")
}

ee = optimize('scf')
oeprop('DIPOLE', 'QUADRUPOLE', 'MULLIKEN_CHARGES')
f=open( 'psi4out.xyz', 'w' )
f.write( "14  " )
f.write( str(ee) + "\n" )
f.write( MOL.save_string_xyz() )
f.close()
--------------------------------------------------------------------------

    Molecular point group: c1
  Charge       = 0
  Multiplicity = 1
  Basis Set: 6-31G*
  Basis Set:
  @DF-RHF Final Energy:  -305.87435345494748
    Total Energy =                       -305.8743534549471406
    Molecular point group: c1
  Basis Set: 6-31G*
  Basis Set:
  Basis Set: 6-31G*
  Basis Set:
  @DF-RHF Final Energy:  -305.87544773286021
    Total Energy =                       -305.8754477328601524
  Basis Set: 6-31G*
  Basis Set:
  Basis Set: 6-31G*
  Basis Set:
  @DF-RHF Final Energy:  -305.87565042329908
    Total Energy =                       -305.8756504232993052
  Basis Set: 6-31G*
  Basis Set:
  Basis Set: 6-31G*
  Basis Set:
  @DF-RHF Final Energy:  -305.87544165060496
    Total Energy =                       -305.8754416506048983
  Basis Set: 6-31G*
  Basis Set:
  Basis Set: 6-31G*
  Basis Set:
  @DF-RHF Final Energy:  -305.87570124339811
    Total Energy =                       -305.8757012433981686
  Basis Set: 6-31G*
  Basis Set:
  Charge       = 0
  Multiplicity = 1
  Basis Set: 6-31G*
  Basis Set:

    Orbital Energies (a.u.)
    -----------------------

    Doubly Occupied:

       1A    -20.601970     2A    -20.544260     3A    -11.375089
       4A    -11.285055     5A    -11.233307     6A    -11.222994
       7A     -1.467866     8A     -1.362729     9A     -1.058027
      10A     -1.000324    11A     -0.871939    12A     -0.780010
      13A     -0.692095    14A     -0.685639    15A     -0.665621
      16A     -0.610956    17A     -0.580498    18A     -0.563769
      19A     -0.554675    20A     -0.539521    21A     -0.510352
      22A     -0.501773    23A     -0.452541    24A     -0.438721

  @DF-RHF Final Energy:  -305.87570178230499

   => Energetics <=

    Nuclear Repulsion Energy =            245.5849104834171897
    One-Electron Energy =                -903.7217581225073673
    Two-Electron Energy =                 352.2611458567852196
    DFT Exchange-Correlation Energy =       0.0000000000000000
    Empirical Dispersion Energy =           0.0000000000000000
    PCM Polarization Energy =               0.0000000000000000
    EFP Energy =                            0.0000000000000000
    Total Energy =                       -305.8757017823049864
    Molecular point group: c1
  Basis Set: 6-31G*
  Basis Set:

  -Total Gradient:
     Atom            X                  Y                   Z
    ------   -----------------  -----------------  -----------------
       1        0.000006758682     0.000012170388     0.000023701748
       2        0.000345298373     0.000079299287     0.001220733905
       3        0.000002230460    -0.000002527188    -0.000003492720
       4       -0.000556189485     0.000094216620    -0.002082905443
       5       -0.000001606756    -0.000005403068     0.000000671299
       6        0.000006217383     0.000003401076    -0.000002884654
       7        0.000004709908     0.000005615533     0.000001642680
       8        0.000859578843    -0.001024250756     0.001906054395
       9       -0.000026925117     0.000001149585     0.000022824023
      10       -0.000625512863     0.000828564264    -0.001079607187
      11       -0.000025841712    -0.000002142443    -0.000001347617
      12        0.000012387508     0.000007054068    -0.000005787717
      13        0.000004670143    -0.000005948186     0.000001221907
      14       -0.000005775366     0.000008800822    -0.000000824619

  **** Optimization is complete! (in 6 steps) ****
    Final optimized geometry and variables:
    Molecular point group: c1

    Geometry (in Angstrom), charge = 0, multiplicity = 1:

    O           -0.731041461321     1.569912979374    -0.041836490199
    C           -0.891189754056     0.403239732434     0.118101274218
    C           -2.185746836956    -0.239263773156     0.537435186789
    O            0.061527520998    -0.502087072245    -0.056112183216
    H           -2.501530045876    -0.951319777593    -0.216271548376
    H           -2.941531715883     0.520632737847     0.668493332150
    H           -2.041254822680    -0.783808534580     1.463374294816
    C            1.360231822434    -0.046476715777    -0.423650848093
    C            2.338852161183    -1.164376423231    -0.133241958064
    H            1.590915970993     0.853566497064     0.126062650948
    H            1.349120962731     0.205751892468    -1.476770418496
    H            3.340683881138    -0.862258399419    -0.420997473441
    H            2.343347752711    -1.406022768163     0.923620422606
    H            2.078117684332    -2.058726464013    -0.687527832539

  Mulliken Charges: (a.u.)
   Center  Symbol    Alpha    Beta     Spin     Total
       1     O     4.28311  4.28311  0.00000 -0.56621
       2     C     2.62016  2.62016  0.00000  0.75967
       3     C     3.28170  3.28170  0.00000 -0.56339
       4     O     4.30679  4.30679  0.00000 -0.61357
       5     H     0.40035  0.40035  0.00000  0.19930
       6     H     0.39696  0.39696  0.00000  0.20608
       7     H     0.40072  0.40072  0.00000  0.19856
       8     C     3.00432  3.00432  0.00000 -0.00865
       9     C     3.24814  3.24814  0.00000 -0.49628
      10     H     0.40391  0.40391  0.00000  0.19219
      11     H     0.41371  0.41371  0.00000  0.17257
      12     H     0.41626  0.41626  0.00000  0.16749
      13     H     0.41242  0.41242  0.00000  0.17516
      14     H     0.41145  0.41145  0.00000  0.17709

   Total alpha = 24.00000, Total beta = 24.00000, Total charge =  0.00000
