  ==> Input File <==

--------------------------------------------------------------------------
set {
	reference rhf
	basis cc-pvtz
}

set_num_threads( 4 )
memory 2 gb

molecule MOL {
0 1

H	 2.342730	 0.877684	 -1.045694
C	 2.360424	 0.000000	 -0.411793
C	 1.173749	 0.000000	 0.526870
H	 3.286567	 0.000000	 0.151574
H	 2.342730	 -0.877684	 -1.045694
O	 -0.000000	 0.000000	 -0.223739
H	 1.203779	 0.876757	 1.172538
H	 1.203779	 -0.876757	 1.172538
C	 -1.173749	 0.000000	 0.526870
C	 -1.575877	 -1.429876	 0.815026
H	 -1.965587	 0.511676	 -0.018724
H	 -1.021034	 0.543695	 1.458302
H	 -1.743220	 -1.970321	 -0.108223
H	 -2.488664	 -1.454218	 1.399278
H	 -0.797667	 -1.938268	 1.370365

	symmetry c1
}
set optking {
	frozen_dihedral = ("
		11 9 6 3
	")
}

ee = optimize('scf')
oeprop('DIPOLE', 'QUADRUPOLE', 'MULLIKEN_CHARGES')
f=open( 'psi4out.xyz', 'w' )
f.write( "15  " )
f.write( str(ee) + "\n" )
f.write( MOL.save_string_xyz() )
f.close()
--------------------------------------------------------------------------

    Molecular point group: c1
  Charge       = 0
  Multiplicity = 1
  Basis Set: CC-PVTZ
  Basis Set:
  @DF-RHF Final Energy:  -232.22927114232414
    Total Energy =                       -232.2292711423241940
    Molecular point group: c1
  Basis Set: CC-PVTZ
  Basis Set:
  Basis Set: CC-PVTZ
  Basis Set:
  @DF-RHF Final Energy:  -232.23036983452323
    Total Energy =                       -232.2303698345235716
  Basis Set: CC-PVTZ
  Basis Set:
  Basis Set: CC-PVTZ
  Basis Set:
  @DF-RHF Final Energy:  -232.23063192709756
    Total Energy =                       -232.2306319270975337
  Basis Set: CC-PVTZ
  Basis Set:
  Charge       = 0
  Multiplicity = 1
  Basis Set: CC-PVTZ
  Basis Set:

    Orbital Energies (a.u.)
    -----------------------

    Doubly Occupied:

       1A    -20.543373     2A    -11.266168     3A    -11.266046
       4A    -11.208641     5A    -11.206806     6A     -1.377718
       7A     -1.041922     8A     -0.986320     9A     -0.860382
      10A     -0.815917    11A     -0.673634    12A     -0.650836
      13A     -0.643375    14A     -0.573268    15A     -0.553281
      16A     -0.543712    17A     -0.523729    18A     -0.501714
      19A     -0.487990    20A     -0.459726    21A     -0.409596

  @DF-RHF Final Energy:  -232.23063511331060

   => Energetics <=

    Nuclear Repulsion Energy =            192.5486594636141717
    One-Electron Energy =                -696.3702794760610004
    Two-Electron Energy =                 271.5909848991362878
    DFT Exchange-Correlation Energy =       0.0000000000000000
    Empirical Dispersion Energy =           0.0000000000000000
    PCM Polarization Energy =               0.0000000000000000
    EFP Energy =                            0.0000000000000000
    Total Energy =                       -232.2306351133105409
    Molecular point group: c1
  Basis Set: CC-PVTZ
  Basis Set:

  -Total Gradient:
     Atom            X                  Y                   Z
    ------   -----------------  -----------------  -----------------
       1       -0.000003234684    -0.000005572985     0.000006720395
       2        0.000003135100     0.000005996159     0.000019142364
       3       -0.000022939652     0.000567817958    -0.000021394938
       4        0.000025030417     0.000003019562     0.000000074459
       5       -0.000012721883     0.000003718907     0.000011804410
       6        0.000102851450    -0.000739188362    -0.000062152858
       7        0.000006632029     0.000003586227    -0.000002150886
       8        0.000012471104     0.000015691532    -0.000004870879
       9       -0.000152634970    -0.000452964392    -0.000227915875
      10       -0.000090859183     0.000008449853     0.000001722747
      11        0.000173793404     0.000527630647     0.000332306662
      12       -0.000056921237     0.000006284702     0.000012473802
      13        0.000010981892     0.000000569788    -0.000032813100
      14        0.000005460313    -0.000003701985    -0.000004188020
      15       -0.000001044099     0.000058662390    -0.000028758283

  **** Optimization is complete! (in 4 steps) ****
    Final optimized geometry and variables:
    Molecular point group: c1

    Geometry (in Angstrom), charge = 0, multiplicity = 1:

    H            2.168160072332     1.196709438827    -1.315144361617
    C            2.212503927810     0.317759553977    -0.684254595214
    C            1.043211006693     0.296289525729     0.275904184727
    H            3.148840584103     0.331409267776    -0.137753807452
    H            2.197612155999    -0.558293753973    -1.320576138379
    O           -0.142408691617     0.294665343904    -0.459141170129
    H            1.074112432269     1.169746345135     0.925296281722
    H            1.103108497709    -0.582941613210     0.913937648922
    C           -1.326037547725     0.261790599154     0.283027472810
    C           -1.795293260433    -1.153533999311     0.576069716703
    H           -2.072919525250     0.782357503314    -0.302988962406
    H           -1.203777510215     0.817873695405     1.210158838849
    H           -1.938506433254    -1.700321049608    -0.347852623414
    H           -2.737998105932    -1.132300594891     1.112339017010
    H           -1.078591658569    -1.694333379865     1.182522989663

  Mulliken Charges: (a.u.)
   Center  Symbol    Alpha    Beta     Spin     Total
       1     H     0.45122  0.45122  0.00000  0.09755
       2     C     3.13597  3.13597  0.00000 -0.27195
       3     C     2.96702  2.96702  0.00000  0.06597
       4     H     0.45931  0.45931  0.00000  0.08139
       5     H     0.45158  0.45158  0.00000  0.09684
       6     O     4.18427  4.18427  0.00000 -0.36854
       7     H     0.47093  0.47093  0.00000  0.05814
       8     H     0.47360  0.47360  0.00000  0.05279
       9     C     2.98107  2.98107  0.00000  0.03787
      10     C     3.14091  3.14091  0.00000 -0.28183
      11     H     0.45037  0.45037  0.00000  0.09925
      12     H     0.47203  0.47203  0.00000  0.05595
      13     H     0.45073  0.45073  0.00000  0.09853
      14     H     0.45434  0.45434  0.00000  0.09132
      15     H     0.45664  0.45664  0.00000  0.08672

   Total alpha = 21.00000, Total beta = 21.00000, Total charge =  0.00000
