  ==> Input File <==

--------------------------------------------------------------------------
set {
	reference rhf
	basis 6-31G*
}

set_num_threads( 4 )
memory 2 gb

molecule MOL {
0 1

O	 0.714334	 -1.000082	 -1.782940
C	 1.248301	 -1.079404	 -0.723861
C	 1.245376	 -0.013843	 0.345420
O	 1.935420	 -2.146543	 -0.335645
C	 0.455112	 1.231400	 -0.050772
H	 0.857416	 -0.471298	 1.249529
H	 2.282427	 0.232475	 0.558842
C	 -0.998893	 1.219485	 0.433193
H	 0.482531	 1.345121	 -1.130325
H	 0.957290	 2.103070	 0.354729
C	 -1.883438	 0.145884	 -0.207175
H	 -1.431207	 2.195402	 0.224832
H	 -1.019646	 1.105716	 1.516076
C	 -3.347647	 0.245583	 0.225435
H	 -1.822183	 0.231698	 -1.291012
H	 -1.510341	 -0.844814	 0.042401
C	 -4.239992	 -0.825570	 -0.404234
H	 -3.732888	 1.230466	 -0.033079
H	 -3.408585	 0.170602	 1.310038
C	 -5.701275	 -0.716658	 0.029921
H	 -4.179496	 -0.752714	 -1.488058
H	 -3.859041	 -1.810759	 -0.143352
H	 -6.308102	 -1.488908	 -0.432678
H	 -6.122175	 0.245478	 -0.248167
H	 -5.799072	 -0.820114	 1.106957
C	 2.019006	 -3.224481	 -1.249946
H	 1.034278	 -3.605503	 -1.479374
H	 2.608367	 -3.983064	 -0.758813
H	 2.500309	 -2.910409	 -2.164955

	symmetry c1
}
set optking {
	frozen_dihedral = ("
		6 3 5 9
	")
}

ee = optimize('scf')
oeprop('DIPOLE', 'QUADRUPOLE', 'MULLIKEN_CHARGES')
f=open( 'psi4out.xyz', 'w' )
f.write( "29  " )
f.write( str(ee) + "\n" )
f.write( MOL.save_string_xyz() )
f.close()
--------------------------------------------------------------------------

    Molecular point group: c1
  Charge       = 0
  Multiplicity = 1
  Basis Set: 6-31G*
  Basis Set:
  @DF-RHF Final Energy:  -501.04107414268822
    Total Energy =                       -501.0410741426878758
    Molecular point group: c1
  Basis Set: 6-31G*
  Basis Set:
  Basis Set: 6-31G*
  Basis Set:
  @DF-RHF Final Energy:  -501.04146712696422
    Total Energy =                       -501.0414671269641076
  Basis Set: 6-31G*
  Basis Set:
  Basis Set: 6-31G*
  Basis Set:
  @DF-RHF Final Energy:  -501.04160713543013
    Total Energy =                       -501.0416071354301266
  Basis Set: 6-31G*
  Basis Set:
  Basis Set: 6-31G*
  Basis Set:
  @DF-RHF Final Energy:  -501.04159915772357
    Total Energy =                       -501.0415991577226578
  Basis Set: 6-31G*
  Basis Set:
  @DF-RHF Final Energy:  -501.04172266846967
    Total Energy =                       -501.0417226684701291
  Basis Set: 6-31G*
  Basis Set:
  @DF-RHF Final Energy:  -501.04175434089757
    Total Energy =                       -501.0417543408979100
  Basis Set: 6-31G*
  Basis Set:
  Basis Set: 6-31G*
  Basis Set:
  @DF-RHF Final Energy:  -501.04176913314200
    Total Energy =                       -501.0417691331419974
  Basis Set: 6-31G*
  Basis Set:
  Basis Set: 6-31G*
  Basis Set:
  @DF-RHF Final Energy:  -501.04177470447814
    Total Energy =                       -501.0417747044781436
  Basis Set: 6-31G*
  Basis Set:
  Charge       = 0
  Multiplicity = 1
  Basis Set: 6-31G*
  Basis Set:

    Orbital Energies (a.u.)
    -----------------------

    Doubly Occupied:

       1A    -20.604363     2A    -20.545478     3A    -11.372670
       4A    -11.281151     5A    -11.235256     6A    -11.218603
       7A    -11.214961     8A    -11.212107     9A    -11.210731
      10A    -11.209830    11A    -11.206285    12A     -1.469912
      13A     -1.362834    14A     -1.095001    15A     -1.063786
      16A     -1.016851    17A     -0.976243    18A     -0.926935
      19A     -0.860799    20A     -0.798103    21A     -0.786301
      22A     -0.762424    23A     -0.701160    24A     -0.682187
      25A     -0.672614    26A     -0.647805    27A     -0.621093
      28A     -0.609986    29A     -0.590479    30A     -0.578755
      31A     -0.564206    32A     -0.544184    33A     -0.536929
      34A     -0.529555    35A     -0.517523    36A     -0.501472
      37A     -0.496977    38A     -0.476633    39A     -0.466691
      40A     -0.459458    41A     -0.458247    42A     -0.453340
      43A     -0.439754    44A     -0.432002

  @DF-RHF Final Energy:  -501.04177435070369

   => Energetics <=

    Nuclear Repulsion Energy =            634.6428196847957679
    One-Electron Energy =               -1940.5458385091574200
    Two-Electron Energy =                 804.8612444736579619
    DFT Exchange-Correlation Energy =       0.0000000000000000
    Empirical Dispersion Energy =           0.0000000000000000
    PCM Polarization Energy =               0.0000000000000000
    EFP Energy =                            0.0000000000000000
    Total Energy =                       -501.0417743507036903
    Molecular point group: c1
  Basis Set: 6-31G*
  Basis Set:

  -Total Gradient:
     Atom            X                  Y                   Z
    ------   -----------------  -----------------  -----------------
       1        0.000121378786    -0.000126150726     0.000078311868
       2        0.000017537966    -0.000013049426     0.000179494648
       3        0.001152851376     0.001106055793     0.001157258862
       4       -0.000007571548     0.000013886070    -0.000228259932
       5        0.001404967699     0.001039328823     0.000074737054
       6       -0.001099809155    -0.001065887946    -0.001014359049
       7       -0.000016489530    -0.000071810165    -0.000017644334
       8        0.000051567431     0.000191657082    -0.000228391600
       9       -0.001571764154    -0.001012699154    -0.000110586078
      10       -0.000100352463     0.000132538544    -0.000017407706
      11        0.000020569162    -0.000083583221     0.000040597814
      12       -0.000088278245     0.000054832378     0.000079418208
      13        0.000086732592    -0.000110758245    -0.000068782309
      14        0.000021181165     0.000036550563     0.000022196088
      15        0.000080872912     0.000000359468     0.000025299037
      16       -0.000082854948     0.000007985069     0.000032079682
      17        0.000014637284     0.000008353892    -0.000036722290
      18       -0.000011453698     0.000009628676     0.000020015525
      19       -0.000016198886    -0.000015801233     0.000004062050
      20       -0.000004019880     0.000025037667     0.000001540367
      21       -0.000000868241    -0.000005301295    -0.000007736589
      22        0.000010727256     0.000005294870     0.000008349488
      23        0.000016871820     0.000001589249    -0.000002209067
      24       -0.000007840829     0.000003408696    -0.000000982894
      25        0.000002067897    -0.000000815477     0.000001938308
      26       -0.000029280154    -0.000099433230     0.000051064992
      27        0.000013255211    -0.000017172152    -0.000009630857
      28        0.000011648022    -0.000026233129    -0.000033075813
      29        0.000009915156     0.000012188561    -0.000000575473

  **** Optimization is complete! (in 9 steps) ****
    Final optimized geometry and variables:
    Molecular point group: c1

    Geometry (in Angstrom), charge = 0, multiplicity = 1:

    O            1.746203340635    -0.282403860113    -1.545449179609
    C            2.051382262768    -0.447705602339    -0.408214271487
    C            2.007010166656     0.597523135856     0.684030038622
    O            2.515167921695    -1.601367868815     0.054734249833
    C            1.206687454154     1.856754741047     0.324580450612
    H            1.622636293150     0.116375168599     1.577105373825
    H            3.043934480535     0.843319805541     0.896848415813
    C           -0.252596553471     1.833134693432     0.795862133998
    H            1.232138271063     1.994577996210    -0.749826061718
    H            1.694391673243     2.718319964463     0.770049186779
    C           -1.116076028225     0.735408729183     0.168879560401
    H           -0.696693115850     2.800291743742     0.570283065444
    H           -0.277229556473     1.734736524967     1.880327172123
    C           -2.583324088681     0.822641654467     0.593626617616
    H           -1.044697825916     0.795171963224    -0.914016367556
    H           -0.729712999930    -0.244332440787     0.443734611555
    C           -3.457060193059    -0.272238042748    -0.021076119735
    H           -2.981284517746     1.796879036907     0.314227925213
    H           -2.650353166640     0.767414912118     1.679277915499
    C           -4.922794539325    -0.174240512913     0.400600866760
    H           -3.388967242896    -0.220003896414    -1.105430143693
    H           -3.064984470817    -1.246914153836     0.261919629942
    H           -5.516030094856    -0.963776901393    -0.050449128904
    H           -5.354538688185     0.776316400286     0.100006855542
    H           -5.027262629125    -0.257072479627     1.478886875267
    C            2.652048047799    -2.660158813438    -0.875788853707
    H            1.694574474936    -2.911159882714    -1.308885357913
    H            3.040292445664    -3.496698497255    -0.315952113580
    H            3.338088395382    -2.386594032456    -1.664487857083

  Mulliken Charges: (a.u.)
   Center  Symbol    Alpha    Beta     Spin     Total
       1     O     4.28717  4.28717  0.00000 -0.57434
       2     C     2.60825  2.60825  0.00000  0.78349
       3     C     3.20909  3.20909  0.00000 -0.41817
       4     O     4.30608  4.30608  0.00000 -0.61216
       5     C     3.16212  3.16212  0.00000 -0.32423
       6     H     0.39936  0.39936  0.00000  0.20128
       7     H     0.39708  0.39708  0.00000  0.20584
       8     C     3.15441  3.15441  0.00000 -0.30882
       9     H     0.39882  0.39882  0.00000  0.20236
      10     H     0.41765  0.41765  0.00000  0.16470
      11     C     3.15626  3.15626  0.00000 -0.31252
      12     H     0.42025  0.42025  0.00000  0.15950
      13     H     0.42517  0.42517  0.00000  0.14966
      14     C     3.15054  3.15054  0.00000 -0.30108
      15     H     0.41238  0.41238  0.00000  0.17523
      16     H     0.42730  0.42730  0.00000  0.14540
      17     C     3.15119  3.15119  0.00000 -0.30237
      18     H     0.42407  0.42407  0.00000  0.15187
      19     H     0.42544  0.42544  0.00000  0.14913
      20     C     3.23925  3.23925  0.00000 -0.47850
      21     H     0.42148  0.42148  0.00000  0.15705
      22     H     0.42387  0.42387  0.00000  0.15225
      23     H     0.41968  0.41968  0.00000  0.16065
      24     H     0.42191  0.42191  0.00000  0.15619
      25     H     0.42248  0.42248  0.00000  0.15504
      26     C     3.09233  3.09233  0.00000 -0.18466
      27     H     0.40877  0.40877  0.00000  0.18245
      28     H     0.40847  0.40847  0.00000  0.18306
      29     H     0.40914  0.40914  0.00000  0.18172

   Total alpha = 44.00000, Total beta = 44.00000, Total charge =  0.00000
