  ==> Input File <==

--------------------------------------------------------------------------
set {
	reference rhf
	basis cc-pvtz
}

set_num_threads( 4 )
memory 2 gb

molecule MOL {
0 1

O	 0.990054	 0.832452	 -0.865924
C	 0.576499	 0.134701	 -0.003900
C	 -0.765656	 -0.550508	 -0.002152
O	 1.253689	 -0.132382	 1.100660
C	 -1.945526	 0.411052	 0.000603
H	 -0.794329	 -1.203792	 -0.868145
H	 -0.791555	 -1.205429	 0.862701
C	 -3.282915	 -0.321280	 0.002596
H	 -1.880300	 1.059126	 -0.864925
H	 -1.877207	 1.057892	 0.866807
H	 -3.388495	 -0.952755	 -0.873419
H	 -4.107811	 0.380864	 0.004116
H	 -3.385717	 -0.953283	 0.878571
C	 2.533793	 0.451974	 1.234352
H	 3.185609	 0.128255	 0.436608
H	 2.914948	 0.117752	 2.185512
H	 2.464511	 1.529459	 1.217947

	symmetry c1
}
set optking {
	frozen_dihedral = ("
		1 2 3 6
	")
}

ee = optimize('scf')
oeprop('DIPOLE', 'QUADRUPOLE', 'MULLIKEN_CHARGES')
f=open( 'psi4out.xyz', 'w' )
f.write( "17  " )
f.write( str(ee) + "\n" )
f.write( MOL.save_string_xyz() )
f.close()
--------------------------------------------------------------------------

    Molecular point group: c1
  Charge       = 0
  Multiplicity = 1
  Basis Set: CC-PVTZ
  Basis Set:
  @DF-RHF Final Energy:  -345.03329014870985
    Total Energy =                       -345.0332901487097388
    Molecular point group: c1
  Basis Set: CC-PVTZ
  Basis Set:
  Basis Set: CC-PVTZ
  Basis Set:
  @DF-RHF Final Energy:  -345.03397861075530
    Total Energy =                       -345.0339786107552413
  Basis Set: CC-PVTZ
  Basis Set:
  Basis Set: CC-PVTZ
  Basis Set:
  @DF-RHF Final Energy:  -345.03395222273156
    Total Energy =                       -345.0339522227313864
  Basis Set: CC-PVTZ
  Basis Set:
  Basis Set: CC-PVTZ
  Basis Set:
  @DF-RHF Final Energy:  -345.03396743827585
    Total Energy =                       -345.0339674382757380
  Basis Set: CC-PVTZ
  Basis Set:
  Basis Set: CC-PVTZ
  Basis Set:
  @DF-RHF Final Energy:  -345.03401433081558
    Total Energy =                       -345.0340143308158645
  Basis Set: CC-PVTZ
  Basis Set:
  Charge       = 0
  Multiplicity = 1
  Basis Set: CC-PVTZ
  Basis Set:

    Orbital Energies (a.u.)
    -----------------------

    Doubly Occupied:

       1A    -20.599100     2A    -20.531555     3A    -11.364346
       4A    -11.278814     5A    -11.232798     6A    -11.226866
       7A    -11.215052     8A     -1.472913     9A     -1.364944
      10A     -1.083152    11A     -1.001529    12A     -0.942110
      13A     -0.828998    14A     -0.774109    15A     -0.700981
      16A     -0.683979    17A     -0.676160    18A     -0.637768
      19A     -0.596143    20A     -0.583129    21A     -0.561082
      22A     -0.536317    23A     -0.526973    24A     -0.504443
      25A     -0.485450    26A     -0.483132    27A     -0.458572
      28A     -0.437905

  @DF-RHF Final Energy:  -345.03401462693188

   => Energetics <=

    Nuclear Repulsion Energy =            313.4860519477404637
    One-Electron Energy =               -1091.4634954277585166
    Two-Electron Energy =                 432.9434288530864023
    DFT Exchange-Correlation Energy =       0.0000000000000000
    Empirical Dispersion Energy =           0.0000000000000000
    PCM Polarization Energy =               0.0000000000000000
    EFP Energy =                            0.0000000000000000
    Total Energy =                       -345.0340146269317074
    Molecular point group: c1
  Basis Set: CC-PVTZ
  Basis Set:

  -Total Gradient:
     Atom            X                  Y                   Z
    ------   -----------------  -----------------  -----------------
       1        0.000091171373    -0.000244291226    -0.000066957265
       2       -0.000198102854     0.000406162052     0.000014836795
       3        0.000162534733    -0.000332781113     0.000123267233
       4        0.000059819558    -0.000011371252     0.000071805825
       5        0.000009647315     0.000008940377    -0.000004676159
       6       -0.000098897159     0.000187434298    -0.000127605833
       7        0.000001563852     0.000006711645    -0.000004613094
       8       -0.000006093429    -0.000007526222    -0.000003928318
       9       -0.000004716724     0.000000122386     0.000002505645
      10       -0.000001601459    -0.000003156164     0.000002000874
      11        0.000001389568    -0.000002869869     0.000000248160
      12        0.000007723415     0.000004853689    -0.000000488134
      13        0.000001854440     0.000001511452     0.000001055363
      14       -0.000043595816    -0.000022306082    -0.000012831121
      15        0.000008776630     0.000002082960     0.000000233229
      16        0.000004512865     0.000001502772     0.000002938217
      17        0.000004013686     0.000004980297     0.000002208581

  **** Optimization is complete! (in 6 steps) ****
    Final optimized geometry and variables:
    Molecular point group: c1

    Geometry (in Angstrom), charge = 0, multiplicity = 1:

    O            0.986833403809     0.727237199046    -1.050603270210
    C            0.626956815427     0.002015337887    -0.185745514242
    C           -0.703416816491    -0.708284552355    -0.177707822381
    O            1.357725279121    -0.269824174172     0.881021327566
    C           -1.872004450154     0.279061360864    -0.218875965256
    H           -0.728383635994    -1.334407996444    -1.062766678922
    H           -0.769062804596    -1.348599551936     0.690458420161
    C           -3.221177653510    -0.427755498582    -0.273425127453
    H           -1.754896989335     0.924305742703    -1.080099173761
    H           -1.832286095738     0.917593122272     0.658402913167
    H           -3.301165427225    -1.049011125966    -1.159045354323
    H           -4.032367553636     0.289940477961    -0.298272902666
    H           -3.368533348994    -1.064413110443     0.592415349535
    C            2.627897809872     0.345024447589     0.968615434187
    H            3.249917349914     0.053410573585     0.135527592587
    H            3.060518642906     0.003063066408     1.894751824337
    H            2.530526036901     1.420397336851     0.976199852346

  Mulliken Charges: (a.u.)
   Center  Symbol    Alpha    Beta     Spin     Total
       1     O     4.20472  4.20472  0.00000 -0.40944
       2     C     2.81201  2.81201  0.00000  0.37599
       3     C     3.08072  3.08072  0.00000 -0.16144
       4     O     4.14391  4.14391  0.00000 -0.28782
       5     C     3.08765  3.08765  0.00000 -0.17530
       6     H     0.44499  0.44499  0.00000  0.11001
       7     H     0.44038  0.44038  0.00000  0.11924
       8     C     3.15133  3.15133  0.00000 -0.30266
       9     H     0.43990  0.43990  0.00000  0.12020
      10     H     0.45174  0.45174  0.00000  0.09652
      11     H     0.45363  0.45363  0.00000  0.09274
      12     H     0.44601  0.44601  0.00000  0.10797
      13     H     0.45505  0.45505  0.00000  0.08990
      14     C     3.03467  3.03467  0.00000 -0.06935
      15     H     0.45404  0.45404  0.00000  0.09191
      16     H     0.44517  0.44517  0.00000  0.10967
      17     H     0.45407  0.45407  0.00000  0.09185

   Total alpha = 28.00000, Total beta = 28.00000, Total charge = -0.00000
