  ==> Input File <==

--------------------------------------------------------------------------
set {
	reference rhf
	basis 6-31G*
}

set_num_threads( 1 )
memory 2 gb

molecule MOL {
0 1

H	 -2.374400	 -0.680992	 3.294810
C	 -2.372442	 -0.746954	 2.224154
C	 -1.232985	 -0.770557	 1.572172
H	 -3.314458	 -0.792374	 1.710875
O	 -1.180634	 -0.819263	 0.215062
H	 -0.278960	 -0.733299	 2.067797
C	 0.051604	 -1.018856	 -0.387932
C	 1.043764	 0.054862	 -0.001873
H	 -0.017620	 -1.041351	 -1.469781
H	 0.437898	 -1.966374	 -0.042284
F	 2.212596	 -0.199467	 -0.571921
F	 0.652529	 1.252447	 -0.405055
F	 1.230877	 0.110694	 1.300533

	symmetry c1
}
set optking {
	frozen_dihedral = ("
		11 8 7 9,
		6 3 2 1,
		6 3 5 7
	")
}

ee = energy('scf')
oeprop('DIPOLE', 'QUADRUPOLE', 'MULLIKEN_CHARGES')
f=open( 'psi4out.xyz', 'w' )
f.write( "13  " )
f.write( str(ee) + "\n" )
f.write( MOL.save_string_xyz() )
f.close()
--------------------------------------------------------------------------

    Molecular point group: c1

    Geometry (in Angstrom), charge = 0, multiplicity = 1:

       Center              X                  Y                   Z               Mass
    ------------   -----------------  -----------------  -----------------  -----------------
           H         -2.558656432518    -0.474457828410     2.849912072018     1.007825032070
           C         -2.556698432518    -0.540419828410     1.779256072018    12.000000000000
           C         -1.417241432518    -0.564022828410     1.127274072018    12.000000000000
           H         -3.498714432518    -0.585839828410     1.265977072018     1.007825032070
           O         -1.364890432518    -0.612728828410    -0.229835927982    15.994914619560
           H         -0.463216432518    -0.526764828410     1.622899072018     1.007825032070
           C         -0.132652432518    -0.812321828410    -0.832829927982    12.000000000000
           C          0.859507567482     0.261396171590    -0.446770927982    12.000000000000
           H         -0.201876432518    -0.834816828410    -1.914678927982     1.007825032070
           H          0.253641567482    -1.759839828410    -0.487181927982     1.007825032070
           F          2.028339567482     0.007067171590    -1.016818927982    18.998403224000
           F          0.468272567482     1.458981171590    -0.849952927982    18.998403224000
           F          1.046620567482     0.317228171590     0.855635072018    18.998403224000

  Charge       = 0
  Multiplicity = 1
  Basis Set: 6-31G*
  Basis Set:

    Orbital Energies (a.u.)
    -----------------------

    Doubly Occupied:

       1A    -26.356666     2A    -26.349204     3A    -26.344145
       4A    -20.603717     5A    -11.509624     6A    -11.319806
       7A    -11.289680     8A    -11.211598     9A     -1.750393
      10A     -1.652355    11A     -1.641780    12A     -1.435700
      13A     -1.083142    14A     -1.015740    15A     -0.932245
      16A     -0.843921    17A     -0.839389    18A     -0.836147
      19A     -0.774149    20A     -0.731832    21A     -0.714843
      22A     -0.703719    23A     -0.678609    24A     -0.661912
      25A     -0.660839    26A     -0.650256    27A     -0.637199
      28A     -0.589889    29A     -0.558916    30A     -0.523635
      31A     -0.497526    32A     -0.347496

  @DF-RHF Final Energy:  -527.52440519000925

   => Energetics <=

    Nuclear Repulsion Energy =            418.6151610519048631
    One-Electron Energy =               -1560.7869795951196465
    Two-Electron Energy =                 614.6474133532049109
    DFT Exchange-Correlation Energy =       0.0000000000000000
    Empirical Dispersion Energy =           0.0000000000000000
    PCM Polarization Energy =               0.0000000000000000
    EFP Energy =                            0.0000000000000000
    Total Energy =                       -527.5244051900099294

  Mulliken Charges: (a.u.)
   Center  Symbol    Alpha    Beta     Spin     Total
       1     H     0.40776  0.40776  0.00000  0.18448
       2     C     3.23700  3.23700  0.00000 -0.47399
       3     C     2.91278  2.91278  0.00000  0.17444
       4     H     0.40437  0.40437  0.00000  0.19126
       5     O     4.30691  4.30691  0.00000 -0.61381
       6     H     0.38493  0.38493  0.00000  0.23014
       7     C     3.05711  3.05711  0.00000 -0.11423
       8     C     2.46266  2.46266  0.00000  1.07468
       9     H     0.38678  0.38678  0.00000  0.22644
      10     H     0.40501  0.40501  0.00000  0.18997
      11     F     4.68216  4.68216  0.00000 -0.36432
      12     F     4.67611  4.67611  0.00000 -0.35221
      13     F     4.67642  4.67642  0.00000 -0.35284

   Total alpha = 32.00000, Total beta = 32.00000, Total charge =  0.00000
