  ==> Input File <==

--------------------------------------------------------------------------
set {
	reference rhf
	basis cc-pvtz
}

set_num_threads( 4 )
memory 2 gb

molecule MOL {
0 1

H	 2.250409	 -0.534293	 -0.044319
O	 1.408729	 -0.422188	 0.356495
C	 0.700177	 0.619554	 -0.266242
C	 -0.713111	 0.588314	 0.266177
H	 0.685114	 0.482270	 -1.343206
H	 1.152139	 1.582972	 -0.045030
O	 -1.421673	 -0.521378	 -0.196983
H	 -1.244794	 1.469161	 -0.069059
H	 -0.685100	 0.604721	 1.352683
H	 -0.933408	 -1.297830	 0.014544

	symmetry c1
}
set optking {
	frozen_dihedral = ("
		5 3 4 7
	")
}

ee = optimize('scf')
oeprop('DIPOLE', 'QUADRUPOLE', 'MULLIKEN_CHARGES')
f=open( 'psi4out.xyz', 'w' )
f.write( "10  " )
f.write( str(ee) + "\n" )
f.write( MOL.save_string_xyz() )
f.close()
--------------------------------------------------------------------------

    Molecular point group: c1
  Charge       = 0
  Multiplicity = 1
  Basis Set: CC-PVTZ
  Basis Set:
  @DF-RHF Final Energy:  -229.02842578760237
    Total Energy =                       -229.0284257876023162
    Molecular point group: c1
  Basis Set: CC-PVTZ
  Basis Set:
  Basis Set: CC-PVTZ
  Basis Set:
  @DF-RHF Final Energy:  -229.02851424426751
    Total Energy =                       -229.0285142442676545
  Basis Set: CC-PVTZ
  Basis Set:
  Basis Set: CC-PVTZ
  Basis Set:
  @DF-RHF Final Energy:  -229.02853695346002
    Total Energy =                       -229.0285369534600477
  Basis Set: CC-PVTZ
  Basis Set:
  Charge       = 0
  Multiplicity = 1
  Basis Set: CC-PVTZ
  Basis Set:

    Orbital Energies (a.u.)
    -----------------------

    Doubly Occupied:

       1A    -20.558833     2A    -20.544211     3A    -11.272891
       4A    -11.266824     5A     -1.383057     6A     -1.356935
       7A     -1.003515     8A     -0.844799     9A     -0.729260
      10A     -0.681933    11A     -0.650268    12A     -0.608119
      13A     -0.576666    14A     -0.531833    15A     -0.493159
      16A     -0.456564    17A     -0.437186

  @DF-RHF Final Energy:  -229.02853721393041

   => Energetics <=

    Nuclear Repulsion Energy =            134.1679855689092165
    One-Electron Energy =                -579.6009398191192759
    Two-Electron Energy =                 216.4044170362795967
    DFT Exchange-Correlation Energy =       0.0000000000000000
    Empirical Dispersion Energy =           0.0000000000000000
    PCM Polarization Energy =               0.0000000000000000
    EFP Energy =                            0.0000000000000000
    Total Energy =                       -229.0285372139304627
    Molecular point group: c1
  Basis Set: CC-PVTZ
  Basis Set:

  -Total Gradient:
     Atom            X                  Y                   Z
    ------   -----------------  -----------------  -----------------
       1       -0.000011208130     0.000009740826     0.000001991376
       2       -0.000033686291     0.000035997187    -0.000025918610
       3       -0.000382704613     0.003450683176    -0.000890160379
       4        0.000886963971    -0.002046560495     0.002189311515
       5        0.000170486646    -0.002523138328     0.000311437326
       6        0.000002082264     0.000017222481    -0.000004502575
       7       -0.000624516265     0.001050482924    -0.001571623653
       8        0.000008216099     0.000015083875     0.000004363400
       9       -0.000002562089    -0.000011315965    -0.000009600307
      10       -0.000013071594     0.000001804319    -0.000005298094

  **** Optimization is complete! (in 4 steps) ****
    Final optimized geometry and variables:
    Molecular point group: c1

    Geometry (in Angstrom), charge = 0, multiplicity = 1:

    H            2.233856067201    -0.561186489672    -0.091490146290
    O            1.392142922922    -0.454089674620     0.310859870839
    C            0.687213857442     0.602366750244    -0.294251988717
    C           -0.728883950787     0.559286404848     0.228684700527
    H            0.672216135907     0.469499719688    -1.371493445736
    H            1.143119731024     1.559590973254    -0.056526238957
    O           -1.430131891903    -0.552830180836    -0.242979333003
    H           -1.265941243580     1.434175855103    -0.114085843921
    H           -0.708721434464     0.579984537513     1.314724482880
    H           -0.975458087750    -1.333120893619     0.022256264608

  Mulliken Charges: (a.u.)
   Center  Symbol    Alpha    Beta     Spin     Total
       1     H     0.39130  0.39130  0.00000  0.21740
       2     O     4.20688  4.20688  0.00000 -0.41375
       3     C     2.97535  2.97535  0.00000  0.04931
       4     C     2.96448  2.96448  0.00000  0.07104
       5     H     0.46810  0.46810  0.00000  0.06381
       6     H     0.47151  0.47151  0.00000  0.05699
       7     O     4.20897  4.20897  0.00000 -0.41793
       8     H     0.45836  0.45836  0.00000  0.08327
       9     H     0.46873  0.46873  0.00000  0.06255
      10     H     0.38633  0.38633  0.00000  0.22734

   Total alpha = 17.00000, Total beta = 17.00000, Total charge =  0.00000
