  ==> Input File <==

--------------------------------------------------------------------------
set {
	reference rhf
	basis cc-pvtz
}

set_num_threads( 4 )
memory 2 gb

molecule MOL {
0 1

H	 -3.162190	 0.493205	 -0.000107
C	 -2.363908	 -0.234727	 0.000005
O	 -1.158738	 0.454634	 -0.000087
H	 -2.464314	 -0.863616	 -0.882153
H	 -2.464327	 -0.863359	 0.882345
C	 -0.028611	 -0.359694	 0.000037
C	 0.246393	 -0.832149	 -1.413311
H	 -0.183931	 -1.214673	 0.658462
H	 0.829372	 0.191550	 0.385571
C	 1.473585	 -1.732822	 -1.497798
H	 -0.628887	 -1.358188	 -1.778132
H	 0.376411	 0.036851	 -2.048830
H	 1.354414	 -2.621732	 -0.887286
H	 1.646513	 -2.055420	 -2.517134
H	 2.366467	 -1.217285	 -1.160082

	symmetry c1
}
set optking {
	frozen_dihedral = ("
		8 6 3 2
	")
}

ee = optimize('scf')
oeprop('DIPOLE', 'QUADRUPOLE', 'MULLIKEN_CHARGES')
f=open( 'psi4out.xyz', 'w' )
f.write( "15  " )
f.write( str(ee) + "\n" )
f.write( MOL.save_string_xyz() )
f.close()
--------------------------------------------------------------------------

    Molecular point group: c1
  Charge       = 0
  Multiplicity = 1
  Basis Set: CC-PVTZ
  Basis Set:
  @DF-RHF Final Energy:  -232.22331807136879
    Total Energy =                       -232.2233180713686806
    Molecular point group: c1
  Basis Set: CC-PVTZ
  Basis Set:
  Basis Set: CC-PVTZ
  Basis Set:
  @DF-RHF Final Energy:  -232.22453368148615
    Total Energy =                       -232.2245336814861503
  Basis Set: CC-PVTZ
  Basis Set:
  Basis Set: CC-PVTZ
  Basis Set:
  @DF-RHF Final Energy:  -232.22529253158245
    Total Energy =                       -232.2252925315825109
  Basis Set: CC-PVTZ
  Basis Set:
  Basis Set: CC-PVTZ
  Basis Set:
  @DF-RHF Final Energy:  -232.22531677247309
    Total Energy =                       -232.2253167724732634
  Basis Set: CC-PVTZ
  Basis Set:
  Basis Set: CC-PVTZ
  Basis Set:
  @DF-RHF Final Energy:  -232.22531797044570
    Total Energy =                       -232.2253179704457011
  Basis Set: CC-PVTZ
  Basis Set:
  Charge       = 0
  Multiplicity = 1
  Basis Set: CC-PVTZ
  Basis Set:

    Orbital Energies (a.u.)
    -----------------------

    Doubly Occupied:

       1A    -20.545742     2A    -11.264252     3A    -11.261392
       4A    -11.214478     5A    -11.212428     6A     -1.378123
       7A     -1.057303     8A     -0.959426     9A     -0.882250
      10A     -0.806431    11A     -0.670701    12A     -0.658155
      13A     -0.637664    14A     -0.601296    15A     -0.566869
      16A     -0.533122    17A     -0.518257    18A     -0.497895
      19A     -0.484342    20A     -0.459187    21A     -0.408523

  @DF-RHF Final Energy:  -232.22531803556680

   => Energetics <=

    Nuclear Repulsion Energy =            191.4966654767149237
    One-Electron Energy =                -694.2082954836723729
    Two-Electron Energy =                 270.4863119713905917
    DFT Exchange-Correlation Energy =       0.0000000000000000
    Empirical Dispersion Energy =           0.0000000000000000
    PCM Polarization Energy =               0.0000000000000000
    EFP Energy =                            0.0000000000000000
    Total Energy =                       -232.2253180355668292
    Molecular point group: c1
  Basis Set: CC-PVTZ
  Basis Set:

  -Total Gradient:
     Atom            X                  Y                   Z
    ------   -----------------  -----------------  -----------------
       1        0.000002274839     0.000001390841    -0.000003897089
       2        0.000002728204    -0.000009895518     0.000154850111
       3       -0.000023085792    -0.000026567680    -0.000255423280
       4        0.000003649931     0.000002425498     0.000001380371
       5       -0.000002748173    -0.000000898241     0.000002175262
       6        0.000115853550     0.000120451580     0.000234465456
       7       -0.000002836386    -0.000004032998    -0.000008823562
       8       -0.000082428708    -0.000087979121    -0.000136834761
       9       -0.000001922374     0.000001078989     0.000008148045
      10       -0.000006099334     0.000003515121     0.000005963657
      11       -0.000000918261    -0.000003116521    -0.000007596653
      12       -0.000001199684     0.000002132564     0.000001307578
      13        0.000000707942    -0.000004152516     0.000002094729
      14       -0.000006288622     0.000004753796     0.000002498284
      15        0.000002312866     0.000000894208    -0.000000308146

  **** Optimization is complete! (in 6 steps) ****
    Final optimized geometry and variables:
    Molecular point group: c1

    Geometry (in Angstrom), charge = 0, multiplicity = 1:

    H           -2.774458376542     1.128053688038     0.708592867818
    C           -2.019417840200     0.359371966520     0.627520478691
    O           -0.781825541083     0.990496979703     0.579373141921
    H           -2.220562253167    -0.225560985625    -0.265492342683
    H           -2.095782461992    -0.295781210857     1.492593763743
    C            0.331854103402     0.149611057365     0.526443399680
    C            0.664164080324    -0.323697232182    -0.881866165149
    H            0.187618937469    -0.706371453515     1.184673351918
    H            1.163590341323     0.721538635709     0.919726000871
    C            1.927875283568    -1.177062560451    -0.915313540693
    H           -0.166645705213    -0.891636607954    -1.287118735202
    H            0.785812052854     0.548130220159    -1.515724674903
    H            1.819028591321    -2.067958136096    -0.305503388054
    H            2.155432710528    -1.496006705264    -1.925135776566
    H            2.784668516820    -0.625397220490    -0.543022605610

  Mulliken Charges: (a.u.)
   Center  Symbol    Alpha    Beta     Spin     Total
       1     H     0.44601  0.44601  0.00000  0.10799
       2     C     3.03277  3.03277  0.00000 -0.06555
       3     O     4.17810  4.17810  0.00000 -0.35620
       4     H     0.47204  0.47204  0.00000  0.05593
       5     H     0.47122  0.47122  0.00000  0.05756
       6     C     2.97582  2.97582  0.00000  0.04836
       7     C     3.08463  3.08463  0.00000 -0.16926
       8     H     0.47358  0.47358  0.00000  0.05284
       9     H     0.44891  0.44891  0.00000  0.10218
      10     C     3.15335  3.15335  0.00000 -0.30669
      11     H     0.45678  0.45678  0.00000  0.08643
      12     H     0.45073  0.45073  0.00000  0.09854
      13     H     0.45543  0.45543  0.00000  0.08914
      14     H     0.44669  0.44669  0.00000  0.10662
      15     H     0.45395  0.45395  0.00000  0.09210

   Total alpha = 21.00000, Total beta = 21.00000, Total charge =  0.00000
