                              Psi4 1.0.54 Driver

  ==> Input File <==

--------------------------------------------------------------------------
set {
	reference rhf
	basis cc-pvtz
}

set_num_threads( 4 )
memory 2 gb

molecule MOL {
0 1

H	 -1.623623	 -0.153984	 -0.973766
N	 -1.173824	 -0.310545	 -0.096857
C	 -0.022588	 0.563366	 0.065815
H	 -1.852064	 -0.142398	 0.616816
C	 1.270420	 -0.230572	 -0.014245
H	 -0.045354	 1.293678	 -0.735129
H	 -0.043155	 1.123061	 1.001180
H	 1.336273	 -0.754933	 -0.959364
H	 2.130728	 0.422015	 0.082222
H	 1.323344	 -0.967006	 0.781773

	symmetry c1
}
set optking {
	frozen_dihedral = ("
		1 2 3 6
	")
}

ee,wfn = optimize('scf', return_wfn=True)
oeprop( wfn, 'DIPOLE', 'QUADRUPOLE', 'MULLIKEN_CHARGES')
f=open( 'psi4out.xyz', 'w' )
f.write( "10  " )
f.write( str(ee) + "\n" )
f.write( MOL.save_string_xyz() )
f.close()
--------------------------------------------------------------------------

    Molecular point group: c1
  Charge       = 0
  Multiplicity = 1
  Basis Set: CC-PVTZ
  Basis Set:
  @DF-RHF Final Energy:  -134.30084058424205
    Total Energy =                       -134.3008405842420814
    Molecular point group: c1
  Basis Set: CC-PVTZ
  Basis Set:
  Basis Set: CC-PVTZ
  Basis Set:
  @DF-RHF Final Energy:  -134.29963194608445
    Total Energy =                       -134.2996319460844461
  Basis Set: CC-PVTZ
  Basis Set:
  Basis Set: CC-PVTZ
  Basis Set:
  @DF-RHF Final Energy:  -134.30171902066934
    Total Energy =                       -134.3017190206692533
  Basis Set: CC-PVTZ
  Basis Set:
  Basis Set: CC-PVTZ
  Basis Set:
  @DF-RHF Final Energy:  -134.30177581317201
    Total Energy =                       -134.3017758131720143
  Basis Set: CC-PVTZ
  Basis Set:
  Basis Set: CC-PVTZ
  Basis Set:
  @DF-RHF Final Energy:  -134.30177805568644
    Total Energy =                       -134.3017780556864693
  Basis Set: CC-PVTZ
  Basis Set:
  Charge       = 0
  Multiplicity = 1
  Basis Set: CC-PVTZ
  Basis Set:

    Orbital Energies (a.u.)
    -----------------------

    Doubly Occupied:

       1A    -15.525806     2A    -11.241736     3A    -11.198802
       4A     -1.174818     5A     -0.987089     6A     -0.820697
       7A     -0.673449     8A     -0.624349     9A     -0.569909
      10A     -0.526102    11A     -0.510825    12A     -0.477608
      13A     -0.383387

  @DF-RHF Final Energy:  -134.30177829547301

   => Energetics <=

    Nuclear Repulsion Energy =             83.1272914645708738
    One-Electron Energy =                -345.4289850332821743
    Two-Electron Energy =                 127.9999152732382441
    DFT Exchange-Correlation Energy =       0.0000000000000000
    Empirical Dispersion Energy =           0.0000000000000000
    PCM Polarization Energy =               0.0000000000000000
    EFP Energy =                            0.0000000000000000
    Total Energy =                       -134.3017782954730706
    Molecular point group: c1
  Basis Set: CC-PVTZ
  Basis Set:

  -Total Gradient:
     Atom            X                  Y                   Z
    ------   -----------------  -----------------  -----------------
       1       -0.000504869528     0.000922757639     0.000655784776
       2        0.000730432170    -0.001383097117    -0.001045515753
       3       -0.000590966093     0.001175849646     0.001145084066
       4       -0.000012487476     0.000013021722     0.000014451922
       5       -0.000013454789     0.000006860157    -0.000001236618
       6        0.000395880848    -0.000734006870    -0.000769559554
       7        0.000003704451    -0.000007278588    -0.000000643732
       8       -0.000001742767     0.000003993375     0.000002897938
       9       -0.000004070354    -0.000001780273    -0.000000379698
      10       -0.000002426459     0.000003680310    -0.000000883346

  **** Optimization is complete! (in 6 steps) ****
    Final optimized geometry and variables:
    Molecular point group: c1

    Geometry (in Angstrom), charge = 0, multiplicity = 1:

    H           -1.774188697762     0.101110454687    -0.690076241030
    N           -1.210674821668    -0.159081711086     0.089076637758
    C            0.071086723086     0.544089003258     0.089990757408
    H           -1.738590116534     0.039169628787     0.909993005529
    C            1.228970501422    -0.405254484818    -0.181994341569
    H            0.079862524703     1.333299935062    -0.656258880862
    H            0.221883263997     1.026459113903     1.049451791928
    H            1.108911009073    -0.885919520744    -1.146185664066
    H            2.176120262870     0.125337754727    -0.181120700853
    H            1.267983135741    -1.182199177761     0.572005598515

  Mulliken Charges: (a.u.)
   Center  Symbol    Alpha    Beta     Spin     Total
       1     H     0.42775  0.42775  0.00000  0.14450
       2     N     3.69459  3.69459  0.00000 -0.38919
       3     C     3.03541  3.03541  0.00000 -0.07082
       4     H     0.42634  0.42634  0.00000  0.14732
       5     C     3.12123  3.12123  0.00000 -0.24247
       6     H     0.46051  0.46051  0.00000  0.07898
       7     H     0.45809  0.45809  0.00000  0.08382
       8     H     0.45812  0.45812  0.00000  0.08375
       9     H     0.46177  0.46177  0.00000  0.07646
      10     H     0.45618  0.45618  0.00000  0.08764

   Total alpha = 13.00000, Total beta = 13.00000, Total charge =  0.00000

*** Psi4 exiting successfully. Buy a developer a beer!
