                              Psi4 1.0.54 Driver

  ==> Input File <==

--------------------------------------------------------------------------
set {
	reference rhf
	basis cc-pvtz
}

set_num_threads( 4 )
memory 2 gb

molecule MOL {
0 1

H	 2.753051	 0.243456	 0.842304
N	 2.326826	 -0.066186	 0.000000
C	 0.934676	 -0.005420	 0.000000
H	 2.757548	 0.346475	 -0.794489
C	 0.226436	 -0.001077	 -1.195129
C	 0.226436	 -0.001077	 1.195129
H	 0.759091	 -0.011439	 -2.128123
C	 -1.153391	 0.009141	 -1.189028
H	 0.759091	 -0.011439	 2.128123
C	 -1.153391	 0.009141	 1.189028
H	 -1.680905	 0.012964	 -2.124348
C	 -1.857876	 0.014675	 0.000000
H	 -1.680905	 0.012964	 2.124348
H	 -2.930222	 0.022904	 0.000000

	symmetry c1
}
set optking {
	frozen_dihedral = ("
		1 2 3 5
	")
}

ee,wfn = optimize('scf', return_wfn=True)
oeprop( wfn, 'DIPOLE', 'QUADRUPOLE', 'MULLIKEN_CHARGES')
f=open( 'psi4out.xyz', 'w' )
f.write( "14  " )
f.write( str(ee) + "\n" )
f.write( MOL.save_string_xyz() )
f.close()
--------------------------------------------------------------------------

    Molecular point group: c1
  Charge       = 0
  Multiplicity = 1
  Basis Set: CC-PVTZ
  Basis Set:
  @DF-RHF Final Energy:  -285.83369835736107
    Total Energy =                       -285.8336983573611292
    Molecular point group: c1
  Basis Set: CC-PVTZ
  Basis Set:
  Basis Set: CC-PVTZ
  Basis Set:
  @DF-RHF Final Energy:  -285.83370346635240
    Total Energy =                       -285.8337034663522900
  Basis Set: CC-PVTZ
  Basis Set:
  Basis Set: CC-PVTZ
  Basis Set:
  @DF-RHF Final Energy:  -285.83370498645849
    Total Energy =                       -285.8337049864582013
  Basis Set: CC-PVTZ
  Basis Set:
  Charge       = 0
  Multiplicity = 1
  Basis Set: CC-PVTZ
  Basis Set:

    Orbital Energies (a.u.)
    -----------------------

    Doubly Occupied:

       1A    -15.556080     2A    -11.271061     3A    -11.227090
       4A    -11.227035     5A    -11.215505     6A    -11.215322
       7A    -11.210808     8A     -1.227174     9A     -1.130508
      10A     -1.013375    11A     -0.987877    12A     -0.832897
      13A     -0.813653    14A     -0.708283    15A     -0.688293
      16A     -0.654987    17A     -0.598833    18A     -0.594591
      19A     -0.581541    20A     -0.535420    21A     -0.506448
      22A     -0.487216    23A     -0.448855    24A     -0.336211
      25A     -0.294172

  @DF-RHF Final Energy:  -285.83370530754411

   => Energetics <=

    Nuclear Repulsion Energy =            273.7503766909905494
    One-Electron Energy =                -928.4416913484383258
    Two-Electron Energy =                 368.8576093499036119
    DFT Exchange-Correlation Energy =       0.0000000000000000
    Empirical Dispersion Energy =           0.0000000000000000
    PCM Polarization Energy =               0.0000000000000000
    EFP Energy =                            0.0000000000000000
    Total Energy =                       -285.8337053075441077
    Molecular point group: c1
  Basis Set: CC-PVTZ
  Basis Set:

  -Total Gradient:
     Atom            X                  Y                   Z
    ------   -----------------  -----------------  -----------------
       1       -0.000017547390    -0.000455583074     0.000189956492
       2        0.000084726200     0.000389318476    -0.000241955681
       3       -0.000076417557     0.000437442717     0.000069023382
       4       -0.000022289263     0.000002044307     0.000002818375
       5        0.000015001935    -0.000369357924     0.000004415536
       6        0.000024996658     0.000001772849    -0.000021555632
       7       -0.000001947219    -0.000004594299     0.000006780014
       8       -0.000029828798    -0.000009330714     0.000004851197
       9        0.000000440252     0.000008513563     0.000005493412
      10        0.000010617685    -0.000014286964     0.000011477305
      11       -0.000000887887     0.000004833207    -0.000000370668
      12        0.000011897124     0.000011164986    -0.000027622171
      13        0.000002634914    -0.000004150263    -0.000004543887
      14       -0.000001396656     0.000002213134     0.000001232326

  **** Optimization is complete! (in 4 steps) ****
    Final optimized geometry and variables:
    Molecular point group: c1

    Geometry (in Angstrom), charge = 0, multiplicity = 1:

    H            2.756378762634     0.245437687487     0.838760811474
    N            2.326459558596    -0.064625228958    -0.001242711539
    C            0.934771659648    -0.003149923852     0.000848361980
    H            2.758936857025     0.335352721213    -0.801045551791
    C            0.227085819542    -0.000298312887    -1.195033919819
    C            0.225774841318    -0.001059903255     1.195248279612
    H            0.760749901649    -0.012205871639    -2.127354061046
    C           -1.152411816480     0.010072339057    -1.189794329671
    H            0.757404292246    -0.009675472597     2.128885326288
    C           -1.154373290679     0.006140448480     1.188219742066
    H           -1.679376814041     0.013976811653    -2.125426132560
    C           -1.857912817026     0.013221356159    -0.001000355475
    H           -1.682437498555     0.007905973189     2.123229642767
    H           -2.930255106843     0.020344062178    -0.001777605687

  Mulliken Charges: (a.u.)
   Center  Symbol    Alpha    Beta     Spin     Total
       1     H     0.42279  0.42279  0.00000  0.15442
       2     N     3.66782  3.66782  0.00000 -0.33564
       3     C     2.88888  2.88888  0.00000  0.22224
       4     H     0.42159  0.42159  0.00000  0.15682
       5     C     3.11700  3.11700  0.00000 -0.23401
       6     C     3.11787  3.11787  0.00000 -0.23575
       7     H     0.43365  0.43365  0.00000  0.13270
       8     C     3.05782  3.05782  0.00000 -0.11564
       9     H     0.43452  0.43452  0.00000  0.13095
      10     C     3.05790  3.05790  0.00000 -0.11580
      11     H     0.42474  0.42474  0.00000  0.15052
      12     C     3.10525  3.10525  0.00000 -0.21050
      13     H     0.42476  0.42476  0.00000  0.15047
      14     H     0.42540  0.42540  0.00000  0.14921

   Total alpha = 25.00000, Total beta = 25.00000, Total charge = -0.00000

*** Psi4 exiting successfully. Buy a developer a beer!
