                              Psi4 1.0.54 Driver

  ==> Input File <==

--------------------------------------------------------------------------
set {
	reference rhf
	basis cc-pvtz
}

set_num_threads( 4 )
memory 2 gb

molecule MOL {
0 1

O	 -0.694481	 1.313155	 -0.204815
C	 -0.862519	 0.151932	 -0.046791
C	 -2.171428	 -0.477048	 0.339095
O	 0.085519	 -0.757083	 -0.192238
H	 -2.467997	 -1.191667	 -0.417688
H	 -2.923379	 0.287970	 0.444097
H	 -2.053854	 -1.015120	 1.270901
C	 -0.279566	 -2.065329	 -0.616134
C	 -0.373806	 -2.159194	 -2.124844
H	 -1.212262	 -2.342553	 -0.150256
H	 0.505249	 -2.703960	 -0.239349
H	 -0.587352	 -3.182501	 -2.412407
H	 -1.166227	 -1.527756	 -2.502651
H	 0.561123	 -1.864082	 -2.585722

	symmetry c1
}
set optking {
	frozen_dihedral = ("
		8 4 2 1
	")
}

ee,wfn = optimize('scf', return_wfn=True)
oeprop( wfn, 'DIPOLE', 'QUADRUPOLE', 'MULLIKEN_CHARGES')
f=open( 'psi4out.xyz', 'w' )
f.write( "14  " )
f.write( str(ee) + "\n" )
f.write( MOL.save_string_xyz() )
f.close()
--------------------------------------------------------------------------

    Molecular point group: c1
  Charge       = 0
  Multiplicity = 1
  Basis Set: CC-PVTZ
  Basis Set:
  @DF-RHF Final Energy:  -305.96470697818484
    Total Energy =                       -305.9647069781848359
    Molecular point group: c1
  Basis Set: CC-PVTZ
  Basis Set:
  Basis Set: CC-PVTZ
  Basis Set:
  @DF-RHF Final Energy:  -305.93675868082585
    Total Energy =                       -305.9367586808259034
  Basis Set: CC-PVTZ
  Basis Set:
  Basis Set: CC-PVTZ
  Basis Set:
  @DF-RHF Final Energy:  -305.97274494328508
    Total Energy =                       -305.9727449432850790
  Basis Set: CC-PVTZ
  Basis Set:
  Basis Set: CC-PVTZ
  Basis Set:
  @DF-RHF Final Energy:  -305.91617224095575
    Total Energy =                       -305.9161722409556887
  Basis Set: CC-PVTZ
  Basis Set:
  @DF-RHF Final Energy:  -305.97073349332925
    Total Energy =                       -305.9707334933293623
  @DF-RHF Final Energy:  -305.97490815617266
    Total Energy =                       -305.9749081561726598
  @DF-RHF Final Energy:  -305.97529892915253
    Total Energy =                       -305.9752989291523591
  Basis Set: CC-PVTZ
  Basis Set:
  @DF-RHF Final Energy:  -305.97527631904632
    Total Energy =                       -305.9752763190463156
  Basis Set: CC-PVTZ
  Basis Set:
  Basis Set: CC-PVTZ
  Basis Set:
  @DF-RHF Final Energy:  -305.97559543830158
    Total Energy =                       -305.9755954383014114
  Basis Set: CC-PVTZ
  Basis Set:
  Basis Set: CC-PVTZ
  Basis Set:
  @DF-RHF Final Energy:  -305.97560186443354
    Total Energy =                       -305.9756018644337701
  Basis Set: CC-PVTZ
  Basis Set:
  Charge       = 0
  Multiplicity = 1
  Basis Set: CC-PVTZ
  Basis Set:

    Orbital Energies (a.u.)
    -----------------------

    Doubly Occupied:

       1A    -20.589414     2A    -20.530717     3A    -11.369082
       4A    -11.297526     5A    -11.240312     6A    -11.229628
       7A     -1.464176     8A     -1.368020     9A     -1.049274
      10A     -1.017628    11A     -0.898668    12A     -0.771907
      13A     -0.698823    14A     -0.689247    15A     -0.669284
      16A     -0.617612    17A     -0.597292    18A     -0.585096
      19A     -0.555802    20A     -0.545159    21A     -0.526746
      22A     -0.498288    23A     -0.450367    24A     -0.437199

  @DF-RHF Final Energy:  -305.97560260555974

   => Energetics <=

    Nuclear Repulsion Energy =            248.8338639011138014
    One-Electron Energy =                -910.2243980700566226
    Two-Electron Energy =                 355.4149315633831634
    DFT Exchange-Correlation Energy =       0.0000000000000000
    Empirical Dispersion Energy =           0.0000000000000000
    PCM Polarization Energy =               0.0000000000000000
    EFP Energy =                            0.0000000000000000
    Total Energy =                       -305.9756026055596863
    Molecular point group: c1
  Basis Set: CC-PVTZ
  Basis Set:

  -Total Gradient:
     Atom            X                  Y                   Z
    ------   -----------------  -----------------  -----------------
       1       -0.000040310310    -0.000216086255    -0.002546866937
       2        0.000696102272     0.000316775829     0.002529207398
       3        0.000002655869     0.000013440829     0.000060536569
       4       -0.001682520141    -0.000167617668     0.001972428990
       5       -0.000010470630    -0.000004034077    -0.000026980596
       6        0.000005534636    -0.000006251991    -0.000001196850
       7       -0.000011637099     0.000008835035    -0.000016258550
       8        0.001068893078     0.000079593875    -0.001938761063
       9       -0.000014126563    -0.000030068052    -0.000020143671
      10       -0.000006224628     0.000020654349    -0.000002113039
      11       -0.000004023479    -0.000021067990     0.000001514252
      12        0.000001138238     0.000000826044    -0.000014659415
      13       -0.000008229622     0.000009859985    -0.000004559126
      14        0.000003218379    -0.000004859912     0.000007852038

  **** Optimization is complete! (in 11 steps) ****
    Final optimized geometry and variables:
    Molecular point group: c1

    Geometry (in Angstrom), charge = 0, multiplicity = 1:

    O            0.994104046580     1.675260188374     0.265951212406
    C            0.168852229365     0.840021280654     0.365632638793
    C           -1.306224134701     1.158973602876     0.414834003926
    O            0.533157303900    -0.436570699856     0.480528257893
    H           -1.811797970075     0.798289644825    -0.471961525997
    H           -1.413937949227     2.229381133583     0.468867888806
    H           -1.770679856891     0.698393651267     1.277318934026
    C           -0.254050544942    -1.510596076352     0.008115955686
    C           -0.107980970695    -1.696245642818    -1.489436023978
    H           -1.291136546289    -1.382271952272     0.287707070436
    H            0.117999884724    -2.378014090666     0.531848447137
    H           -0.667381833048    -2.568233051773    -1.808631029212
    H           -0.481078267546    -0.837949468750    -2.036163575863
    H            0.932406261246    -1.836871595690    -1.751215439103

  Mulliken Charges: (a.u.)
   Center  Symbol    Alpha    Beta     Spin     Total
       1     O     4.17852  4.17852  0.00000 -0.35705
       2     C     2.81297  2.81297  0.00000  0.37406
       3     C     3.16396  3.16396  0.00000 -0.32792
       4     O     4.14165  4.14165  0.00000 -0.28330
       5     H     0.44890  0.44890  0.00000  0.10220
       6     H     0.42735  0.42735  0.00000  0.14529
       7     H     0.44454  0.44454  0.00000  0.11092
       8     C     2.99952  2.99952  0.00000  0.00096
       9     C     3.14008  3.14008  0.00000 -0.28016
      10     H     0.45949  0.45949  0.00000  0.08102
      11     H     0.43700  0.43700  0.00000  0.12601
      12     H     0.45008  0.45008  0.00000  0.09983
      13     H     0.45393  0.45393  0.00000  0.09213
      14     H     0.44201  0.44201  0.00000  0.11599

   Total alpha = 24.00000, Total beta = 24.00000, Total charge = -0.00000

*** Psi4 exiting successfully. Buy a developer a beer!
