  ==> Input File <==

--------------------------------------------------------------------------
set {
	reference rhf
	basis 6-31G*
}

set_num_threads( 1 )
memory 2 gb

molecule MOL {
0 1

H	 -1.008068	 -0.946291	 -0.874528
N	 -0.626943	 -0.667432	 -0.000092
C	 -1.270800	 -1.134794	 1.206448
C	 0.469286	 0.129090	 0.000148
H	 -2.300290	 -0.795786	 1.253667
H	 -0.732359	 -0.737309	 2.051324
H	 -1.258454	 -2.218353	 1.259152
C	 1.788933	 -0.616240	 -0.000037
O	 0.411098	 1.327768	 -0.000049
H	 1.872803	 -1.245775	 -0.880381
H	 2.595421	 0.101576	 0.003713
H	 1.870096	 -1.252171	 0.875943

	symmetry c1
}
set optking {
	frozen_dihedral = ("
		4 2 3 5
	")
}

ee = energy('scf')
oeprop('DIPOLE', 'QUADRUPOLE', 'MULLIKEN_CHARGES')
f=open( 'psi4out.xyz', 'w' )
f.write( "12  " )
f.write( str(ee) + "\n" )
f.write( MOL.save_string_xyz() )
f.close()
--------------------------------------------------------------------------

    Molecular point group: c1

    Geometry (in Angstrom), charge = 0, multiplicity = 1:

       Center              X                  Y                   Z               Mass
    ------------   -----------------  -----------------  -----------------  -----------------
           H         -1.154436953006    -0.744772101201    -1.123586224362     1.007825032070
           N         -0.773311953006    -0.465913101201    -0.249150224362    14.003074004780
           C         -1.417168953006    -0.933275101201     0.957389775638    12.000000000000
           C          0.322917046994     0.330608898799    -0.248910224362    12.000000000000
           H         -2.446658953006    -0.594267101201     1.004608775638     1.007825032070
           H         -0.878727953006    -0.535790101201     1.802265775638     1.007825032070
           H         -1.404822953006    -2.016834101201     1.010093775638     1.007825032070
           C          1.642564046994    -0.414721101201    -0.249095224362    12.000000000000
           O          0.264729046994     1.529286898799    -0.249107224362    15.994914619560
           H          1.726434046994    -1.044256101201    -1.129439224362     1.007825032070
           H          2.449052046994     0.303094898799    -0.245345224362     1.007825032070
           H          1.723727046994    -1.050652101201     0.626884775638     1.007825032070

  Charge       = 0
  Multiplicity = 1
  Basis Set: 6-31G*
  Basis Set:

    Orbital Energies (a.u.)
    -----------------------

    Doubly Occupied:

       1A    -20.548558     2A    -15.543010     3A    -11.348226
       4A    -11.261902     5A    -11.223768     6A     -1.398422
       7A     -1.218825     8A     -1.004416     9A     -0.937826
      10A     -0.781263    11A     -0.683256    12A     -0.647639
      13A     -0.643645    14A     -0.590314    15A     -0.579588
      16A     -0.565928    17A     -0.549485    18A     -0.486822
      19A     -0.426496    20A     -0.368111

  @DF-RHF Final Energy:  -246.96292538039674

   => Energetics <=

    Nuclear Repulsion Energy =            180.9760006674077601
    One-Electron Energy =                -694.2628874976816178
    Two-Electron Energy =                 266.3239614498771175
    DFT Exchange-Correlation Energy =       0.0000000000000000
    Empirical Dispersion Energy =           0.0000000000000000
    PCM Polarization Energy =               0.0000000000000000
    EFP Energy =                            0.0000000000000000
    Total Energy =                       -246.9629253803967117

  Mulliken Charges: (a.u.)
   Center  Symbol    Alpha    Beta     Spin     Total
       1     H     0.30924  0.30924  0.00000  0.38153
       2     N     3.90635  3.90635  0.00000 -0.81270
       3     C     3.12997  3.12997  0.00000 -0.25995
       4     C     2.66494  2.66494  0.00000  0.67011
       5     H     0.41205  0.41205  0.00000  0.17590
       6     H     0.41151  0.41151  0.00000  0.17698
       7     H     0.41984  0.41984  0.00000  0.16031
       8     C     3.27623  3.27623  0.00000 -0.55245
       9     O     4.24754  4.24754  0.00000 -0.49507
      10     H     0.40997  0.40997  0.00000  0.18006
      11     H     0.40281  0.40281  0.00000  0.19438
      12     H     0.40954  0.40954  0.00000  0.18091

   Total alpha = 20.00000, Total beta = 20.00000, Total charge = -0.00000
