  ==> Input File <==

--------------------------------------------------------------------------
set {
	reference rhf
	basis 6-31G*
}

set_num_threads( 1 )
memory 2 gb

molecule MOL {
0 1

H	 0.018663	 1.795003	 1.884669
C	 0.870430	 1.205956	 1.523673
C	 0.692068	 0.589600	 0.160137
O	 1.843691	 1.090418	 2.195642
C	 -0.558097	 -0.297372	 0.091132
H	 1.588165	 0.029091	 -0.079282
H	 0.599063	 1.400645	 -0.561241
C	 -1.850991	 0.512573	 -0.019058
H	 -0.476753	 -0.965681	 -0.762987
H	 -0.604799	 -0.930658	 0.975228
C	 -3.096943	 -0.368295	 -0.099594
H	 -1.800724	 1.150330	 -0.898172
H	 -1.931651	 1.177355	 0.838044
H	 -3.060452	 -1.020287	 -0.967456
H	 -3.996858	 0.233488	 -0.175704
H	 -3.191959	 -0.995686	 0.782074

	symmetry c1
}
set optking {
	frozen_dihedral = ("
		9 5 8 12,
		4 2 3 6
	")
}

ee = energy('scf')
oeprop('DIPOLE', 'QUADRUPOLE', 'MULLIKEN_CHARGES')
f=open( 'psi4out.xyz', 'w' )
f.write( "16  " )
f.write( str(ee) + "\n" )
f.write( MOL.save_string_xyz() )
f.close()
--------------------------------------------------------------------------

    Molecular point group: c1

    Geometry (in Angstrom), charge = 0, multiplicity = 1:

       Center              X                  Y                   Z               Mass
    ------------   -----------------  -----------------  -----------------  -----------------
           H          0.376389240408     1.341447611200     1.233619864931     1.007825032070
           C          1.228156240408     0.752400611200     0.872623864931    12.000000000000
           C          1.049794240408     0.136044611200    -0.490912135069    12.000000000000
           O          2.201417240408     0.636862611200     1.544592864931    15.994914619560
           C         -0.200370759592    -0.750927388800    -0.559917135069    12.000000000000
           H          1.945891240408    -0.424464388800    -0.730331135069     1.007825032070
           H          0.956789240408     0.947089611200    -1.212290135069     1.007825032070
           C         -1.493264759592     0.059017611200    -0.670107135069    12.000000000000
           H         -0.119026759592    -1.419236388800    -1.414036135069     1.007825032070
           H         -0.247072759592    -1.384213388800     0.324178864931     1.007825032070
           C         -2.739216759592    -0.821850388800    -0.750643135069    12.000000000000
           H         -1.442997759592     0.696774611200    -1.549221135069     1.007825032070
           H         -1.573924759592     0.723799611200     0.186994864931     1.007825032070
           H         -2.702725759592    -1.473842388800    -1.618505135069     1.007825032070
           H         -3.639131759592    -0.220067388800    -0.826753135069     1.007825032070
           H         -2.834232759592    -1.449241388800     0.131024864931     1.007825032070

  Charge       = 0
  Multiplicity = 1
  Basis Set: 6-31G*
  Basis Set:

    Orbital Energies (a.u.)
    -----------------------

    Doubly Occupied:

       1A    -20.562194     2A    -11.326055     3A    -11.236330
       4A    -11.234661     5A    -11.231080     6A    -11.219783
       7A     -1.401995     8A     -1.098812     9A     -1.017576
      10A     -0.905042    11A     -0.827258    12A     -0.783550
      13A     -0.674450    14A     -0.656483    15A     -0.616094
      16A     -0.604633    17A     -0.583370    18A     -0.557559
      19A     -0.536261    20A     -0.511680    21A     -0.488171
      22A     -0.482523    23A     -0.472168    24A     -0.407938

  @DF-RHF Final Energy:  -270.01719802089917

   => Energetics <=

    Nuclear Repulsion Energy =            232.1244514483385899
    One-Electron Energy =                -825.4120573417183095
    Two-Electron Energy =                 323.2704078724804049
    DFT Exchange-Correlation Energy =       0.0000000000000000
    Empirical Dispersion Energy =           0.0000000000000000
    PCM Polarization Energy =               0.0000000000000000
    EFP Energy =                            0.0000000000000000
    Total Energy =                       -270.0171980208992863

  Mulliken Charges: (a.u.)
   Center  Symbol    Alpha    Beta     Spin     Total
       1     H     0.43114  0.43114  0.00000  0.13772
       2     C     2.83043  2.83043  0.00000  0.33914
       3     C     3.20973  3.20973  0.00000 -0.41946
       4     O     4.23798  4.23798  0.00000 -0.47596
       5     C     3.16588  3.16588  0.00000 -0.33177
       6     H     0.39740  0.39740  0.00000  0.20521
       7     H     0.40929  0.40929  0.00000  0.18141
       8     C     3.15687  3.15687  0.00000 -0.31375
       9     H     0.41150  0.41150  0.00000  0.17700
      10     H     0.41380  0.41380  0.00000  0.17241
      11     C     3.23987  3.23987  0.00000 -0.47974
      12     H     0.41975  0.41975  0.00000  0.16050
      13     H     0.42118  0.42118  0.00000  0.15764
      14     H     0.41952  0.41952  0.00000  0.16096
      15     H     0.41645  0.41645  0.00000  0.16710
      16     H     0.41921  0.41921  0.00000  0.16158

   Total alpha = 24.00000, Total beta = 24.00000, Total charge = -0.00000
