                              Psi4 1.0.54 Driver

  ==> Input File <==

--------------------------------------------------------------------------
set {
	reference rhf
	basis cc-pvtz
}

set_num_threads( 4 )
memory 2 gb

molecule MOL {
0 1

O	 1.847685	 1.294399	 -0.000190
C	 1.704209	 0.119472	 -0.000093
C	 0.380337	 -0.600947	 -0.000234
O	 2.715427	 -0.733672	 0.000025
C	 -0.824290	 0.329213	 -0.000115
H	 0.371455	 -1.255476	 -0.865660
H	 0.371410	 -1.255787	 0.864952
C	 -2.122804	 -0.402630	 0.325900
H	 -0.905257	 0.809101	 -0.968839
H	 -0.660553	 1.125766	 0.716812
C	 -3.342527	 0.514275	 0.331220
H	 -2.279786	 -1.201715	 -0.395259
H	 -2.033785	 -0.884295	 1.297143
C	 -4.640417	 -0.217193	 0.656564
H	 -3.432965	 0.995161	 -0.638691
H	 -3.187530	 1.311854	 1.052334
H	 -4.841288	 -0.999625	 -0.067788
H	 -5.485236	 0.461770	 0.651819
H	 -4.594067	 -0.680097	 1.636771
C	 4.020999	 -0.192556	 0.000019
H	 4.182809	 0.412891	 -0.879449
H	 4.692590	 -1.035653	 0.000152
H	 4.182726	 0.413087	 0.879368

	symmetry c1
}
set optking {
	frozen_dihedral = ("
		9 5 3 6
	")
}

ee,wfn = optimize('scf', return_wfn=True)
oeprop( wfn, 'DIPOLE', 'QUADRUPOLE', 'MULLIKEN_CHARGES')
f=open( 'psi4out.xyz', 'w' )
f.write( "23  " )
f.write( str(ee) + "\n" )
f.write( MOL.save_string_xyz() )
f.close()
--------------------------------------------------------------------------

    Molecular point group: c1
  Charge       = 0
  Multiplicity = 1
  Basis Set: CC-PVTZ
  Basis Set:
  @DF-RHF Final Energy:  -423.13050668698969
    Total Energy =                       -423.1305066869896336
    Molecular point group: c1
  Basis Set: CC-PVTZ
  Basis Set:
  Basis Set: CC-PVTZ
  Basis Set:
  @DF-RHF Final Energy:  -423.13057590890179
    Total Energy =                       -423.1305759089020739
  Basis Set: CC-PVTZ
  Basis Set:
  Basis Set: CC-PVTZ
  Basis Set:
  @DF-RHF Final Energy:  -423.13055011824127
    Total Energy =                       -423.1305501182414446
  Basis Set: CC-PVTZ
  Basis Set:
  Basis Set: CC-PVTZ
  Basis Set:
  @DF-RHF Final Energy:  -423.13059160282592
    Total Energy =                       -423.1305916028268257
  Basis Set: CC-PVTZ
  Basis Set:
  Basis Set: CC-PVTZ
  Basis Set:
  @DF-RHF Final Energy:  -423.13059312406045
    Total Energy =                       -423.1305931240603968
  Basis Set: CC-PVTZ
  Basis Set:
  Charge       = 0
  Multiplicity = 1
  Basis Set: CC-PVTZ
  Basis Set:

    Orbital Energies (a.u.)
    -----------------------

    Doubly Occupied:

       1A    -20.596210     2A    -20.534077     3A    -11.364438
       4A    -11.278437     5A    -11.233906     6A    -11.217080
       7A    -11.215661     8A    -11.214402     9A    -11.207703
      10A     -1.472109    11A     -1.365683    12A     -1.094288
      13A     -1.044666    14A     -0.987959    15A     -0.932593
      16A     -0.844070    17A     -0.795366    18A     -0.769091
      19A     -0.698874    20A     -0.686796    21A     -0.675309
      22A     -0.652680    23A     -0.610341    24A     -0.600779
      25A     -0.573329    26A     -0.559301    27A     -0.558352
      28A     -0.525346    29A     -0.522909    30A     -0.507439
      31A     -0.485604    32A     -0.469546    33A     -0.467068
      34A     -0.463001    35A     -0.459212    36A     -0.438116

  @DF-RHF Final Energy:  -423.13059371828120

   => Energetics <=

    Nuclear Repulsion Energy =            452.9335691838348907
    One-Electron Energy =               -1473.8848470919469946
    Two-Electron Energy =                 597.8206841898302173
    DFT Exchange-Correlation Energy =       0.0000000000000000
    Empirical Dispersion Energy =           0.0000000000000000
    PCM Polarization Energy =               0.0000000000000000
    EFP Energy =                            0.0000000000000000
    Total Energy =                       -423.1305937182819434
    Molecular point group: c1
  Basis Set: CC-PVTZ
  Basis Set:

  -Total Gradient:
     Atom            X                  Y                   Z
    ------   -----------------  -----------------  -----------------
       1       -0.000009628979     0.000002295462     0.000009584262
       2        0.000001931223    -0.000014002459    -0.000001297045
       3       -0.001736814160    -0.002234093278     0.001218994968
       4        0.000000717945     0.000000203397    -0.000004893842
       5        0.001843549500     0.002355221575     0.000617771970
       6        0.001156377524     0.001475647651    -0.001121565966
       7        0.000000371417     0.000005676315     0.000002057680
       8        0.000006605474     0.000009497777    -0.000025101862
       9       -0.001271114373    -0.001627500184    -0.000690264966
      10        0.000004612014     0.000024218524     0.000001400208
      11       -0.000017138964    -0.000006052210    -0.000015811050
      12       -0.000002000462    -0.000012095757    -0.000006070868
      13        0.000012977871     0.000004275693     0.000001209696
      14       -0.000000591300     0.000013126239     0.000010538355
      15       -0.000004155604     0.000003614442    -0.000007150452
      16       -0.000005245740     0.000003486167     0.000002169438
      17        0.000002817894     0.000001269491    -0.000006992588
      18       -0.000011904848     0.000003546926     0.000005361501
      19       -0.000000075302    -0.000006111270     0.000006922131
      20        0.000017389857    -0.000003569517     0.000001613013
      21        0.000000648306     0.000000170754    -0.000000197267
      22        0.000007716758    -0.000001725770    -0.000000510759
      23        0.000002953951     0.000002900032     0.000002233443

  **** Optimization is complete! (in 6 steps) ****
    Final optimized geometry and variables:
    Molecular point group: c1

    Geometry (in Angstrom), charge = 0, multiplicity = 1:

    O            1.845818654972     1.281110472047    -0.144438280594
    C            1.697081990578     0.106891955532    -0.134540161071
    C            0.370442980904    -0.610343680645    -0.109846862275
    O            2.704951927734    -0.750410629460    -0.146450603928
    C           -0.831474120372     0.325370366183    -0.104868526453
    H            0.357573310923    -1.260649387973    -0.978121973630
    H            0.373206294133    -1.260109394402     0.758660063119
    C           -2.135549948074    -0.411909407614     0.190005157072
    H           -0.909778112549     0.808985518084    -1.072524175238
    H           -0.676847955953     1.110728818443     0.624318050046
    C           -3.359213476386     0.499164004894     0.159954809486
    H           -2.270740619090    -1.215580214600    -0.530722238791
    H           -2.068434675075    -0.887985298765     1.165646705615
    C           -4.660624353899    -0.235067598651     0.464395586984
    H           -3.431168285465     0.970370846489    -0.816298624910
    H           -3.223195444400     1.304346301342     0.876464133314
    H           -4.842426823644    -1.025271768152    -0.256592196423
    H           -5.508159189603     0.439929859477     0.435086320174
    H           -4.633276612451    -0.688443189285     1.449753916295
    C            4.012482929941    -0.214829088922    -0.171599306259
    H            4.162029375723     0.384760461284    -1.057247596453
    H            4.680615303576    -1.060686657522    -0.177730852493
    H            4.191641795342     0.395313959488     0.701263636110

  Mulliken Charges: (a.u.)
   Center  Symbol    Alpha    Beta     Spin     Total
       1     O     4.19674  4.19674  0.00000 -0.39347
       2     C     2.80639  2.80639  0.00000  0.38721
       3     C     3.10170  3.10170  0.00000 -0.20341
       4     O     4.14676  4.14676  0.00000 -0.29351
       5     C     3.08430  3.08430  0.00000 -0.16860
       6     H     0.43924  0.43924  0.00000  0.12151
       7     H     0.44029  0.44029  0.00000  0.11941
       8     C     3.08956  3.08956  0.00000 -0.17913
       9     H     0.44958  0.44958  0.00000  0.10084
      10     H     0.44259  0.44259  0.00000  0.11482
      11     C     3.08417  3.08417  0.00000 -0.16833
      12     H     0.45599  0.45599  0.00000  0.08803
      13     H     0.45558  0.45558  0.00000  0.08884
      14     C     3.15026  3.15026  0.00000 -0.30052
      15     H     0.45356  0.45356  0.00000  0.09288
      16     H     0.45301  0.45301  0.00000  0.09398
      17     H     0.45543  0.45543  0.00000  0.08914
      18     H     0.44778  0.44778  0.00000  0.10444
      19     H     0.45523  0.45523  0.00000  0.08953
      20     C     3.03767  3.03767  0.00000 -0.07534
      21     H     0.45442  0.45442  0.00000  0.09115
      22     H     0.44539  0.44539  0.00000  0.10921
      23     H     0.45435  0.45435  0.00000  0.09130

   Total alpha = 36.00000, Total beta = 36.00000, Total charge = -0.00000

*** Psi4 exiting successfully. Buy a developer a beer!
