  ==> Input File <==

--------------------------------------------------------------------------
set {
	reference rhf
	basis cc-pvtz
}

set_num_threads( 4 )
memory 2 gb

molecule MOL {
0 1

H	 2.412772	 0.001043	 0.418079
O	 1.543830	 0.134732	 0.747795
C	 0.700177	 0.619554	 -0.266242
C	 -0.713111	 0.588314	 0.266177
H	 0.767920	 -0.004790	 -1.151979
H	 0.965243	 1.638041	 -0.537906
O	 -1.421673	 -0.521378	 -0.196983
H	 -1.244794	 1.469161	 -0.069059
H	 -0.685100	 0.604721	 1.352683
H	 -0.933408	 -1.297830	 0.014544

	symmetry c1
}
set optking {
	frozen_dihedral = ("
		5 3 4 7
	")
}

ee = optimize('scf')
oeprop('DIPOLE', 'QUADRUPOLE', 'MULLIKEN_CHARGES')
f=open( 'psi4out.xyz', 'w' )
f.write( "10  " )
f.write( str(ee) + "\n" )
f.write( MOL.save_string_xyz() )
f.close()
--------------------------------------------------------------------------

    Molecular point group: c1
  Charge       = 0
  Multiplicity = 1
  Basis Set: CC-PVTZ
  Basis Set:
  @DF-RHF Final Energy:  -229.02190231435279
    Total Energy =                       -229.0219023143527863
    Molecular point group: c1
  Basis Set: CC-PVTZ
  Basis Set:
  Basis Set: CC-PVTZ
  Basis Set:
  @DF-RHF Final Energy:  -229.02285014431038
    Total Energy =                       -229.0228501443103255
  Basis Set: CC-PVTZ
  Basis Set:
  Basis Set: CC-PVTZ
  Basis Set:
  @DF-RHF Final Energy:  -229.02312063377670
    Total Energy =                       -229.0231206337766707
  Basis Set: CC-PVTZ
  Basis Set:
  Basis Set: CC-PVTZ
  Basis Set:
  @DF-RHF Final Energy:  -229.02313360194665
    Total Energy =                       -229.0231336019465971
  Basis Set: CC-PVTZ
  Basis Set:
  Charge       = 0
  Multiplicity = 1
  Basis Set: CC-PVTZ
  Basis Set:

    Orbital Energies (a.u.)
    -----------------------

    Doubly Occupied:

       1A    -20.553943     2A    -20.548137     3A    -11.270826
       4A    -11.267264     5A     -1.377056     6A     -1.359695
       7A     -0.999863     8A     -0.845858     9A     -0.727909
      10A     -0.676190    11A     -0.651774    12A     -0.608747
      13A     -0.575469    14A     -0.526827    15A     -0.493635
      16A     -0.454664    17A     -0.436624

  @DF-RHF Final Energy:  -229.02313435516237

   => Energetics <=

    Nuclear Repulsion Energy =            132.3374074387392625
    One-Electron Energy =                -575.9721261438241982
    Two-Electron Energy =                 214.6115843499225093
    DFT Exchange-Correlation Energy =       0.0000000000000000
    Empirical Dispersion Energy =           0.0000000000000000
    PCM Polarization Energy =               0.0000000000000000
    EFP Energy =                            0.0000000000000000
    Total Energy =                       -229.0231343551624263
    Molecular point group: c1
  Basis Set: CC-PVTZ
  Basis Set:

  -Total Gradient:
     Atom            X                  Y                   Z
    ------   -----------------  -----------------  -----------------
       1       -0.000008156100     0.000012474635    -0.000001022590
       2       -0.000049019615     0.000001734772    -0.000024826714
       3       -0.002227096484     0.006904421678    -0.005448095579
       4        0.002325204018    -0.004738224856     0.005879771104
       5        0.001415397175    -0.004825488511     0.003357064727
       6        0.000015417002     0.000009348916    -0.000008193075
       7       -0.001508053877     0.002608374684    -0.003765294338
       8        0.000031649091     0.000004802465     0.000004783415
       9        0.000006108276     0.000010558424     0.000007412437
      10       -0.000001449492     0.000011997793    -0.000001599386

  **** Optimization is complete! (in 5 steps) ****
    Final optimized geometry and variables:
    Molecular point group: c1

    Geometry (in Angstrom), charge = 0, multiplicity = 1:

    H            2.391517484602    -0.107416305136     0.280472671746
    O            1.509082151150    -0.064084818714     0.599787607684
    C            0.660826727299     0.478631016667    -0.386442225377
    C           -0.770320779548     0.407564789851     0.126306774029
    H            0.732691402772    -0.121650769417    -1.286825654675
    H            0.940550917946     1.504296508475    -0.604410986860
    O           -1.480249450814    -0.694525986666    -0.367024462429
    H           -1.319119552580     1.276230049801    -0.211568597659
    H           -0.754029649698     0.422479157781     1.210242215820
    H           -1.145479558733    -1.486016298258     0.015358578138

  Mulliken Charges: (a.u.)
   Center  Symbol    Alpha    Beta     Spin     Total
       1     H     0.39283  0.39283  0.00000  0.21433
       2     O     4.20369  4.20369  0.00000 -0.40739
       3     C     2.97760  2.97760  0.00000  0.04480
       4     C     2.96661  2.96661  0.00000  0.06679
       5     H     0.46844  0.46844  0.00000  0.06312
       6     H     0.47207  0.47207  0.00000  0.05586
       7     O     4.20447  4.20447  0.00000 -0.40894
       8     H     0.45970  0.45970  0.00000  0.08060
       9     H     0.46448  0.46448  0.00000  0.07105
      10     H     0.39011  0.39011  0.00000  0.21977

   Total alpha = 17.00000, Total beta = 17.00000, Total charge = -0.00000
