  ==> Input File <==

--------------------------------------------------------------------------
set {
	reference rhf
	basis 6-31G*
}

set_num_threads( 4 )
memory 2 gb

molecule MOL {
0 1

H	 -4.029912	 -0.469861	 -0.178081
C	 -2.965745	 -0.313979	 -0.183939
C	 -2.454268	 0.955406	 -0.407991
C	 -2.110234	 -1.382709	 0.032510
H	 -3.118859	 1.783387	 -0.575721
C	 -1.085849	 1.155053	 -0.415376
H	 -2.508547	 -2.365994	 0.206016
C	 -0.740079	 -1.185223	 0.025562
H	 -0.672338	 2.130348	 -0.587074
C	 -0.224318	 0.085785	 -0.198697
H	 -0.074357	 -2.009378	 0.192605
C	 1.241438	 0.353915	 -0.216658
O	 1.970282	 -0.730723	 0.000018
O	 1.719174	 1.428628	 -0.405392
C	 3.377318	 -0.566646	 -0.000065
H	 3.695437	 -0.028981	 -0.881264
H	 3.789299	 -1.563704	 0.000236
H	 3.695516	 -0.028316	 0.880770

	symmetry c1
}
set optking {
	frozen_dihedral = ("
		12 13 15 16
	")
}

ee = optimize('scf')
oeprop('DIPOLE', 'QUADRUPOLE', 'MULLIKEN_CHARGES')
f=open( 'psi4out.xyz', 'w' )
f.write( "18  " )
f.write( str(ee) + "\n" )
f.write( MOL.save_string_xyz() )
f.close()
--------------------------------------------------------------------------

    Molecular point group: c1
  Charge       = 0
  Multiplicity = 1
  Basis Set: 6-31G*
  Basis Set:
  @DF-RHF Final Energy:  -457.35046313463749
    Total Energy =                       -457.3504631346372662
    Molecular point group: c1
  Basis Set: 6-31G*
  Basis Set:
  Basis Set: 6-31G*
  Basis Set:
  @DF-RHF Final Energy:  -457.35047435086648
    Total Energy =                       -457.3504743508665342
  Basis Set: 6-31G*
  Basis Set:
  Basis Set: 6-31G*
  Basis Set:
  @DF-RHF Final Energy:  -457.35039308448791
    Total Energy =                       -457.3503930844879051
  Basis Set: 6-31G*
  Basis Set:
  Basis Set: 6-31G*
  Basis Set:
  @DF-RHF Final Energy:  -457.35048594433061
    Total Energy =                       -457.3504859443311261
  Basis Set: 6-31G*
  Basis Set:
  Charge       = 0
  Multiplicity = 1
  Basis Set: 6-31G*
  Basis Set:

    Orbital Energies (a.u.)
    -----------------------

    Doubly Occupied:

       1A    -20.607597     2A    -20.544394     3A    -11.378032
       4A    -11.282850     5A    -11.245540     6A    -11.245240
       7A    -11.244101     8A    -11.241666     9A    -11.237435
      10A    -11.236673    11A     -1.472622    12A     -1.363960
      13A     -1.165247    14A     -1.048083    15A     -1.024771
      16A     -0.978245    17A     -0.860152    18A     -0.834282
      19A     -0.777781    20A     -0.739969    21A     -0.683422
      22A     -0.677071    23A     -0.671885    24A     -0.631111
      25A     -0.623932    26A     -0.597760    27A     -0.584917
      28A     -0.561596    29A     -0.529152    30A     -0.516611
      31A     -0.503394    32A     -0.498893    33A     -0.458912
      34A     -0.444385    35A     -0.344830    36A     -0.340946

  @DF-RHF Final Energy:  -457.35048729812223

   => Energetics <=

    Nuclear Repulsion Energy =            492.9811425979618775
    One-Electron Energy =               -1600.2683476151823925
    Two-Electron Energy =                 649.9367177190983966
    DFT Exchange-Correlation Energy =       0.0000000000000000
    Empirical Dispersion Energy =           0.0000000000000000
    PCM Polarization Energy =               0.0000000000000000
    EFP Energy =                            0.0000000000000000
    Total Energy =                       -457.3504872981220615
    Molecular point group: c1
  Basis Set: 6-31G*
  Basis Set:

  -Total Gradient:
     Atom            X                  Y                   Z
    ------   -----------------  -----------------  -----------------
       1        0.000000283485     0.000000139748    -0.000000262206
       2       -0.000000287641     0.000004584940    -0.000000887560
       3       -0.000002129836    -0.000001847428     0.000003070895
       4        0.000005743422    -0.000002315941    -0.000000817070
       5        0.000000334243     0.000000168075    -0.000001525412
       6        0.000005300764    -0.000002176802    -0.000004818235
       7        0.000000183132     0.000000668820     0.000001340062
       8       -0.000004142170    -0.000003983259     0.000003417667
       9       -0.000000482199     0.000001182226     0.000002098201
      10        0.000006653099    -0.000001344032     0.000004273770
      11        0.000001376696     0.000000221702    -0.000001435252
      12        0.000008994133    -0.000126538408    -0.000849808224
      13       -0.000037165224     0.000439345035     0.001319029868
      14       -0.000007283833    -0.000013916299     0.000006172902
      15        0.000119808729    -0.001155394975    -0.000963518559
      16       -0.000095861746     0.000864228181     0.000483550753
      17       -0.000004081064    -0.000002888742     0.000000642107
      18        0.000002755999    -0.000000132846    -0.000000523708

  **** Optimization is complete! (in 5 steps) ****
    Final optimized geometry and variables:
    Molecular point group: c1

    Geometry (in Angstrom), charge = 0, multiplicity = 1:

    H           -4.031156630513    -0.457049453408    -0.010179461833
    C           -2.967179025115    -0.300073302975    -0.013728135055
    C           -2.456533025900     0.970200722837    -0.234826202737
    C           -2.111074993516    -1.368274462150     0.202817868456
    H           -3.121605725753     1.797837865707    -0.402567481371
    C           -1.088372955833     1.171264472691    -0.239132709648
    H           -2.508786040369    -2.352174417650     0.374101959182
    C           -0.741110730064    -1.169349579368     0.198821416253
    H           -0.675623427598     2.147272616611    -0.408421089303
    C           -0.226148674027     0.102511825877    -0.022522715812
    H           -0.075103577269    -1.993188359320     0.366095697696
    C            1.239503840097     0.372412711715    -0.037531029605
    O            1.968292313343    -0.711325222534     0.183239528834
    O            1.715788161133     1.447834234186    -0.226223829344
    C            3.376190634038    -0.555236969087     0.167746480228
    H            3.691587673274    -0.029519108879    -0.720456174414
    H            3.784783534599    -1.553366206079     0.187188202956
    H            3.700071086195    -0.002562138525     1.038707414699

  Mulliken Charges: (a.u.)
   Center  Symbol    Alpha    Beta     Spin     Total
       1     H     0.39540  0.39540  0.00000  0.20920
       2     C     3.08999  3.08999  0.00000 -0.17998
       3     C     3.10712  3.10712  0.00000 -0.21424
       4     C     3.10717  3.10717  0.00000 -0.21434
       5     H     0.39538  0.39538  0.00000  0.20925
       6     C     3.08641  3.08641  0.00000 -0.17282
       7     H     0.39627  0.39627  0.00000  0.20746
       8     C     3.08713  3.08713  0.00000 -0.17427
       9     H     0.37596  0.37596  0.00000  0.24809
      10     C     3.07718  3.07718  0.00000 -0.15436
      11     H     0.38044  0.38044  0.00000  0.23911
      12     C     2.57960  2.57960  0.00000  0.84079
      13     O     4.31492  4.31492  0.00000 -0.62984
      14     O     4.29185  4.29185  0.00000 -0.58370
      15     C     3.09302  3.09302  0.00000 -0.18604
      16     H     0.40456  0.40456  0.00000  0.19089
      17     H     0.40801  0.40801  0.00000  0.18398
      18     H     0.40959  0.40959  0.00000  0.18082

   Total alpha = 36.00000, Total beta = 36.00000, Total charge = -0.00000
