                              Psi4 1.0.54 Driver

  ==> Input File <==

--------------------------------------------------------------------------
set {
	reference rhf
	basis cc-pvtz
}

set_num_threads( 4 )
memory 2 gb

molecule MOL {
0 1

H	 0.044439	 -5.891626	 1.638033
C	 0.366469	 -4.928564	 1.259988
C	 -0.809072	 -3.964892	 1.141276
H	 1.121044	 -4.544022	 1.938060
H	 0.840719	 -5.093638	 0.298294
C	 -0.401240	 -2.597826	 0.612342
H	 -1.284249	 -3.835560	 2.107322
H	 -1.560413	 -4.393347	 0.482118
N	 -1.533402	 -1.700194	 0.533595
H	 0.330825	 -2.157959	 1.282989
H	 0.098572	 -2.717436	 -0.353559
C	 -1.215959	 -0.382435	 0.027143
H	 -2.251651	 -2.111868	 -0.024940
C	 -2.451944	 0.502410	 -0.038737
H	 -0.487863	 0.068226	 0.694944
H	 -0.745621	 -0.421884	 -0.959925
C	 -3.752217	 -0.292550	 0.005776
H	 -2.407325	 1.093801	 -0.946480
H	 -2.431979	 1.206234	 0.790023
H	 -3.817783	 -0.982946	 -0.828547
H	 -4.612613	 0.364348	 -0.042306
H	 -3.830160	 -0.871666	 0.919868

	symmetry c1
}
set optking {
	frozen_dihedral = ("
		15 12 14 18
	")
}

ee,wfn = optimize('scf', return_wfn=True)
oeprop( wfn, 'DIPOLE', 'QUADRUPOLE', 'MULLIKEN_CHARGES')
f=open( 'psi4out.xyz', 'w' )
f.write( "22  " )
f.write( str(ee) + "\n" )
f.write( MOL.save_string_xyz() )
f.close()
--------------------------------------------------------------------------

    Molecular point group: c1
  Charge       = 0
  Multiplicity = 1
  Basis Set: CC-PVTZ
  Basis Set:
  @DF-RHF Final Energy:  -290.47923228461713
    Total Energy =                       -290.4792322846170691
    Molecular point group: c1
  Basis Set: CC-PVTZ
  Basis Set:
  Basis Set: CC-PVTZ
  Basis Set:
  @DF-RHF Final Energy:  -290.38965846624632
    Total Energy =                       -290.3896584662462601
  Basis Set: CC-PVTZ
  Basis Set:
  Basis Set: CC-PVTZ
  Basis Set:
  @DF-RHF Final Energy:  -290.46775774013128
    Total Energy =                       -290.4677577401310486
  Basis Set: CC-PVTZ
  Basis Set:
  Basis Set: CC-PVTZ
  Basis Set:
  @DF-RHF Final Energy:  -290.48143273123179
    Total Energy =                       -290.4814327312321893
  Basis Set: CC-PVTZ
  Basis Set:
  Basis Set: CC-PVTZ
  Basis Set:
  @DF-RHF Final Energy:  -290.48207758496864
    Total Energy =                       -290.4820775849686925
  Basis Set: CC-PVTZ
  Basis Set:
  Basis Set: CC-PVTZ
  Basis Set:
  @DF-RHF Final Energy:  -290.48214066292786
    Total Energy =                       -290.4821406629278613
  Basis Set: CC-PVTZ
  Basis Set:
  Basis Set: CC-PVTZ
  Basis Set:
  @DF-RHF Final Energy:  -290.48214337381177
    Total Energy =                       -290.4821433738115957
  Basis Set: CC-PVTZ
  Basis Set:
  Charge       = 0
  Multiplicity = 1
  Basis Set: CC-PVTZ
  Basis Set:

    Orbital Energies (a.u.)
    -----------------------

    Doubly Occupied:

       1A    -15.527435     2A    -11.237064     3A    -11.236024
       4A    -11.212462     5A    -11.211911     6A    -11.207623
       7A    -11.204324     8A     -1.206656     9A     -1.057354
      10A     -1.022079    11A     -0.927851    12A     -0.881676
      13A     -0.805094    14A     -0.785823    15A     -0.670165
      16A     -0.629801    17A     -0.625913    18A     -0.594452
      19A     -0.575649    20A     -0.568599    21A     -0.537064
      22A     -0.529114    23A     -0.504042    24A     -0.486863
      25A     -0.482062    26A     -0.472351    27A     -0.464172
      28A     -0.451236    29A     -0.359411

  @DF-RHF Final Energy:  -290.48214388572859

   => Energetics <=

    Nuclear Repulsion Energy =            318.6779628194684051
    One-Electron Energy =               -1023.3716714297515864
    Two-Electron Energy =                 414.2115647245543641
    DFT Exchange-Correlation Energy =       0.0000000000000000
    Empirical Dispersion Energy =           0.0000000000000000
    PCM Polarization Energy =               0.0000000000000000
    EFP Energy =                            0.0000000000000000
    Total Energy =                       -290.4821438857288740
    Molecular point group: c1
  Basis Set: CC-PVTZ
  Basis Set:

  -Total Gradient:
     Atom            X                  Y                   Z
    ------   -----------------  -----------------  -----------------
       1        0.000000303970     0.000002700756    -0.000007546492
       2       -0.000017924043     0.000013441381     0.000022016241
       3        0.000009791906     0.000020294725    -0.000024285587
       4        0.000000557646     0.000002256904    -0.000005849814
       5        0.000023701963    -0.000012582127    -0.000016380763
       6       -0.000030093129     0.000016905688     0.000008579259
       7       -0.000019009358     0.000007520111     0.000013739387
       8        0.000002935763     0.000002686988     0.000001211383
       9       -0.000025861572    -0.000039438234    -0.000019831703
      10        0.000006543536    -0.000004988085     0.000007450024
      11        0.000015626445    -0.000013487822    -0.000011869252
      12        0.004184527666     0.001588448492    -0.005195980471
      13        0.000008099246    -0.000024611507     0.000013719849
      14        0.002039893061     0.004516706630     0.004693225166
      15       -0.003829062492    -0.001987602776     0.003687037855
      16        0.000000878987     0.000003600598    -0.000022101302
      17       -0.000017041794     0.000002488208     0.000019944137
      18       -0.002345448739    -0.004078246321    -0.003154031975
      19        0.000015812619     0.000003386546     0.000022925457
      20        0.000015241557    -0.000030748445    -0.000028245406
      21       -0.000009568353    -0.000015903575    -0.000013757929
      22       -0.000029904883     0.000027171863     0.000010031936

  **** Optimization is complete! (in 8 steps) ****
    Final optimized geometry and variables:
    Molecular point group: c1

    Geometry (in Angstrom), charge = 0, multiplicity = 1:

    H            0.657243774982    -3.819453634904     2.122705985747
    C            1.160710717097    -2.935661619655     1.749121501226
    C            0.174169986358    -1.982300535548     1.083926148129
    H            1.659027853666    -2.460936729343     2.587767123923
    H            1.925835049821    -3.261698413030     1.052426054964
    C            0.840376872569    -0.725090946756     0.544747625598
    H           -0.596358944323    -1.691713376539     1.789461969349
    H           -0.330118943810    -2.497295306914     0.269665441744
    N           -0.124589586936     0.169859056090    -0.056771900749
    H            1.326420821036    -0.199312466662     1.361110096235
    H            1.633374347742    -1.007570188940    -0.154564188248
    C            0.466452789157     1.371543082822    -0.616465636024
    H           -0.638259443649    -0.321590436996    -0.756307065750
    C           -0.571696298140     2.383484500748    -1.145714120497
    H            1.010829494358     1.832547688706     0.199319242913
    H            1.188507240180     1.136890175190    -1.400586412979
    C           -1.933026516226     1.799258181625    -1.526022351945
    H           -0.167987157478     2.842498136060    -2.041981398571
    H           -0.723102163387     3.167832881750    -0.414228944951
    H           -1.842432099138     1.042353063095    -2.299732425790
    H           -2.573574981012     2.580961385254    -1.917777693560
    H           -2.429400787664     1.353343473271    -0.675239595216

  Mulliken Charges: (a.u.)
   Center  Symbol    Alpha    Beta     Spin     Total
       1     H     0.44768  0.44768  0.00000  0.10464
       2     C     3.15355  3.15355  0.00000 -0.30711
       3     C     3.08152  3.08152  0.00000 -0.16304
       4     H     0.45467  0.45467  0.00000  0.09067
       5     H     0.45609  0.45609  0.00000  0.08783
       6     C     3.02105  3.02105  0.00000 -0.04211
       7     H     0.44894  0.44894  0.00000  0.10211
       8     H     0.45993  0.45993  0.00000  0.08013
       9     N     3.64330  3.64330  0.00000 -0.28659
      10     H     0.45904  0.45904  0.00000  0.08192
      11     H     0.47505  0.47505  0.00000  0.04989
      12     C     3.03426  3.03426  0.00000 -0.06853
      13     H     0.43985  0.43985  0.00000  0.12030
      14     C     3.08104  3.08104  0.00000 -0.16207
      15     H     0.45775  0.45775  0.00000  0.08450
      16     H     0.46841  0.46841  0.00000  0.06318
      17     C     3.15930  3.15930  0.00000 -0.31860
      18     H     0.45448  0.45448  0.00000  0.09104
      19     H     0.45222  0.45222  0.00000  0.09557
      20     H     0.45922  0.45922  0.00000  0.08156
      21     H     0.44734  0.44734  0.00000  0.10532
      22     H     0.44531  0.44531  0.00000  0.10939

   Total alpha = 29.00000, Total beta = 29.00000, Total charge =  0.00000

*** Psi4 exiting successfully. Buy a developer a beer!
