  ==> Input File <==

--------------------------------------------------------------------------
set {
	reference rhf
	basis cc-pvtz
}

set_num_threads( 4 )
memory 2 gb

molecule MOL {
0 1

H	 -2.698799	 -0.000846	 0.036018
C	 -1.694291	 -0.000483	 0.434279
O	 -0.828718	 -0.000608	 -0.655022
H	 -1.576855	 0.881100	 1.056504
H	 -1.576401	 -0.881658	 1.057001
C	 -1.356145	 -0.215020	 -1.940994
C	 -1.967163	 -1.602756	 -2.099479
C	 -2.311738	 0.891150	 -2.373982
H	 -0.482248	 -0.164443	 -2.578461
H	 -1.277733	 -2.360562	 -1.748087
H	 -2.178788	 -1.793838	 -3.145160
H	 -2.898105	 -1.705484	 -1.554157
H	 -1.861253	 1.862851	 -2.213037
H	 -2.535994	 0.790681	 -3.429628
H	 -3.251762	 0.854656	 -1.835870

	symmetry c1
}
set optking {
	frozen_dihedral = ("
		6 3 2 1
	")
}

ee = optimize('scf')
oeprop('DIPOLE', 'QUADRUPOLE', 'MULLIKEN_CHARGES')
f=open( 'psi4out.xyz', 'w' )
f.write( "15  " )
f.write( str(ee) + "\n" )
f.write( MOL.save_string_xyz() )
f.close()
--------------------------------------------------------------------------

    Molecular point group: c1
  Charge       = 0
  Multiplicity = 1
  Basis Set: CC-PVTZ
  Basis Set:
  @DF-RHF Final Energy:  -232.22177315493190
    Total Energy =                       -232.2217731549320092
    Molecular point group: c1
  Basis Set: CC-PVTZ
  Basis Set:
  Basis Set: CC-PVTZ
  Basis Set:
  @DF-RHF Final Energy:  -232.22334113990675
    Total Energy =                       -232.2233411399066085
  Basis Set: CC-PVTZ
  Basis Set:
  Basis Set: CC-PVTZ
  Basis Set:
  @DF-RHF Final Energy:  -232.22399029998513
    Total Energy =                       -232.2239902999854735
  Basis Set: CC-PVTZ
  Basis Set:
  Basis Set: CC-PVTZ
  Basis Set:
  @DF-RHF Final Energy:  -232.22400290508403
    Total Energy =                       -232.2240029050841486
  Basis Set: CC-PVTZ
  Basis Set:
  Basis Set: CC-PVTZ
  Basis Set:
  @DF-RHF Final Energy:  -232.22400850242434
    Total Energy =                       -232.2240085024241125
  Basis Set: CC-PVTZ
  Basis Set:
  Basis Set: CC-PVTZ
  Basis Set:
  @DF-RHF Final Energy:  -232.22400992331714
    Total Energy =                       -232.2240099233171122
  Basis Set: CC-PVTZ
  Basis Set:
  Charge       = 0
  Multiplicity = 1
  Basis Set: CC-PVTZ
  Basis Set:

    Orbital Energies (a.u.)
    -----------------------

    Doubly Occupied:

       1A    -20.539496     2A    -11.273241     3A    -11.258930
       4A    -11.208826     5A    -11.208378     6A     -1.371196
       7A     -1.051013     8A     -0.940376     9A     -0.931736
      10A     -0.781813    11A     -0.677171    12A     -0.640349
      13A     -0.633674    14A     -0.570379    15A     -0.563640
      16A     -0.552470    17A     -0.538000    18A     -0.501292
      19A     -0.498568    20A     -0.443526    21A     -0.406002

  @DF-RHF Final Energy:  -232.22401119773050

   => Energetics <=

    Nuclear Repulsion Energy =            198.8805649044084305
    One-Electron Energy =                -709.0290039202272965
    Two-Electron Energy =                 277.9244278180881906
    DFT Exchange-Correlation Energy =       0.0000000000000000
    Empirical Dispersion Energy =           0.0000000000000000
    PCM Polarization Energy =               0.0000000000000000
    EFP Energy =                            0.0000000000000000
    Total Energy =                       -232.2240111977307038
    Molecular point group: c1
  Basis Set: CC-PVTZ
  Basis Set:

  -Total Gradient:
     Atom            X                  Y                   Z
    ------   -----------------  -----------------  -----------------
       1        0.000032347540    -0.001062237853     0.000011321457
       2       -0.000130730002     0.001802392442    -0.000058094508
       3        0.000230083052    -0.001576186607     0.000129485609
       4       -0.000002314812    -0.000003588957     0.000006916720
       5       -0.000001187819     0.000004099658     0.000006194199
       6       -0.000101352956     0.000843412435    -0.000082428082
       7       -0.000015739771     0.000003594356    -0.000007036916
       8       -0.000002797904    -0.000009145695     0.000011254043
       9       -0.000008651212    -0.000000754048    -0.000016904922
      10        0.000002863558     0.000008852418    -0.000001967207
      11       -0.000002959732    -0.000002930184    -0.000003052628
      12       -0.000003792928    -0.000001341434     0.000002191821
      13        0.000003146699    -0.000000748792    -0.000000006960
      14        0.000006409902    -0.000005947268     0.000002830842
      15       -0.000005323614     0.000000529529    -0.000000703467

  **** Optimization is complete! (in 7 steps) ****
    Final optimized geometry and variables:
    Molecular point group: c1

    Geometry (in Angstrom), charge = 0, multiplicity = 1:

    H           -1.117965556429     0.123867365208     1.457383792382
    C           -0.075682762626     0.161175124013     1.747228931593
    O            0.795541564472     0.198418669213     0.657595135395
    H            0.077337877915     1.047065976660     2.350893735352
    H            0.129277014666    -0.710869112659     2.359453073545
    C            0.293373596903    -0.027091506408    -0.635871745701
    C           -0.313344602457    -1.417054800843    -0.789713218145
    C           -0.648209964051     1.081154312681    -1.093348824514
    H            1.178343872728     0.016926183941    -1.258413531338
    H            0.389557167966    -2.171274740842    -0.457832614051
    H           -0.551135098736    -1.607072222798    -1.830060341424
    H           -1.227984283401    -1.528221535391    -0.218477197775
    H           -0.178710363508     2.047903511797    -0.960267632143
    H           -0.883632010077     0.957778245700    -2.144344274015
    H           -1.583852535884     1.077846962287    -0.546289490380

  Mulliken Charges: (a.u.)
   Center  Symbol    Alpha    Beta     Spin     Total
       1     H     0.46938  0.46938  0.00000  0.06124
       2     C     3.03852  3.03852  0.00000 -0.07703
       3     O     4.18761  4.18761  0.00000 -0.37522
       4     H     0.45036  0.45036  0.00000  0.09929
       5     H     0.45696  0.45696  0.00000  0.08609
       6     C     2.93946  2.93946  0.00000  0.12109
       7     C     3.15493  3.15493  0.00000 -0.30987
       8     C     3.15476  3.15476  0.00000 -0.30953
       9     H     0.44605  0.44605  0.00000  0.10789
      10     H     0.44498  0.44498  0.00000  0.11004
      11     H     0.45021  0.45021  0.00000  0.09957
      12     H     0.45573  0.45573  0.00000  0.08855
      13     H     0.44483  0.44483  0.00000  0.11034
      14     H     0.45085  0.45085  0.00000  0.09831
      15     H     0.45537  0.45537  0.00000  0.08925

   Total alpha = 21.00000, Total beta = 21.00000, Total charge =  0.00000
