  ==> Input File <==

--------------------------------------------------------------------------
set {
	reference rhf
	basis 6-31G*
}

set_num_threads( 1 )
memory 2 gb

molecule MOL {
0 1

O	 1.072710	 1.122575	 -0.639769
C	 1.122059	 0.121804	 -0.000188
C	 0.030764	 -0.397198	 0.904027
O	 2.172624	 -0.688929	 0.000216
C	 -1.203068	 0.499241	 0.941414
H	 -0.220723	 -1.399232	 0.567224
H	 0.460054	 -0.517693	 1.894958
C	 -2.292348	 -0.049105	 1.864534
H	 -1.595252	 0.611304	 -0.064636
H	 -0.913389	 1.494311	 1.264562
C	 -3.531733	 0.843621	 1.908925
H	 -2.578335	 -1.046535	 1.536785
H	 -1.893333	 -0.161874	 2.870586
H	 -3.974387	 0.948178	 0.922629
H	 -4.288249	 0.432347	 2.569843
H	 -3.284605	 1.838949	 2.266540
C	 3.452279	 -0.082609	 0.000533
H	 3.583069	 0.529321	 -0.880332
H	 4.163299	 -0.894027	 0.001117
H	 3.582335	 0.529955	 0.881077

	symmetry c1
}
set optking {
	frozen_dihedral = ("
		9 5 8 12,
		1 2 3 6,
		9 5 3 6
	")
}

ee = energy('scf')
oeprop('DIPOLE', 'QUADRUPOLE', 'MULLIKEN_CHARGES')
f=open( 'psi4out.xyz', 'w' )
f.write( "20  " )
f.write( str(ee) + "\n" )
f.write( MOL.save_string_xyz() )
f.close()
--------------------------------------------------------------------------

    Molecular point group: c1

    Geometry (in Angstrom), charge = 0, multiplicity = 1:

       Center              X                  Y                   Z               Mass
    ------------   -----------------  -----------------  -----------------  -----------------
           O          0.936340313591     0.945558900984    -1.252601828136    15.994914619560
           C          0.985689313591    -0.055212099016    -0.613020828136    12.000000000000
           C         -0.105605686409    -0.574214099016     0.291194171864    12.000000000000
           O          2.036254313591    -0.865945099016    -0.612616828136    15.994914619560
           C         -1.339437686409     0.322224900984     0.328581171864    12.000000000000
           H         -0.357092686409    -1.576248099016    -0.045608828136     1.007825032070
           H          0.323684313591    -0.694709099016     1.282125171864     1.007825032070
           C         -2.428717686409    -0.226121099016     1.251701171864    12.000000000000
           H         -1.731621686409     0.434287900984    -0.677468828136     1.007825032070
           H         -1.049758686409     1.317294900984     0.651729171864     1.007825032070
           C         -3.668102686409     0.666604900984     1.296092171864    12.000000000000
           H         -2.714704686409    -1.223551099016     0.923952171864     1.007825032070
           H         -2.029702686409    -0.338890099016     2.257753171864     1.007825032070
           H         -4.110756686409     0.771161900984     0.309796171864     1.007825032070
           H         -4.424618686409     0.255330900984     1.957010171864     1.007825032070
           H         -3.420974686409     1.661932900984     1.653707171864     1.007825032070
           C          3.315909313591    -0.259625099016    -0.612299828136    12.000000000000
           H          3.446699313591     0.352304900984    -1.493164828136     1.007825032070
           H          4.026929313591    -1.071043099016    -0.611715828136     1.007825032070
           H          3.445965313591     0.352938900984     0.268244171864     1.007825032070

  Charge       = 0
  Multiplicity = 1
  Basis Set: 6-31G*
  Basis Set:

    Orbital Energies (a.u.)
    -----------------------

    Doubly Occupied:

       1A    -20.596173     2A    -20.548679     3A    -11.373055
       4A    -11.285134     5A    -11.235968     6A    -11.220514
       7A    -11.219311     8A    -11.210830     9A     -1.467169
      10A     -1.363765    11A     -1.088637    12A     -1.023108
      13A     -0.970775    14A     -0.888285    15A     -0.804589
      16A     -0.767912    17A     -0.696578    18A     -0.681826
      19A     -0.672591    20A     -0.645152    21A     -0.602934
      22A     -0.592001    23A     -0.582004    24A     -0.545269
      25A     -0.535817    26A     -0.517403    27A     -0.501104
      28A     -0.480040    29A     -0.475686    30A     -0.470331
      31A     -0.453305    32A     -0.433923

  @DF-RHF Final Energy:  -383.93306206519344

   => Energetics <=

    Nuclear Repulsion Energy =            381.2568096343760544
    One-Electron Energy =               -1278.4801670239121449
    Two-Electron Energy =                 513.2902953243428783
    DFT Exchange-Correlation Energy =       0.0000000000000000
    Empirical Dispersion Energy =           0.0000000000000000
    PCM Polarization Energy =               0.0000000000000000
    EFP Energy =                            0.0000000000000000
    Total Energy =                       -383.9330620651932122

  Mulliken Charges: (a.u.)
   Center  Symbol    Alpha    Beta     Spin     Total
       1     O     4.27727  4.27727  0.00000 -0.55455
       2     C     2.60533  2.60533  0.00000  0.78934
       3     C     3.20990  3.20990  0.00000 -0.41981
       4     O     4.30943  4.30943  0.00000 -0.61886
       5     C     3.15176  3.15176  0.00000 -0.30353
       6     H     0.39945  0.39945  0.00000  0.20110
       7     H     0.40363  0.40363  0.00000  0.19274
       8     C     3.15409  3.15409  0.00000 -0.30819
       9     H     0.41132  0.41132  0.00000  0.17736
      10     H     0.41282  0.41282  0.00000  0.17437
      11     C     3.23928  3.23928  0.00000 -0.47856
      12     H     0.42267  0.42267  0.00000  0.15466
      13     H     0.42350  0.42350  0.00000  0.15301
      14     H     0.41974  0.41974  0.00000  0.16052
      15     H     0.41877  0.41877  0.00000  0.16246
      16     H     0.42019  0.42019  0.00000  0.15962
      17     C     3.09504  3.09504  0.00000 -0.19009
      18     H     0.40246  0.40246  0.00000  0.19509
      19     H     0.40644  0.40644  0.00000  0.18713
      20     H     0.41691  0.41691  0.00000  0.16618

   Total alpha = 32.00000, Total beta = 32.00000, Total charge =  0.00000
