  ==> Input File <==

--------------------------------------------------------------------------
set {
	reference rhf
	basis 6-31G*
}

set_num_threads( 4 )
memory 2 gb

molecule MOL {
0 1

O	 3.225979	 0.970355	 -0.599647
C	 2.701189	 0.057885	 -0.047330
C	 1.245376	 -0.013843	 0.345420
O	 3.347903	 -1.046386	 0.304773
C	 0.455112	 1.231400	 -0.050772
H	 0.838542	 -0.913825	 -0.103701
H	 1.208210	 -0.175333	 1.419774
C	 -0.998893	 1.219485	 0.433193
H	 0.482531	 1.345121	 -1.130325
H	 0.957290	 2.103070	 0.354729
C	 -1.573803	 2.594970	 0.783376
H	 -1.055307	 0.584818	 1.314521
H	 -1.627709	 0.746315	 -0.319610
C	 -2.987194	 2.518692	 1.364330
H	 -0.916626	 3.085456	 1.499867
H	 -1.591016	 3.229729	 -0.099663
C	 -3.573851	 3.887742	 1.713135
H	 -2.976119	 1.895450	 2.256900
H	 -3.642497	 2.018714	 0.652783
C	 -4.983964	 3.802494	 2.296240
H	 -2.919732	 4.389152	 2.423317
H	 -3.589779	 4.510679	 0.821240
H	 -5.372378	 4.788208	 2.533115
H	 -4.995616	 3.214281	 3.209513
H	 -5.670597	 3.336181	 1.595268
C	 4.728119	 -1.109107	 -0.004993
H	 4.882018	 -1.033965	 -1.071845
H	 5.068212	 -2.067527	 0.355250
H	 5.265056	 -0.311663	 0.488280

	symmetry c1
}
set optking {
	frozen_dihedral = ("
		11 8 5 9
	")
}

ee = optimize('scf')
oeprop('DIPOLE', 'QUADRUPOLE', 'MULLIKEN_CHARGES')
f=open( 'psi4out.xyz', 'w' )
f.write( "29  " )
f.write( str(ee) + "\n" )
f.write( MOL.save_string_xyz() )
f.close()
--------------------------------------------------------------------------

    Molecular point group: c1
  Charge       = 0
  Multiplicity = 1
  Basis Set: 6-31G*
  Basis Set:
  @DF-RHF Final Energy:  -501.04198083687470
    Total Energy =                       -501.0419808368745862
    Molecular point group: c1
  Basis Set: 6-31G*
  Basis Set:
  Basis Set: 6-31G*
  Basis Set:
  @DF-RHF Final Energy:  -501.04277088413733
    Total Energy =                       -501.0427708841373260
  Basis Set: 6-31G*
  Basis Set:
  Basis Set: 6-31G*
  Basis Set:
  @DF-RHF Final Energy:  -501.04266306701231
    Total Energy =                       -501.0426630670124268
  Basis Set: 6-31G*
  Basis Set:
  Basis Set: 6-31G*
  Basis Set:
  @DF-RHF Final Energy:  -501.04274819801287
    Total Energy =                       -501.0427481980131006
  Basis Set: 6-31G*
  Basis Set:
  Basis Set: 6-31G*
  Basis Set:
  @DF-RHF Final Energy:  -501.04284510595369
    Total Energy =                       -501.0428451059535746
  Basis Set: 6-31G*
  Basis Set:
  Basis Set: 6-31G*
  Basis Set:
  @DF-RHF Final Energy:  -501.04284069609196
    Total Energy =                       -501.0428406960911616
  Basis Set: 6-31G*
  Basis Set:
  Basis Set: 6-31G*
  Basis Set:
  @DF-RHF Final Energy:  -501.04284680319336
    Total Energy =                       -501.0428468031927878
  Basis Set: 6-31G*
  Basis Set:
  Charge       = 0
  Multiplicity = 1
  Basis Set: 6-31G*
  Basis Set:

    Orbital Energies (a.u.)
    -----------------------

    Doubly Occupied:

       1A    -20.603372     2A    -20.545224     3A    -11.371817
       4A    -11.280669     5A    -11.235183     6A    -11.218935
       7A    -11.217368     8A    -11.214642     9A    -11.214429
      10A    -11.213118    11A    -11.208168    12A     -1.469041
      13A     -1.362485    14A     -1.096521    15A     -1.066944
      16A     -1.019917    17A     -0.977330    18A     -0.926427
      19A     -0.855788    20A     -0.801511    21A     -0.790173
      22A     -0.766667    23A     -0.697655    24A     -0.683025
      25A     -0.671562    26A     -0.654946    27A     -0.630167
      28A     -0.597863    29A     -0.593542    30A     -0.583488
      31A     -0.565753    32A     -0.549111    33A     -0.529797
      34A     -0.526118    35A     -0.514624    36A     -0.512484
      37A     -0.493132    38A     -0.479847    39A     -0.468459
      40A     -0.462396    41A     -0.460239    42A     -0.455536
      43A     -0.445461    44A     -0.430585

  @DF-RHF Final Energy:  -501.04284680642263

   => Energetics <=

    Nuclear Repulsion Energy =            602.2127617742874008
    One-Electron Energy =               -1875.5881738475484326
    Two-Electron Energy =                 772.3325652668393104
    DFT Exchange-Correlation Energy =       0.0000000000000000
    Empirical Dispersion Energy =           0.0000000000000000
    PCM Polarization Energy =               0.0000000000000000
    EFP Energy =                            0.0000000000000000
    Total Energy =                       -501.0428468064217213
    Molecular point group: c1
  Basis Set: 6-31G*
  Basis Set:

  -Total Gradient:
     Atom            X                  Y                   Z
    ------   -----------------  -----------------  -----------------
       1        0.000008665791     0.000009436611     0.000020365168
       2       -0.000028817944    -0.000010894861    -0.000035021113
       3        0.000001264827    -0.000012354961    -0.000030398469
       4       -0.000006991097     0.000008364144    -0.000000970722
       5        0.000330827690     0.005227996661     0.001659905594
       6        0.000003135438     0.000004538379     0.000012273470
       7       -0.000003748998     0.000017902328     0.000010611238
       8       -0.001435206365    -0.000734302503    -0.004161928749
       9        0.000095761982    -0.004265586896    -0.000369092872
      10        0.000021358049    -0.000000258539    -0.000008317651
      11        0.001018116373    -0.000228288956     0.002895540528
      12       -0.000026814054     0.000003017231    -0.000005757820
      13       -0.000013472652     0.000002493381     0.000000144133
      14        0.000022460232    -0.000013704494     0.000020472727
      15        0.000013295903     0.000001303882    -0.000007705642
      16       -0.000005475352    -0.000006945164    -0.000007495780
      17        0.000007819157    -0.000000007193    -0.000001062185
      18       -0.000005389635    -0.000003180688     0.000005956817
      19        0.000002979743    -0.000001081040     0.000003656711
      20       -0.000002107643    -0.000000475288    -0.000003083551
      21       -0.000003939860     0.000000025803     0.000001609758
      22        0.000004284831     0.000000515702     0.000000474168
      23       -0.000000650783     0.000000108669    -0.000000110451
      24        0.000001202817     0.000000081121    -0.000002275363
      25       -0.000001449437     0.000000673617    -0.000000272713
      26        0.000001062031     0.000000749696     0.000002626506
      27       -0.000000503333     0.000000202525     0.000000431760
      28        0.000001348998    -0.000000093854    -0.000000117290
      29        0.000000983279    -0.000000235303    -0.000000458203

  **** Optimization is complete! (in 8 steps) ****
    Final optimized geometry and variables:
    Molecular point group: c1

    Geometry (in Angstrom), charge = 0, multiplicity = 1:

    O            3.012227713854    -0.338036814383    -1.312469941987
    C            2.524815172010    -1.208456429024    -0.665849366195
    C            1.113181342821    -1.220920773116    -0.132062643850
    O            3.179615024882    -2.309813514715    -0.320057291090
    C            0.311550567154     0.025311591198    -0.503277587002
    H            0.632455500620    -2.122043960164    -0.503647923175
    H            1.174814126716    -1.342453184746     0.945858901142
    C           -1.139485766843    -0.050863510788    -0.001055682382
    H            0.324850732283     0.118324897151    -1.583778351138
    H            0.810262379025     0.901358088295    -0.103423208729
    C           -1.740090781261     1.320359665908     0.315981337574
    H           -1.182098628401    -0.655534598799     0.903560933203
    H           -1.754866860420    -0.566433753213    -0.734475740651
    C           -3.197837047284     1.251297360541     0.772901533816
    H           -1.140604816992     1.796542725310     1.089427046069
    H           -1.667490526895     1.960658776037    -0.561820657535
    C           -3.792778131251     2.620131225499     1.108546408530
    H           -3.271858581424     0.604572762636     1.646003433792
    H           -3.797341175492     0.781084737909    -0.004927190324
    C           -5.250376943072     2.543533117904     1.561562417366
    H           -3.197110064420     3.090049122641     1.888287584190
    H           -3.719419856791     3.267622892294     0.237409748910
    H           -5.643306002251     3.528890556109     1.792465413237
    H           -5.352505506874     1.929818265797     2.452210970972
    H           -5.878844411422     2.109758701832     0.788805497841
    C            4.521565072637    -2.423629574964    -0.757239837877
    H            4.572539982290    -2.406165409983    -1.836417669326
    H            4.875031641143    -3.371201103123    -0.381533375907
    H            5.120394060833    -1.616527034838    -0.360347222466

  Mulliken Charges: (a.u.)
   Center  Symbol    Alpha    Beta     Spin     Total
       1     O     4.28615  4.28615  0.00000 -0.57231
       2     C     2.60531  2.60531  0.00000  0.78937
       3     C     3.20990  3.20990  0.00000 -0.41981
       4     O     4.30731  4.30731  0.00000 -0.61461
       5     C     3.15334  3.15334  0.00000 -0.30668
       6     H     0.40063  0.40063  0.00000  0.19874
       7     H     0.40083  0.40083  0.00000  0.19834
       8     C     3.15588  3.15588  0.00000 -0.31177
       9     H     0.40994  0.40994  0.00000  0.18013
      10     H     0.41059  0.41059  0.00000  0.17882
      11     C     3.15312  3.15312  0.00000 -0.30625
      12     H     0.42410  0.42410  0.00000  0.15179
      13     H     0.42022  0.42022  0.00000  0.15956
      14     C     3.15126  3.15126  0.00000 -0.30251
      15     H     0.42280  0.42280  0.00000  0.15441
      16     H     0.42151  0.42151  0.00000  0.15697
      17     C     3.15144  3.15144  0.00000 -0.30288
      18     H     0.42451  0.42451  0.00000  0.15097
      19     H     0.42396  0.42396  0.00000  0.15208
      20     C     3.23927  3.23927  0.00000 -0.47855
      21     H     0.42303  0.42303  0.00000  0.15394
      22     H     0.42256  0.42256  0.00000  0.15488
      23     H     0.41926  0.41926  0.00000  0.16149
      24     H     0.42205  0.42205  0.00000  0.15591
      25     H     0.42186  0.42186  0.00000  0.15628
      26     C     3.09242  3.09242  0.00000 -0.18483
      27     H     0.40912  0.40912  0.00000  0.18176
      28     H     0.40849  0.40849  0.00000  0.18303
      29     H     0.40912  0.40912  0.00000  0.18176

   Total alpha = 44.00000, Total beta = 44.00000, Total charge = -0.00000
