                              Psi4 1.0.54 Driver

  ==> Input File <==

--------------------------------------------------------------------------
set {
	reference rhf
	basis cc-pvtz
}

set_num_threads( 4 )
memory 2 gb

molecule MOL {
0 1

H	 1.014869	 4.290363	 -1.615825
N	 0.240204	 3.665653	 -1.688272
C	 0.419642	 2.506608	 -0.828112
H	 0.171665	 3.391356	 -2.646088
C	 -0.800151	 1.598731	 -0.879000
H	 0.556596	 2.865092	 0.186600
H	 1.309195	 1.926676	 -1.077774
C	 -0.678115	 0.376691	 0.025731
H	 -1.674617	 2.179813	 -0.605030
H	 -0.956822	 1.272452	 -1.905392
C	 -1.900706	 -0.535531	 -0.022488
H	 -0.517391	 0.702887	 1.050777
H	 0.204237	 -0.195064	 -0.252519
C	 -3.220513	 0.226854	 0.028039
H	 -1.865036	 -1.134397	 -0.928236
H	 -1.857948	 -1.236381	 0.806820
H	 -3.309098	 0.911849	 -0.808725
H	 -4.066838	 -0.449485	 -0.008086
H	 -3.301685	 0.809374	 0.939860

	symmetry c1
}
set optking {
	frozen_dihedral = ("
		12 8 11 15
	")
}

ee,wfn = optimize('scf', return_wfn=True)
oeprop( wfn, 'DIPOLE', 'QUADRUPOLE', 'MULLIKEN_CHARGES')
f=open( 'psi4out.xyz', 'w' )
f.write( "19  " )
f.write( str(ee) + "\n" )
f.write( MOL.save_string_xyz() )
f.close()
--------------------------------------------------------------------------

    Molecular point group: c1
  Charge       = 0
  Multiplicity = 1
  Basis Set: CC-PVTZ
  Basis Set:
  @DF-RHF Final Energy:  -251.44324806827299
    Total Energy =                       -251.4432480682728510
    Molecular point group: c1
  Basis Set: CC-PVTZ
  Basis Set:
  Basis Set: CC-PVTZ
  Basis Set:
  @DF-RHF Final Energy:  -251.44352817754162
    Total Energy =                       -251.4435281775419071
  Basis Set: CC-PVTZ
  Basis Set:
  Basis Set: CC-PVTZ
  Basis Set:
  @DF-RHF Final Energy:  -251.44511958011938
    Total Energy =                       -251.4451195801193535
  Basis Set: CC-PVTZ
  Basis Set:
  Basis Set: CC-PVTZ
  Basis Set:
  @DF-RHF Final Energy:  -251.44520483793173
    Total Energy =                       -251.4452048379318967
  Basis Set: CC-PVTZ
  Basis Set:
  Basis Set: CC-PVTZ
  Basis Set:
  @DF-RHF Final Energy:  -251.44521326618116
    Total Energy =                       -251.4452132661813266
  Basis Set: CC-PVTZ
  Basis Set:
  Charge       = 0
  Multiplicity = 1
  Basis Set: CC-PVTZ
  Basis Set:

    Orbital Energies (a.u.)
    -----------------------

    Doubly Occupied:

       1A    -15.526374     2A    -11.237865     3A    -11.212269
       4A    -11.210668     5A    -11.207292     6A    -11.204116
       7A     -1.178145     8A     -1.072960     9A     -0.995893
      10A     -0.905372    11A     -0.825016    12A     -0.774383
      13A     -0.663744    14A     -0.642963    15A     -0.605541
      16A     -0.596048    17A     -0.586431    18A     -0.537187
      19A     -0.524096    20A     -0.506407    21A     -0.487854
      22A     -0.457559    23A     -0.455096    24A     -0.451304
      25A     -0.383941

  @DF-RHF Final Energy:  -251.44521416192944

   => Energetics <=

    Nuclear Repulsion Energy =            249.5430026548761759
    One-Electron Energy =                -833.4793855329774033
    Two-Electron Energy =                 332.4911687161720693
    DFT Exchange-Correlation Energy =       0.0000000000000000
    Empirical Dispersion Energy =           0.0000000000000000
    PCM Polarization Energy =               0.0000000000000000
    EFP Energy =                            0.0000000000000000
    Total Energy =                       -251.4452141619291297
    Molecular point group: c1
  Basis Set: CC-PVTZ
  Basis Set:

  -Total Gradient:
     Atom            X                  Y                   Z
    ------   -----------------  -----------------  -----------------
       1        0.000004374598    -0.000001044171    -0.000000178646
       2       -0.000000009237     0.000003387425     0.000002907111
       3        0.000005185664    -0.000010729719    -0.000011255618
       4        0.000000546866    -0.000002697465     0.000002100593
       5       -0.000023354464     0.000005439035     0.000029001744
       6       -0.000009408778     0.000006096450    -0.000010447766
       7        0.000013931291    -0.000004224758     0.000004115079
       8       -0.002464255959     0.003059553033    -0.000293240225
       9       -0.000015560271     0.000009628382     0.000009157900
      10        0.000002144798    -0.000001387495     0.000002318615
      11       -0.001956609500     0.002650332666    -0.002195691783
      12        0.002382743625    -0.002977839183     0.000602744267
      13       -0.000002668757    -0.000015387473    -0.000005204532
      14        0.000041160343    -0.000011981365     0.000009564700
      15        0.002039582503    -0.002712742138     0.001856247388
      16       -0.000009250093    -0.000002467285     0.000012107084
      17       -0.000000452876     0.000017562583    -0.000033423848
      18       -0.000013580153    -0.000025285228     0.000008675906
      19        0.000005480399     0.000013786700     0.000010502031

  **** Optimization is complete! (in 6 steps) ****
    Final optimized geometry and variables:
    Molecular point group: c1

    Geometry (in Angstrom), charge = 0, multiplicity = 1:

    H            2.133304090634     2.893904132619    -1.069157431323
    N            1.319991691086     2.318496734321    -1.124753080779
    C            1.448435097823     1.146057053177    -0.273737863129
    H            1.211646163551     2.053933963021    -2.081662250427
    C            0.172794363844     0.316452480887    -0.296299240729
    H            1.632421607387     1.489969070846     0.738698012103
    H            2.293687432838     0.513527229642    -0.547806525350
    C            0.245033647166    -0.900257535918     0.620813838581
    H           -0.653996428936     0.959293870126    -0.019986224409
    H           -0.017987154588    -0.012436139868    -1.316771180215
    C           -0.946795714100    -1.860151944602     0.541446494796
    H            0.383726825078    -0.584755402214     1.652295654198
    H            1.140324369967    -1.467715759362     0.377901481631
    C           -2.322729702506    -1.211900097180     0.655613332051
    H           -0.879679215873    -2.442270210137    -0.373728823785
    H           -0.839329576824    -2.585274093846     1.343341587896
    H           -2.536916904778    -0.562981841354    -0.184634283090
    H           -3.098621059255    -1.968129429363     0.691020848064
    H           -2.400603159492    -0.617311962857     1.560426240588

  Mulliken Charges: (a.u.)
   Center  Symbol    Alpha    Beta     Spin     Total
       1     H     0.43028  0.43028  0.00000  0.13944
       2     N     3.68888  3.68888  0.00000 -0.37776
       3     C     3.02810  3.02810  0.00000 -0.05620
       4     H     0.43121  0.43121  0.00000  0.13759
       5     C     3.08588  3.08588  0.00000 -0.17175
       6     H     0.45712  0.45712  0.00000  0.08576
       7     H     0.46731  0.46731  0.00000  0.06539
       8     C     3.10050  3.10050  0.00000 -0.20100
       9     H     0.44608  0.44608  0.00000  0.10784
      10     H     0.45919  0.45919  0.00000  0.08163
      11     C     3.08933  3.08933  0.00000 -0.17865
      12     H     0.45236  0.45236  0.00000  0.09529
      13     H     0.45323  0.45323  0.00000  0.09353
      14     C     3.15488  3.15488  0.00000 -0.30977
      15     H     0.45378  0.45378  0.00000  0.09244
      16     H     0.45066  0.45066  0.00000  0.09869
      17     H     0.45132  0.45132  0.00000  0.09736
      18     H     0.44629  0.44629  0.00000  0.10742
      19     H     0.45362  0.45362  0.00000  0.09276

   Total alpha = 25.00000, Total beta = 25.00000, Total charge = -0.00000

*** Psi4 exiting successfully. Buy a developer a beer!
