  ==> Input File <==

--------------------------------------------------------------------------
set {
	reference rhf
	basis 6-31G*
}

set_num_threads( 4 )
memory 2 gb

molecule MOL {
0 1

H	 3.276176	 0.174363	 -0.109463
N	 2.434251	 -0.367735	 -0.081097
C	 1.267428	 0.496480	 0.024474
H	 2.501951	 -0.965776	 0.720575
C	 -0.016086	 -0.325158	 -0.029487
H	 1.288818	 1.183521	 -0.816092
H	 1.267576	 1.109062	 0.929528
C	 -1.282277	 0.529072	 0.046735
H	 -0.012495	 -0.908639	 -0.945788
H	 -0.015903	 -1.041248	 0.791956
C	 -0.987048	 2.028318	 0.075084
H	 -1.847239	 0.257377	 0.936109
H	 -1.924378	 0.305064	 -0.802667
H	 -0.375258	 2.290441	 0.933411
H	 -1.902644	 2.608883	 0.131216
H	 -0.452307	 2.339256	 -0.817995

	symmetry c1
}
set optking {
	frozen_dihedral = ("
		12 8 5 9
	")
}

ee = optimize('scf')
oeprop('DIPOLE', 'QUADRUPOLE', 'MULLIKEN_CHARGES')
f=open( 'psi4out.xyz', 'w' )
f.write( "16  " )
f.write( str(ee) + "\n" )
f.write( MOL.save_string_xyz() )
f.close()
--------------------------------------------------------------------------

    Molecular point group: c1
  Charge       = 0
  Multiplicity = 1
  Basis Set: 6-31G*
  Basis Set:
  @DF-RHF Final Energy:  -212.30262849251309
    Total Energy =                       -212.3026284925128948
    Molecular point group: c1
  Basis Set: 6-31G*
  Basis Set:
  Basis Set: 6-31G*
  Basis Set:
  @DF-RHF Final Energy:  -212.30286887343865
    Total Energy =                       -212.3028688734386833
  Basis Set: 6-31G*
  Basis Set:
  Basis Set: 6-31G*
  Basis Set:
  @DF-RHF Final Energy:  -212.30664347765438
    Total Energy =                       -212.3066434776544043
  Basis Set: 6-31G*
  Basis Set:
  Basis Set: 6-31G*
  Basis Set:
  @DF-RHF Final Energy:  -212.30725962299175
    Total Energy =                       -212.3072596229917508
  Basis Set: 6-31G*
  Basis Set:
  Basis Set: 6-31G*
  Basis Set:
  @DF-RHF Final Energy:  -212.30732717527985
    Total Energy =                       -212.3073271752799087
  Basis Set: 6-31G*
  Basis Set:
  Basis Set: 6-31G*
  Basis Set:
  @DF-RHF Final Energy:  -212.30735724368785
    Total Energy =                       -212.3073572436876475
  Basis Set: 6-31G*
  Basis Set:
  Basis Set: 6-31G*
  Basis Set:
  @DF-RHF Final Energy:  -212.30736111433075
    Total Energy =                       -212.3073611143307744
  Basis Set: 6-31G*
  Basis Set:
  Charge       = 0
  Multiplicity = 1
  Basis Set: 6-31G*
  Basis Set:

    Orbital Energies (a.u.)
    -----------------------

    Doubly Occupied:

       1A    -15.532317     2A    -11.239508     3A    -11.215553
       4A    -11.209938     5A    -11.209013     6A     -1.176497
       7A     -1.053402     8A     -0.954320     9A     -0.864185
      10A     -0.773532    11A     -0.661000    12A     -0.636328
      13A     -0.612378    14A     -0.579699    15A     -0.545513
      16A     -0.532069    17A     -0.516291    18A     -0.467102
      19A     -0.461748    20A     -0.449044    21A     -0.380556

  @DF-RHF Final Energy:  -212.30736161560088

   => Energetics <=

    Nuclear Repulsion Energy =            188.8090741634909477
    One-Electron Energy =                -660.0928876660498190
    Two-Electron Energy =                 258.9764518869580456
    DFT Exchange-Correlation Energy =       0.0000000000000000
    Empirical Dispersion Energy =           0.0000000000000000
    PCM Polarization Energy =               0.0000000000000000
    EFP Energy =                            0.0000000000000000
    Total Energy =                       -212.3073616156008256
    Molecular point group: c1
  Basis Set: 6-31G*
  Basis Set:

  -Total Gradient:
     Atom            X                  Y                   Z
    ------   -----------------  -----------------  -----------------
       1        0.000005540695    -0.000006342831    -0.000000107420
       2        0.000014490963    -0.000001266380     0.000002998767
       3       -0.000005649696    -0.000002627804     0.000001202389
       4        0.000001483022     0.000002961991    -0.000001581330
       5        0.001043402788     0.001825938596    -0.001659137859
       6       -0.000002337479    -0.000005909607     0.000000500454
       7       -0.000004848576     0.000005005560    -0.000003122247
       8        0.001141828084     0.001561019186     0.001771414523
       9       -0.001049123827    -0.001766430569     0.001108186685
      10       -0.000004917840     0.000006966383    -0.000003338927
      11        0.000003851644    -0.000002217553    -0.000002700775
      12       -0.001145932772    -0.001618709192    -0.001220959491
      13       -0.000000924625     0.000007428584     0.000002306783
      14        0.000008704312     0.000001858119     0.000004255725
      15       -0.000001843519    -0.000005276577     0.000002854926
      16       -0.000003723174    -0.000002397908    -0.000002772203

  **** Optimization is complete! (in 8 steps) ****
    Final optimized geometry and variables:
    Molecular point group: c1

    Geometry (in Angstrom), charge = 0, multiplicity = 1:

    H            3.008210353086    -0.461177548625    -0.120529529376
    N            2.130319026247    -0.943804532068    -0.117810811939
    C            1.027222365286    -0.004315073681     0.031669733616
    H            2.154264677528    -1.583822410999     0.653410115100
    C           -0.299116906114    -0.757829494551    -0.046595440641
    H            1.098967129931     0.712042628635    -0.779058648564
    H            1.078826325764     0.564760666671     0.961424102835
    C           -1.600038753156     0.085003660837     0.052410312761
    H           -0.299230726189    -1.334594830644    -0.965050586689
    H           -0.304138347176    -1.497314304767     0.751985536606
    C           -1.451512372611     1.609371494242     0.035600525960
    H           -2.145081377967    -0.202808209154     0.946625639671
    H           -2.249367161732    -0.193092076112    -0.772822489786
    H           -0.866895003502     1.974388543928     0.873460747353
    H           -2.429973125042     2.076048946633     0.094522414490
    H           -0.980111970659     1.959209456550    -0.877274757588

  Mulliken Charges: (a.u.)
   Center  Symbol    Alpha    Beta     Spin     Total
       1     H     0.33239  0.33239  0.00000  0.33523
       2     N     3.92220  3.92220  0.00000 -0.84440
       3     C     3.06309  3.06309  0.00000 -0.12618
       4     H     0.33550  0.33550  0.00000  0.32899
       5     C     3.15663  3.15663  0.00000 -0.31325
       6     H     0.41941  0.41941  0.00000  0.16118
       7     H     0.43339  0.43339  0.00000  0.13321
       8     C     3.15793  3.15793  0.00000 -0.31585
       9     H     0.41009  0.41009  0.00000  0.17983
      10     H     0.42604  0.42604  0.00000  0.14792
      11     C     3.24382  3.24382  0.00000 -0.48764
      12     H     0.42067  0.42067  0.00000  0.15866
      13     H     0.41902  0.41902  0.00000  0.16196
      14     H     0.42100  0.42100  0.00000  0.15800
      15     H     0.41857  0.41857  0.00000  0.16287
      16     H     0.42026  0.42026  0.00000  0.15948

   Total alpha = 21.00000, Total beta = 21.00000, Total charge =  0.00000
