  ==> Input File <==

--------------------------------------------------------------------------
set {
	reference rhf
	basis 6-31G*
}

set_num_threads( 1 )
memory 2 gb

molecule MOL {
0 1

O	 -0.291628	 1.323815	 -0.000732
C	 -0.449655	 0.146360	 0.000961
C	 -1.783294	 -0.549321	 -0.000296
O	 0.550821	 -0.724572	 0.000672
H	 -1.863538	 -1.185371	 -0.874187
H	 -2.574672	 0.185258	 -0.002793
H	 -1.866414	 -1.182381	 0.875436
C	 1.569127	 -0.532554	 0.966313
H	 2.045331	 0.427638	 0.829869
H	 2.279659	 -1.328633	 0.807718
H	 1.160369	 -0.588236	 1.964892

	symmetry c1
}
set optking {
	frozen_dihedral = ("
		2 4 8 9
	")
}

ee = energy('scf')
oeprop('DIPOLE', 'QUADRUPOLE', 'MULLIKEN_CHARGES')
f=open( 'psi4out.xyz', 'w' )
f.write( "11  " )
f.write( str(ee) + "\n" )
f.write( MOL.save_string_xyz() )
f.close()
--------------------------------------------------------------------------

    Molecular point group: c1

    Geometry (in Angstrom), charge = 0, multiplicity = 1:

       Center              X                  Y                   Z               Mass
    ------------   -----------------  -----------------  -----------------  -----------------
           O         -0.228878513791     1.395965568751    -0.206466080466    15.994914619560
           C         -0.386905513791     0.218510568751    -0.204773080466    12.000000000000
           C         -1.720544513791    -0.477170431249    -0.206030080466    12.000000000000
           O          0.613570486209    -0.652421431249    -0.205062080466    15.994914619560
           H         -1.800788513791    -1.113220431249    -1.079921080466     1.007825032070
           H         -2.511922513791     0.257408568751    -0.208527080466     1.007825032070
           H         -1.803664513791    -1.110230431249     0.669701919534     1.007825032070
           C          1.631876486209    -0.460403431249     0.760578919534    12.000000000000
           H          2.108080486209     0.499788568751     0.624134919534     1.007825032070
           H          2.342408486209    -1.256482431249     0.601983919534     1.007825032070
           H          1.223118486209    -0.516085431249     1.759157919534     1.007825032070

  Charge       = 0
  Multiplicity = 1
  Basis Set: 6-31G*
  Basis Set:

    Orbital Energies (a.u.)
    -----------------------

    Doubly Occupied:

       1A    -20.595117     2A    -20.551290     3A    -11.377209
       4A    -11.288614     5A    -11.234892     6A     -1.468032
       7A     -1.365955     8A     -1.032610     9A     -0.958875
      10A     -0.779603    11A     -0.695445    12A     -0.681599
      13A     -0.674081    14A     -0.602270    15A     -0.592738
      16A     -0.568347    17A     -0.538199    18A     -0.505099
      19A     -0.456552    20A     -0.440723

  @DF-RHF Final Energy:  -266.82428614819577

   => Energetics <=

    Nuclear Repulsion Energy =            183.0951337059430557
    One-Electron Energy =                -727.0242748474836390
    Two-Electron Energy =                 277.1048549933441336
    DFT Exchange-Correlation Energy =       0.0000000000000000
    Empirical Dispersion Energy =           0.0000000000000000
    PCM Polarization Energy =               0.0000000000000000
    EFP Energy =                            0.0000000000000000
    Total Energy =                       -266.8242861481965065

  Mulliken Charges: (a.u.)
   Center  Symbol    Alpha    Beta     Spin     Total
       1     O     4.26888  4.26888  0.00000 -0.53777
       2     C     2.62460  2.62460  0.00000  0.75080
       3     C     3.28318  3.28318  0.00000 -0.56635
       4     O     4.30267  4.30267  0.00000 -0.60535
       5     H     0.39854  0.39854  0.00000  0.20291
       6     H     0.39816  0.39816  0.00000  0.20367
       7     H     0.40410  0.40410  0.00000  0.19180
       8     C     3.09465  3.09465  0.00000 -0.18929
       9     H     0.40215  0.40215  0.00000  0.19570
      10     H     0.40521  0.40521  0.00000  0.18958
      11     H     0.41785  0.41785  0.00000  0.16430

   Total alpha = 20.00000, Total beta = 20.00000, Total charge =  0.00000
