  ==> Input File <==

--------------------------------------------------------------------------
set {
	reference rhf
	basis cc-pvtz
}

set_num_threads( 4 )
memory 2 gb

molecule MOL {
0 1

H	 -3.562218	 0.456093	 0.264644
O	 -3.096013	 -0.305898	 -0.029257
C	 -1.770097	 -0.105146	 -0.008227
C	 -1.212328	 1.098235	 0.405540
C	 -0.958019	 -1.149629	 -0.417822
H	 -1.848891	 1.903926	 0.721888
C	 0.153835	 1.250841	 0.407580
H	 -1.408431	 -2.069278	 -0.733092
C	 0.408147	 -0.980659	 -0.409861
H	 0.596482	 2.174271	 0.724520
C	 0.981121	 0.213562	 0.000000
H	 1.039121	 -1.790315	 -0.727426
C	 2.447402	 0.371303	 0.000000
O	 3.227427	 -0.521847	 0.000000
H	 2.796538	 1.409525	 0.000000

	symmetry c1
}
set optking {
	frozen_dihedral = ("
		7 11 13 14
	")
}

ee = optimize('scf')
oeprop('DIPOLE', 'QUADRUPOLE', 'MULLIKEN_CHARGES')
f=open( 'psi4out.xyz', 'w' )
f.write( "15  " )
f.write( str(ee) + "\n" )
f.write( MOL.save_string_xyz() )
f.close()
--------------------------------------------------------------------------

    Molecular point group: c1
  Charge       = 0
  Multiplicity = 1
  Basis Set: CC-PVTZ
  Basis Set:
  @DF-RHF Final Energy:  -418.44059400881105
    Total Energy =                       -418.4405940088109901
    Molecular point group: c1
  Basis Set: CC-PVTZ
  Basis Set:
  Basis Set: CC-PVTZ
  Basis Set:
  @DF-RHF Final Energy:  -418.44014751294850
    Total Energy =                       -418.4401475129484425
  Basis Set: CC-PVTZ
  Basis Set:
  Basis Set: CC-PVTZ
  Basis Set:
  @DF-RHF Final Energy:  -418.44092462109052
    Total Energy =                       -418.4409246210901756
  Basis Set: CC-PVTZ
  Basis Set:
  Basis Set: CC-PVTZ
  Basis Set:
  @DF-RHF Final Energy:  -418.44114712470355
    Total Energy =                       -418.4411471247036616
  Basis Set: CC-PVTZ
  Basis Set:
  Basis Set: CC-PVTZ
  Basis Set:
  @DF-RHF Final Energy:  -418.44115434697517
    Total Energy =                       -418.4411543469752814
  Basis Set: CC-PVTZ
  Basis Set:
  Charge       = 0
  Multiplicity = 1
  Basis Set: CC-PVTZ
  Basis Set:

    Orbital Energies (a.u.)
    -----------------------

    Doubly Occupied:

       1A    -20.604468     2A    -20.546760     3A    -11.323236
       4A    -11.321943     5A    -11.260237     6A    -11.251842
       7A    -11.242273     8A    -11.237366     9A    -11.236080
      10A     -1.437574    11A     -1.402860    12A     -1.175055
      13A     -1.046412    14A     -1.040177    15A     -0.897044
      16A     -0.861667    17A     -0.806120    18A     -0.761360
      19A     -0.699461    20A     -0.691021    21A     -0.643286
      22A     -0.629719    23A     -0.614898    24A     -0.611459
      25A     -0.588820    26A     -0.562065    27A     -0.552792
      28A     -0.509148    29A     -0.490782    30A     -0.421903
      31A     -0.361624    32A     -0.331709

  @DF-RHF Final Energy:  -418.44115636995957

   => Energetics <=

    Nuclear Repulsion Energy =            402.3096066103626072
    One-Electron Energy =               -1367.1792033399763113
    Two-Electron Energy =                 546.4284403596541324
    DFT Exchange-Correlation Energy =       0.0000000000000000
    Empirical Dispersion Energy =           0.0000000000000000
    PCM Polarization Energy =               0.0000000000000000
    EFP Energy =                            0.0000000000000000
    Total Energy =                       -418.4411563699595717
    Molecular point group: c1
  Basis Set: CC-PVTZ
  Basis Set:

  -Total Gradient:
     Atom            X                  Y                   Z
    ------   -----------------  -----------------  -----------------
       1       -0.000014312917     0.000002524002    -0.000000556423
       2        0.000004389351     0.000026625826     0.000000589970
       3        0.000025876857    -0.000020187694     0.000035089348
       4       -0.000025490176    -0.000001355704    -0.000005235436
       5        0.000010359068     0.000030221335     0.000004768829
       6       -0.000009815725    -0.000004385996    -0.000008667526
       7        0.000044717934    -0.001315440126     0.003258977503
       8        0.000006407419     0.000001879313     0.000001719544
       9       -0.000027324324     0.000045111383    -0.000059461303
      10       -0.000012898498    -0.000004575157    -0.000001969371
      11       -0.000052375514     0.001754928493    -0.002800504346
      12        0.000006377003    -0.000002381139     0.000025213108
      13        0.000225421526    -0.000385377614    -0.004758577244
      14       -0.000160729052    -0.000128618764     0.004318857789
      15       -0.000020602947     0.000001031844    -0.000010244444

  **** Optimization is complete! (in 6 steps) ****
    Final optimized geometry and variables:
    Molecular point group: c1

    Geometry (in Angstrom), charge = 0, multiplicity = 1:

    H           -3.565269200512     0.471595885876     0.302620930609
    O           -3.097615058699    -0.287520048414     0.003250753750
    C           -1.772856627511    -0.077652143830     0.007612766660
    C           -1.213908663207     1.121496963892     0.409058547543
    C           -0.960786572431    -1.126787832832    -0.412104044009
    H           -1.842344563898     1.927635274691     0.739540499006
    C            0.159293834538     1.271704750808     0.379891969002
    H           -1.418406027364    -2.047220134382    -0.715350755350
    C            0.400291853132    -0.967074076132    -0.420561569096
    H            0.591591275253     2.205823226229     0.688301248944
    C            0.978285470508     0.241116044647    -0.037438631544
    H            1.038199348873    -1.773632309536    -0.723817389044
    C            2.445225259866     0.397348551188     0.017803895091
    O            3.222317000258    -0.497456194583     0.013490417690
    H            2.793895935370     1.432255101882     0.106662626723

  Mulliken Charges: (a.u.)
   Center  Symbol    Alpha    Beta     Spin     Total
       1     H     0.38576  0.38576  0.00000  0.22847
       2     O     4.16610  4.16610  0.00000 -0.33219
       3     C     2.84468  2.84468  0.00000  0.31063
       4     C     3.13485  3.13485  0.00000 -0.26969
       5     C     3.10550  3.10550  0.00000 -0.21100
       6     H     0.43222  0.43222  0.00000  0.13555
       7     C     3.07495  3.07495  0.00000 -0.14989
       8     H     0.41564  0.41564  0.00000  0.16873
       9     C     3.06142  3.06142  0.00000 -0.12284
      10     H     0.42140  0.42140  0.00000  0.15719
      11     C     2.99731  2.99731  0.00000  0.00537
      12     H     0.40860  0.40860  0.00000  0.18280
      13     C     2.91492  2.91492  0.00000  0.17016
      14     O     4.17568  4.17568  0.00000 -0.35136
      15     H     0.46097  0.46097  0.00000  0.07806

   Total alpha = 32.00000, Total beta = 32.00000, Total charge = -0.00000
