  ==> Input File <==

--------------------------------------------------------------------------
set {
	reference rhf
	basis 6-31G*
}

set_num_threads( 4 )
memory 2 gb

molecule MOL {
0 1

O	 -2.821601	 1.309235	 -0.001213
C	 -2.668563	 0.129746	 -0.000350
C	 -3.801572	 -0.864014	 -0.000442
O	 -1.481751	 -0.454642	 0.000584
H	 -4.417280	 -0.689587	 -0.874708
H	 -3.443784	 -1.883046	 -0.000565
H	 -4.417179	 -0.689832	 0.873954
C	 -0.334255	 0.388708	 0.000906
C	 0.891947	 -0.504646	 0.000751
H	 -0.365390	 1.025305	 -0.873475
H	 -0.365484	 1.024911	 0.875569
C	 2.191998	 0.301789	 0.000897
H	 0.855148	 -1.151283	 -0.871571
H	 0.855132	 -1.151660	 0.872805
C	 3.293147	 -0.342718	 -0.843146
H	 1.997228	 1.305988	 -0.371571
H	 2.547214	 0.419084	 1.023221
C	 4.591188	 0.463481	 -0.844051
H	 2.939982	 -0.460347	 -1.865160
H	 3.490675	 -1.345444	 -0.470865
H	 4.432893	 1.461358	 -1.243048
H	 5.351808	 -0.018164	 -1.450443
H	 4.987900	 0.569320	 0.161647

	symmetry c1
}
set optking {
	frozen_dihedral = ("
		16 12 9 13
	")
}

ee = optimize('scf')
oeprop('DIPOLE', 'QUADRUPOLE', 'MULLIKEN_CHARGES')
f=open( 'psi4out.xyz', 'w' )
f.write( "23  " )
f.write( str(ee) + "\n" )
f.write( MOL.save_string_xyz() )
f.close()
--------------------------------------------------------------------------

    Molecular point group: c1
  Charge       = 0
  Multiplicity = 1
  Basis Set: 6-31G*
  Basis Set:
  @DF-RHF Final Energy:  -422.97608944513797
    Total Energy =                       -422.9760894451379727
    Molecular point group: c1
  Basis Set: 6-31G*
  Basis Set:
  Basis Set: 6-31G*
  Basis Set:
  @DF-RHF Final Energy:  -422.97633781404306
    Total Energy =                       -422.9763378140431769
  Basis Set: 6-31G*
  Basis Set:
  Basis Set: 6-31G*
  Basis Set:
  @DF-RHF Final Energy:  -422.97640361454762
    Total Energy =                       -422.9764036145481896
  Basis Set: 6-31G*
  Basis Set:
  Basis Set: 6-31G*
  Basis Set:
  @DF-RHF Final Energy:  -422.97639619747878
    Total Energy =                       -422.9763961974795166
  Basis Set: 6-31G*
  Basis Set:
  Basis Set: 6-31G*
  Basis Set:
  @DF-RHF Final Energy:  -422.97640249903918
    Total Energy =                       -422.9764024990396365
  Basis Set: 6-31G*
  Basis Set:
  Basis Set: 6-31G*
  Basis Set:
  @DF-RHF Final Energy:  -422.97640603434473
    Total Energy =                       -422.9764060343447909
  Basis Set: 6-31G*
  Basis Set:
  Charge       = 0
  Multiplicity = 1
  Basis Set: 6-31G*
  Basis Set:

    Orbital Energies (a.u.)
    -----------------------

    Doubly Occupied:

       1A    -20.603099     2A    -20.540665     3A    -11.374225
       4A    -11.282035     5A    -11.232445     6A    -11.224162
       7A    -11.223596     8A    -11.222063     9A    -11.212901
      10A     -1.468158    11A     -1.360914    12A     -1.092904
      13A     -1.042389    14A     -1.003198    15A     -0.930657
      16A     -0.842798    17A     -0.802944    18A     -0.775727
      19A     -0.690093    20A     -0.685111    21A     -0.669895
      22A     -0.641328    23A     -0.608706    24A     -0.587584
      25A     -0.581754    26A     -0.568367    27A     -0.558663
      28A     -0.536295    29A     -0.524203    30A     -0.503859
      31A     -0.492566    32A     -0.478550    33A     -0.467942
      34A     -0.465067    35A     -0.450856    36A     -0.435394

  @DF-RHF Final Energy:  -422.97640603017828

   => Energetics <=

    Nuclear Repulsion Energy =            449.8520753730837214
    One-Electron Energy =               -1467.2947354421112323
    Two-Electron Energy =                 594.4662540388493426
    DFT Exchange-Correlation Energy =       0.0000000000000000
    Empirical Dispersion Energy =           0.0000000000000000
    PCM Polarization Energy =               0.0000000000000000
    EFP Energy =                            0.0000000000000000
    Total Energy =                       -422.9764060301781683
    Molecular point group: c1
  Basis Set: 6-31G*
  Basis Set:

  -Total Gradient:
     Atom            X                  Y                   Z
    ------   -----------------  -----------------  -----------------
       1       -0.000004302935     0.000003368521     0.000003269142
       2        0.000009442490    -0.000000836832    -0.000026227020
       3        0.000001424093     0.000000674218     0.000017205958
       4       -0.000000271511    -0.000007804577    -0.000013765330
       5        0.000003642242     0.000001006247    -0.000001609092
       6        0.000000080324    -0.000000208551     0.000000011924
       7       -0.000002861617    -0.000000584071    -0.000001385292
       8       -0.000008047775     0.000014898564     0.000072266404
       9       -0.002281897616     0.003666866323    -0.001615648158
      10       -0.000008164688    -0.000001894030    -0.000013202589
      11        0.000000990134     0.000002465281    -0.000010401371
      12        0.001367600531    -0.002056355452    -0.003813703686
      13        0.001662914033    -0.002747004793     0.001956703516
      14       -0.000005034668     0.000004998507    -0.000012993157
      15        0.000023690528    -0.000010351024    -0.000004067699
      16       -0.000752989632     0.001122254574     0.003485722944
      17       -0.000002334980     0.000010893366    -0.000013226892
      18       -0.000003993596    -0.000001151226    -0.000002684396
      19       -0.000000370065    -0.000000177388    -0.000001164236
      20        0.000003923312    -0.000004058198    -0.000003855371
      21        0.000002647761     0.000003706190    -0.000003731625
      22       -0.000002601191    -0.000001728743     0.000001976368
      23       -0.000003485162     0.000001023089     0.000000509659

  **** Optimization is complete! (in 7 steps) ****
    Final optimized geometry and variables:
    Molecular point group: c1

    Geometry (in Angstrom), charge = 0, multiplicity = 1:

    O           -2.803757974599     1.250636986622     0.204972826429
    C           -2.647109051502     0.071661034282     0.213285903545
    C           -3.776414691542    -0.925167919220     0.259883519762
    O           -1.458941973045    -0.509374329923     0.182848058326
    H           -4.420640780343    -0.761317351216    -0.595668764540
    H           -3.415641391479    -1.943147113019     0.258431136543
    H           -4.363922978340    -0.743833717276     1.151980608420
    C           -0.315127820307     0.336832907804     0.137780596143
    C            0.914233716619    -0.549538688934     0.106232090345
    H           -0.375179804771     0.964883608741    -0.741219558918
    H           -0.318593167261     0.981832462830     1.006886929990
    C            2.221513153397     0.262057369941     0.130128298752
    H            0.879819147180    -1.193331430263    -0.768062829419
    H            0.880833693647    -1.219380539243     0.960416809805
    C            3.356677558962    -0.385121160002    -0.663241459695
    H            2.042965709237     1.272051816292    -0.235979353944
    H            2.538454266584     0.392192616228     1.162541011857
    C            4.666060680119     0.397060097617    -0.577505360253
    H            3.057050625742    -0.478561979978    -1.704635705023
    H            3.514915003175    -1.398190662177    -0.299367532216
    H            4.545612896817     1.406217636090    -0.961246912977
    H            5.449365445504    -0.084651976735    -1.154216757577
    H            5.010902028915     0.473644808088     0.449721990744

  Mulliken Charges: (a.u.)
   Center  Symbol    Alpha    Beta     Spin     Total
       1     O     4.28381  4.28381  0.00000 -0.56762
       2     C     2.61540  2.61540  0.00000  0.76920
       3     C     3.28776  3.28776  0.00000 -0.57552
       4     O     4.31244  4.31244  0.00000 -0.62487
       5     H     0.39748  0.39748  0.00000  0.20504
       6     H     0.39985  0.39985  0.00000  0.20031
       7     H     0.39748  0.39748  0.00000  0.20504
       8     C     2.99847  2.99847  0.00000  0.00306
       9     C     3.16564  3.16564  0.00000 -0.33129
      10     H     0.41023  0.41023  0.00000  0.17955
      11     H     0.41036  0.41036  0.00000  0.17927
      12     C     3.16226  3.16226  0.00000 -0.32453
      13     H     0.41316  0.41316  0.00000  0.17367
      14     H     0.41256  0.41256  0.00000  0.17488
      15     C     3.15263  3.15263  0.00000 -0.30527
      16     H     0.42009  0.42009  0.00000  0.15981
      17     H     0.41844  0.41844  0.00000  0.16313
      18     C     3.24051  3.24051  0.00000 -0.48102
      19     H     0.42112  0.42112  0.00000  0.15776
      20     H     0.42096  0.42096  0.00000  0.15808
      21     H     0.42059  0.42059  0.00000  0.15883
      22     H     0.41792  0.41792  0.00000  0.16415
      23     H     0.42083  0.42083  0.00000  0.15833

   Total alpha = 36.00000, Total beta = 36.00000, Total charge =  0.00000
