  ==> Input File <==

--------------------------------------------------------------------------
set {
	reference rhf
	basis 6-31G*
}

set_num_threads( 1 )
memory 2 gb

molecule MOL {
0 1

H	 1.838058	 -1.298927	 0.134493
C	 1.951159	 -0.223429	 0.317018
C	 0.692068	 0.589600	 0.160137
O	 3.011331	 0.223023	 0.615088
C	 -0.558097	 -0.297372	 0.091132
H	 0.791645	 1.202255	 -0.728243
H	 0.616171	 1.253469	 1.020572
C	 -1.850991	 0.512573	 -0.019058
H	 -0.476753	 -0.965681	 -0.762987
H	 -0.604799	 -0.930658	 0.975228
C	 -3.096943	 -0.368295	 -0.099594
H	 -1.800724	 1.150330	 -0.898172
H	 -1.931651	 1.177355	 0.838044
H	 -3.060452	 -1.020287	 -0.967456
H	 -3.996858	 0.233488	 -0.175704
H	 -3.191959	 -0.995686	 0.782074

	symmetry c1
}
set optking {
	frozen_dihedral = ("
		9 5 8 12,
		6 3 5 9
	")
}

ee = energy('scf')
oeprop('DIPOLE', 'QUADRUPOLE', 'MULLIKEN_CHARGES')
f=open( 'psi4out.xyz', 'w' )
f.write( "16  " )
f.write( str(ee) + "\n" )
f.write( MOL.save_string_xyz() )
f.close()
--------------------------------------------------------------------------

    Molecular point group: c1

    Geometry (in Angstrom), charge = 0, multiplicity = 1:

       Center              X                  Y                   Z               Mass
    ------------   -----------------  -----------------  -----------------  -----------------
           H          1.815954231492    -1.367802068262    -0.045045578948     1.007825032070
           C          1.929055231492    -0.292304068262     0.137479421052    12.000000000000
           C          0.669964231492     0.520724931738    -0.019401578948    12.000000000000
           O          2.989227231492     0.154147931738     0.435549421052    15.994914619560
           C         -0.580200768508    -0.366247068262    -0.088406578948    12.000000000000
           H          0.769541231492     1.133379931738    -0.907781578948     1.007825032070
           H          0.594067231492     1.184593931738     0.841033421052     1.007825032070
           C         -1.873094768508     0.443697931738    -0.198596578948    12.000000000000
           H         -0.498856768508    -1.034556068262    -0.942525578948     1.007825032070
           H         -0.626902768508    -0.999533068262     0.795689421052     1.007825032070
           C         -3.119046768508    -0.437170068262    -0.279132578948    12.000000000000
           H         -1.822827768508     1.081454931738    -1.077710578948     1.007825032070
           H         -1.953754768508     1.108479931738     0.658505421052     1.007825032070
           H         -3.082555768508    -1.089162068262    -1.146994578948     1.007825032070
           H         -4.018961768508     0.164612931738    -0.355242578948     1.007825032070
           H         -3.214062768508    -1.064561068262     0.602535421052     1.007825032070

  Charge       = 0
  Multiplicity = 1
  Basis Set: 6-31G*
  Basis Set:

    Orbital Energies (a.u.)
    -----------------------

    Doubly Occupied:

       1A    -20.561790     2A    -11.327131     3A    -11.236004
       4A    -11.234631     5A    -11.229272     6A    -11.218612
       7A     -1.402114     8A     -1.097093     9A     -1.019375
      10A     -0.904485    11A     -0.812064    12A     -0.796195
      13A     -0.666761    14A     -0.657047    15A     -0.631873
      16A     -0.603774    17A     -0.588727    18A     -0.542498
      19A     -0.536262    20A     -0.496262    21A     -0.487990
      22A     -0.486103    23A     -0.479159    24A     -0.409797

  @DF-RHF Final Energy:  -270.01846037739284

   => Energetics <=

    Nuclear Repulsion Energy =            228.2753901263651528
    One-Electron Energy =                -817.7376312563997089
    Two-Electron Energy =                 319.4437807526417714
    DFT Exchange-Correlation Energy =       0.0000000000000000
    Empirical Dispersion Energy =           0.0000000000000000
    PCM Polarization Energy =               0.0000000000000000
    EFP Energy =                            0.0000000000000000
    Total Energy =                       -270.0184603773927279

  Mulliken Charges: (a.u.)
   Center  Symbol    Alpha    Beta     Spin     Total
       1     H     0.42990  0.42990  0.00000  0.14020
       2     C     2.83340  2.83340  0.00000  0.33321
       3     C     3.20586  3.20586  0.00000 -0.41173
       4     O     4.24070  4.24070  0.00000 -0.48141
       5     C     3.16622  3.16622  0.00000 -0.33244
       6     H     0.39887  0.39887  0.00000  0.20226
       7     H     0.39942  0.39942  0.00000  0.20115
       8     C     3.15174  3.15174  0.00000 -0.30348
       9     H     0.41925  0.41925  0.00000  0.16151
      10     H     0.41773  0.41773  0.00000  0.16455
      11     C     3.24011  3.24011  0.00000 -0.48023
      12     H     0.42019  0.42019  0.00000  0.15962
      13     H     0.41965  0.41965  0.00000  0.16071
      14     H     0.42034  0.42034  0.00000  0.15932
      15     H     0.41646  0.41646  0.00000  0.16708
      16     H     0.42016  0.42016  0.00000  0.15967

   Total alpha = 24.00000, Total beta = 24.00000, Total charge = -0.00000
