  ==> Input File <==

--------------------------------------------------------------------------
set {
	reference rhf
	basis 6-31G*
}

set_num_threads( 1 )
memory 2 gb

molecule MOL {
0 1

H	 2.465338	 -2.224223	 0.000000
O	 2.784187	 -1.332015	 0.000000
C	 1.765313	 -0.449364	 0.000000
C	 0.762336	 -0.631764	 0.946949
C	 1.692900	 0.603213	 -0.891612
H	 0.841480	 -1.457357	 1.628850
C	 -0.306905	 0.238429	 0.997473
H	 2.451356	 0.767461	 -1.631404
C	 0.605283	 1.458030	 -0.812897
H	 -1.076777	 0.090183	 1.731760
C	 -0.402540	 1.303915	 0.112354
N	 0.533555	 2.569902	 -1.758455
H	 -1.225770	 1.987272	 0.139203
O	 1.420007	 2.681579	 -2.550771
O	 -0.405748	 3.300948	 -1.683987

	symmetry c1
}
set optking {
	frozen_dihedral = ("
		11 9 12 14
	")
}

ee = energy('scf')
oeprop('DIPOLE', 'QUADRUPOLE', 'MULLIKEN_CHARGES')
f=open( 'psi4out.xyz', 'w' )
f.write( "15  " )
f.write( str(ee) + "\n" )
f.write( MOL.save_string_xyz() )
f.close()
--------------------------------------------------------------------------

    Molecular point group: c1

    Geometry (in Angstrom), charge = 0, multiplicity = 1:

       Center              X                  Y                   Z               Mass
    ------------   -----------------  -----------------  -----------------  -----------------
           H          1.594236770514    -3.229764546876     0.620369929075     1.007825032070
           O          1.913085770514    -2.337556546876     0.620369929075    15.994914619560
           C          0.894211770514    -1.454905546876     0.620369929075    12.000000000000
           C         -0.108765229486    -1.637305546876     1.567318929075    12.000000000000
           C          0.821798770514    -0.402328546876    -0.271242070925    12.000000000000
           H         -0.029621229486    -2.462898546876     2.249219929075     1.007825032070
           C         -1.178006229486    -0.767112546876     1.617842929075    12.000000000000
           H          1.580254770514    -0.238080546876    -1.011034070925     1.007825032070
           C         -0.265818229486     0.452488453124    -0.192527070925    12.000000000000
           H         -1.947878229486    -0.915358546876     2.352129929075     1.007825032070
           C         -1.273641229486     0.298373453124     0.732723929075    12.000000000000
           N         -0.337546229486     1.564360453124    -1.138085070925    14.003074004780
           H         -2.096871229486     0.981730453124     0.759572929075     1.007825032070
           O          0.548905770514     1.676037453124    -1.930401070925    15.994914619560
           O         -1.276849229486     2.295406453124    -1.063617070925    15.994914619560

  Charge       = 0
  Multiplicity = 1
  Basis Set: 6-31G*
  Basis Set:

    Orbital Energies (a.u.)
    -----------------------

    Doubly Occupied:

       1A    -20.606404     2A    -20.603274     3A    -20.602688
       4A    -15.857803     5A    -11.325363     6A    -11.309558
       7A    -11.267653     8A    -11.266447     9A    -11.266009
      10A    -11.264083    11A     -1.636503    12A     -1.430481
      13A     -1.419711    14A     -1.200284    15A     -1.094197
      16A     -1.046597    17A     -0.964175    18A     -0.866325
      19A     -0.840699    20A     -0.794869    21A     -0.735544
      22A     -0.732992    23A     -0.721658    24A     -0.711792
      25A     -0.681726    26A     -0.640402    27A     -0.625597
      28A     -0.572597    29A     -0.566227    30A     -0.527897
      31A     -0.512410    32A     -0.489942    33A     -0.487105
      34A     -0.452942    35A     -0.377830    36A     -0.350290

  @DF-RHF Final Energy:  -509.02276163877980

   => Energetics <=

    Nuclear Repulsion Energy =            503.2072987016150591
    One-Electron Energy =               -1692.7597941888907371
    Two-Electron Energy =                 680.5297338484956526
    DFT Exchange-Correlation Energy =       0.0000000000000000
    Empirical Dispersion Energy =           0.0000000000000000
    PCM Polarization Energy =               0.0000000000000000
    EFP Energy =                            0.0000000000000000
    Total Energy =                       -509.0227616387801390

  Mulliken Charges: (a.u.)
   Center  Symbol    Alpha    Beta     Spin     Total
       1     H     0.26730  0.26730  0.00000  0.46540
       2     O     4.38103  4.38103  0.00000 -0.76206
       3     C     2.80243  2.80243  0.00000  0.39514
       4     C     3.11836  3.11836  0.00000 -0.23672
       5     C     3.11314  3.11314  0.00000 -0.22629
       6     H     0.38935  0.38935  0.00000  0.22130
       7     C     3.10284  3.10284  0.00000 -0.20568
       8     H     0.35773  0.35773  0.00000  0.28454
       9     C     2.91545  2.91545  0.00000  0.16910
      10     H     0.38765  0.38765  0.00000  0.22470
      11     C     3.09398  3.09398  0.00000 -0.18795
      12     N     3.24059  3.24059  0.00000  0.51881
      13     H     0.36444  0.36444  0.00000  0.27113
      14     O     4.23260  4.23260  0.00000 -0.46520
      15     O     4.23310  4.23310  0.00000 -0.46619

   Total alpha = 36.00000, Total beta = 36.00000, Total charge =  0.00000
