                              Psi4 1.0.54 Driver

  ==> Input File <==

--------------------------------------------------------------------------
set {
	reference rhf
	basis cc-pvtz
}

set_num_threads( 4 )
memory 2 gb

molecule MOL {
0 1

H	 -2.362939	 -1.309000	 -0.383250
C	 -1.359344	 -1.272457	 0.020748
C	 -0.684082	 0.000127	 -0.464918
H	 -0.825835	 -2.151141	 -0.318537
H	 -1.416276	 -1.292399	 1.099455
C	 -1.359089	 1.272668	 0.021259
N	 0.742439	 -0.000109	 0.007333
H	 -0.596914	 0.000345	 -1.538146
H	 -2.362696	 1.309620	 -0.382686
H	 -0.825392	 2.151374	 -0.317674
H	 -1.415983	 1.292181	 1.099973
O	 1.046641	 0.805821	 0.820710
O	 1.473905	 -0.806324	 -0.463055

	symmetry c1
}
set optking {
	frozen_dihedral = ("
		12 7 3 8
	")
}

ee,wfn = optimize('scf', return_wfn=True)
oeprop( wfn, 'DIPOLE', 'QUADRUPOLE', 'MULLIKEN_CHARGES')
f=open( 'psi4out.xyz', 'w' )
f.write( "13  " )
f.write( str(ee) + "\n" )
f.write( MOL.save_string_xyz() )
f.close()
--------------------------------------------------------------------------

    Molecular point group: c1
  Charge       = 0
  Multiplicity = 1
  Basis Set: CC-PVTZ
  Basis Set:
  @DF-RHF Final Energy:  -321.86265675106722
    Total Energy =                       -321.8626567510671634
    Molecular point group: c1
  Basis Set: CC-PVTZ
  Basis Set:
  Basis Set: CC-PVTZ
  Basis Set:
  @DF-RHF Final Energy:  -321.86308025350530
    Total Energy =                       -321.8630802535053022
  Basis Set: CC-PVTZ
  Basis Set:
  Basis Set: CC-PVTZ
  Basis Set:
  @DF-RHF Final Energy:  -321.86346913540234
    Total Energy =                       -321.8634691354020561
  Basis Set: CC-PVTZ
  Basis Set:
  Basis Set: CC-PVTZ
  Basis Set:
  @DF-RHF Final Energy:  -321.86315604988715
    Total Energy =                       -321.8631560498873228
  Basis Set: CC-PVTZ
  Basis Set:
  Basis Set: CC-PVTZ
  Basis Set:
  @DF-RHF Final Energy:  -321.86348370460672
    Total Energy =                       -321.8634837046069492
  Basis Set: CC-PVTZ
  Basis Set:
  Charge       = 0
  Multiplicity = 1
  Basis Set: CC-PVTZ
  Basis Set:

    Orbital Energies (a.u.)
    -----------------------

    Doubly Occupied:

       1A    -20.591606     2A    -20.585726     3A    -15.833339
       4A    -11.305626     5A    -11.243629     6A    -11.237714
       7A     -1.634224     8A     -1.418296     9A     -1.141233
      10A     -0.970708    11A     -0.957712    12A     -0.815670
      13A     -0.760151    14A     -0.730571    15A     -0.724907
      16A     -0.644950    17A     -0.593111    18A     -0.588029
      19A     -0.570853    20A     -0.526815    21A     -0.521637
      22A     -0.484690    23A     -0.471996    24A     -0.451398

  @DF-RHF Final Energy:  -321.86348870462524

   => Energetics <=

    Nuclear Repulsion Energy =            257.3519767232450590
    One-Electron Energy =                -948.8217464490770681
    Two-Electron Energy =                 369.6062810212067689
    DFT Exchange-Correlation Energy =       0.0000000000000000
    Empirical Dispersion Energy =           0.0000000000000000
    PCM Polarization Energy =               0.0000000000000000
    EFP Energy =                            0.0000000000000000
    Total Energy =                       -321.8634887046252970
    Molecular point group: c1
  Basis Set: CC-PVTZ
  Basis Set:

  -Total Gradient:
     Atom            X                  Y                   Z
    ------   -----------------  -----------------  -----------------
       1        0.000001420385     0.000011502550    -0.000013906944
       2        0.000057110680     0.000020479562     0.000013650764
       3        0.000020762692    -0.001134331816    -0.000343611623
       4       -0.000000205248    -0.000017687728    -0.000000578799
       5        0.000002601027     0.000002928869    -0.000011788842
       6       -0.000006644604     0.000052124430     0.000012073106
       7       -0.000594667219    -0.000632184461     0.001324048923
       8        0.000107887558     0.001186099036     0.000067716470
       9       -0.000011346891     0.000010556888     0.000001693692
      10       -0.000007848957     0.000000864947     0.000002699807
      11        0.000007997995    -0.000011893477    -0.000016416342
      12        0.000292379670     0.000716298259    -0.000924936454
      13        0.000130552915    -0.000204757060    -0.000110643758

  **** Optimization is complete! (in 6 steps) ****
    Final optimized geometry and variables:
    Molecular point group: c1

    Geometry (in Angstrom), charge = 0, multiplicity = 1:

    H           -2.429682463530    -1.138735447793    -0.422079153332
    C           -1.418303844670    -1.184133115014    -0.040161865060
    C           -0.677582673295     0.079693770731    -0.456513042791
    H           -0.936739180715    -2.065555683088    -0.435050252265
    H           -1.466376369368    -1.260633429138     1.039376841219
    C           -1.320639145572     1.355679553448     0.048581524417
    N            0.747224266060    -0.041874373167     0.021423616387
    H           -0.570681880109     0.109589029916    -1.530430926492
    H           -2.306752632578     1.433830151381    -0.392712128435
    H           -0.748456844129     2.227175437322    -0.234417934070
    H           -1.422165313441     1.348651544466     1.124151719661
    O            1.131841967598     0.697239661558     0.861708085560
    O            1.399777920248    -0.890298163443    -0.490656006883

  Mulliken Charges: (a.u.)
   Center  Symbol    Alpha    Beta     Spin     Total
       1     H     0.44907  0.44907  0.00000  0.10186
       2     C     3.14394  3.14394  0.00000 -0.28788
       3     C     3.00711  3.00711  0.00000 -0.01423
       4     H     0.43246  0.43246  0.00000  0.13507
       5     H     0.44552  0.44552  0.00000  0.10897
       6     C     3.14271  3.14271  0.00000 -0.28541
       7     N     3.27473  3.27473  0.00000  0.45055
       8     H     0.42831  0.42831  0.00000  0.14338
       9     H     0.45022  0.45022  0.00000  0.09956
      10     H     0.43829  0.43829  0.00000  0.12342
      11     H     0.44160  0.44160  0.00000  0.11680
      12     O     4.16977  4.16977  0.00000 -0.33954
      13     O     4.17627  4.17627  0.00000 -0.35255

   Total alpha = 24.00000, Total beta = 24.00000, Total charge =  0.00000

*** Psi4 exiting successfully. Buy a developer a beer!
