  ==> Input File <==

--------------------------------------------------------------------------
set {
	reference rhf
	basis 6-31G*
}

set_num_threads( 4 )
memory 2 gb

molecule MOL {
0 1

O	 1.826760	 1.330797	 0.197500
C	 1.643958	 0.221336	 0.583246
C	 0.321721	 -0.506264	 0.570821
O	 2.607557	 -0.541337	 1.084187
C	 -0.823008	 0.326187	 0.001381
H	 0.461112	 -1.423345	 0.004917
H	 0.112826	 -0.817495	 1.590732
C	 -2.149452	 -0.435131	 -0.000098
H	 -0.573101	 0.633966	 -1.009068
H	 -0.922536	 1.239858	 0.578970
C	 -3.368779	 0.488503	 -0.000883
H	 -2.193746	 -1.087250	 -0.871175
H	 -2.195311	 -1.087803	 0.870418
C	 -4.693822	 -0.272754	 -0.001129
H	 -3.325798	 1.139422	 -0.871284
H	 -3.326423	 1.139959	 0.869145
H	 -4.781274	 -0.907928	 -0.878124
H	 -5.538651	 0.408946	 -0.001420
H	 -4.781694	 -0.907783	 0.875984
C	 3.904497	 0.022961	 1.151038
H	 4.254685	 0.288625	 0.163962
H	 4.536316	 -0.739391	 1.579407
H	 3.903899	 0.903944	 1.776638

	symmetry c1
}
set optking {
	frozen_dihedral = ("
		9 5 8 12
	")
}

ee = optimize('scf')
oeprop('DIPOLE', 'QUADRUPOLE', 'MULLIKEN_CHARGES')
f=open( 'psi4out.xyz', 'w' )
f.write( "23  " )
f.write( str(ee) + "\n" )
f.write( MOL.save_string_xyz() )
f.close()
--------------------------------------------------------------------------

    Molecular point group: c1
  Charge       = 0
  Multiplicity = 1
  Basis Set: 6-31G*
  Basis Set:
  @DF-RHF Final Energy:  -422.97437905261967
    Total Energy =                       -422.9743790526200655
    Molecular point group: c1
  Basis Set: 6-31G*
  Basis Set:
  Basis Set: 6-31G*
  Basis Set:
  @DF-RHF Final Energy:  -422.97448040544640
    Total Energy =                       -422.9744804054462293
  Basis Set: 6-31G*
  Basis Set:
  Basis Set: 6-31G*
  Basis Set:
  @DF-RHF Final Energy:  -422.97442175953387
    Total Energy =                       -422.9744217595341524
  Basis Set: 6-31G*
  Basis Set:
  Basis Set: 6-31G*
  Basis Set:
  @DF-RHF Final Energy:  -422.97462770593233
    Total Energy =                       -422.9746277059330168
  Basis Set: 6-31G*
  Basis Set:
  Basis Set: 6-31G*
  Basis Set:
  @DF-RHF Final Energy:  -422.97463205365733
    Total Energy =                       -422.9746320536568192
  Basis Set: 6-31G*
  Basis Set:
  Charge       = 0
  Multiplicity = 1
  Basis Set: 6-31G*
  Basis Set:

    Orbital Energies (a.u.)
    -----------------------

    Doubly Occupied:

       1A    -20.603531     2A    -20.545372     3A    -11.372038
       4A    -11.280785     5A    -11.235351     6A    -11.219362
       7A    -11.217872     8A    -11.216421     9A    -11.209541
      10A     -1.469208    11A     -1.362659    12A     -1.092556
      13A     -1.043455    14A     -0.986703    15A     -0.931731
      16A     -0.843662    17A     -0.794789    18A     -0.767142
      19A     -0.697489    20A     -0.683422    21A     -0.671521
      22A     -0.649948    23A     -0.611148    24A     -0.599174
      25A     -0.572044    26A     -0.558869    27A     -0.556076
      28A     -0.524970    29A     -0.521609    30A     -0.505551
      31A     -0.486207    32A     -0.469773    33A     -0.465921
      34A     -0.459841    35A     -0.455281    36A     -0.435011

  @DF-RHF Final Energy:  -422.97463268637330

   => Energetics <=

    Nuclear Repulsion Energy =            452.1509023620650396
    One-Electron Energy =               -1472.0190060404861470
    Two-Electron Energy =                 596.8934709920476962
    DFT Exchange-Correlation Energy =       0.0000000000000000
    Empirical Dispersion Energy =           0.0000000000000000
    PCM Polarization Energy =               0.0000000000000000
    EFP Energy =                            0.0000000000000000
    Total Energy =                       -422.9746326863734112
    Molecular point group: c1
  Basis Set: 6-31G*
  Basis Set:

  -Total Gradient:
     Atom            X                  Y                   Z
    ------   -----------------  -----------------  -----------------
       1       -0.000003044837    -0.000015367364    -0.000016026065
       2       -0.000008029581     0.000034607756     0.000074666654
       3        0.000035164665    -0.000009359079    -0.000032661907
       4        0.000002059807    -0.000012241570    -0.000021581403
       5       -0.002791920272     0.004805388128     0.000189334980
       6       -0.000020680755    -0.000021638687     0.000002158520
       7        0.000027535633     0.000013111787     0.000000816213
       8        0.002475493532    -0.004321149575     0.002404720189
       9        0.001921004491    -0.003296104542    -0.000506739829
      10        0.000023181093    -0.000020969419     0.000004479811
      11       -0.000015163633    -0.000000388102    -0.000056604244
      12       -0.001625909901     0.002811521481    -0.002039246396
      13       -0.000015853741     0.000015442483    -0.000023519369
      14       -0.000009439851     0.000008447449     0.000037418690
      15        0.000002150989    -0.000004125764    -0.000016779993
      16        0.000004067485     0.000016359304    -0.000007439179
      17        0.000000738342     0.000013440266    -0.000005470999
      18       -0.000000876582    -0.000001511172     0.000016584099
      19       -0.000000630145    -0.000015928265    -0.000004822657
      20       -0.000003198794     0.000002494792     0.000005692600
      21        0.000002858994     0.000000403661    -0.000001624594
      22        0.000002017089    -0.000001111761    -0.000002033509
      23       -0.000001524033    -0.000001321808    -0.000001321612

  **** Optimization is complete! (in 6 steps) ****
    Final optimized geometry and variables:
    Molecular point group: c1

    Geometry (in Angstrom), charge = 0, multiplicity = 1:

    O            1.873641984839     1.251917267703    -0.227852928563
    C            1.691612213704     0.148841632524     0.176312836130
    C            0.362597264891    -0.565558668574     0.210382206294
    O            2.661310639693    -0.615505691584     0.662785632468
    C           -0.792607573517     0.273390670453    -0.332546509573
    H            0.475192347274    -1.489006846515    -0.351671725211
    H            0.182000814622    -0.866217626373     1.238645068862
    C           -2.114017947831    -0.505494271631    -0.344664977298
    H           -0.539683641223     0.580158305795    -1.341721172961
    H           -0.886918625135     1.176935800275     0.260282062905
    C           -3.339670772884     0.410612099397    -0.404456730986
    H           -2.137500105698    -1.157621637611    -1.215417271516
    H           -2.187924635338    -1.142385890482     0.534412296160
    C           -4.657479707208    -0.358800130301    -0.482840831383
    H           -3.253327928095     1.069462410278    -1.265902583783
    H           -3.348733120608     1.054983766812     0.471775616502
    H           -4.697106346689    -0.980202304157    -1.373098608577
    H           -5.506324524365     0.317168353461    -0.513904682488
    H           -4.784016714377    -1.008859921800     0.378540723772
    C            3.964320123954    -0.061891155251     0.688477154411
    H            4.291326199831     0.187034506085    -0.310839615908
    H            4.600477240465    -0.823913029832     1.111093517880
    H            3.987341903212     0.827557885275     1.301558810703

  Mulliken Charges: (a.u.)
   Center  Symbol    Alpha    Beta     Spin     Total
       1     O     4.28616  4.28616  0.00000 -0.57232
       2     C     2.60520  2.60520  0.00000  0.78960
       3     C     3.20924  3.20924  0.00000 -0.41849
       4     O     4.30730  4.30730  0.00000 -0.61459
       5     C     3.15279  3.15279  0.00000 -0.30559
       6     H     0.40063  0.40063  0.00000  0.19873
       7     H     0.40084  0.40084  0.00000  0.19831
       8     C     3.15403  3.15403  0.00000 -0.30806
       9     H     0.41017  0.41017  0.00000  0.17966
      10     H     0.41147  0.41147  0.00000  0.17706
      11     C     3.15241  3.15241  0.00000 -0.30482
      12     H     0.42194  0.42194  0.00000  0.15613
      13     H     0.42375  0.42375  0.00000  0.15250
      14     C     3.23977  3.23977  0.00000 -0.47953
      15     H     0.42088  0.42088  0.00000  0.15825
      16     H     0.42204  0.42204  0.00000  0.15592
      17     H     0.42174  0.42174  0.00000  0.15651
      18     H     0.41849  0.41849  0.00000  0.16302
      19     H     0.42206  0.42206  0.00000  0.15588
      20     C     3.09243  3.09243  0.00000 -0.18486
      21     H     0.40911  0.40911  0.00000  0.18179
      22     H     0.40845  0.40845  0.00000  0.18309
      23     H     0.40909  0.40909  0.00000  0.18181

   Total alpha = 36.00000, Total beta = 36.00000, Total charge =  0.00000
