                              Psi4 1.0.54 Driver

  ==> Input File <==

--------------------------------------------------------------------------
set {
	reference rhf
	basis cc-pvtz
}

set_num_threads( 4 )
memory 2 gb

molecule MOL {
0 1

H	 1.497285	 -5.478209	 -0.661010
O	 2.353556	 -5.241759	 -0.965512
C	 2.260791	 -4.249585	 -1.953569
C	 1.878556	 -2.882471	 -1.406229
H	 3.239605	 -4.195549	 -2.410716
H	 1.559257	 -4.550846	 -2.729159
C	 0.473689	 -2.815358	 -0.811508
H	 2.607957	 -2.594960	 -0.654916
H	 1.960453	 -2.163010	 -2.217442
C	 0.113298	 -1.420414	 -0.302504
H	 0.394284	 -3.528549	 0.002160
H	 -0.251278	 -3.118278	 -1.565133
C	 -1.311023	 -1.277304	 0.237018
H	 0.820601	 -1.128620	 0.470028
H	 0.245115	 -0.711810	 -1.115506
C	 -2.041121	 -0.006551	 -0.194127
H	 -1.888548	 -2.136293	 -0.093331
H	 -1.289731	 -1.328757	 1.323321
C	 -3.489218	 0.042606	 0.286507
H	 -2.022185	 0.066287	 -1.279394
H	 -1.518764	 0.869305	 0.178730
C	 -4.219984	 1.311773	 -0.139038
H	 -4.022855	 -0.824300	 -0.093339
H	 -3.510372	 -0.038577	 1.370031
H	 -4.244251	 1.405725	 -1.219696
H	 -5.244345	 1.313233	 0.215630
H	 -3.732090	 2.196311	 0.257073

	symmetry c1
}
set optking {
	frozen_dihedral = ("
		14 10 13 16
	")
}

ee,wfn = optimize('scf', return_wfn=True)
oeprop( wfn, 'DIPOLE', 'QUADRUPOLE', 'MULLIKEN_CHARGES')
f=open( 'psi4out.xyz', 'w' )
f.write( "27  " )
f.write( str(ee) + "\n" )
f.write( MOL.save_string_xyz() )
f.close()
--------------------------------------------------------------------------

    Molecular point group: c1
  Charge       = 0
  Multiplicity = 1
  Basis Set: CC-PVTZ
  Basis Set:
  @DF-RHF Final Energy:  -388.42474890980827
    Total Energy =                       -388.4247489098078177
    Molecular point group: c1
  Basis Set: CC-PVTZ
  Basis Set:
  Basis Set: CC-PVTZ
  Basis Set:
  @DF-RHF Final Energy:  -388.42521576340073
    Total Energy =                       -388.4252157634005016
  Basis Set: CC-PVTZ
  Basis Set:
  Basis Set: CC-PVTZ
  Basis Set:
  @DF-RHF Final Energy:  -388.42545935126077
    Total Energy =                       -388.4254593512608835
  Basis Set: CC-PVTZ
  Basis Set:
  Basis Set: CC-PVTZ
  Basis Set:
  @DF-RHF Final Energy:  -388.42546596777839
    Total Energy =                       -388.4254659677785639
  Basis Set: CC-PVTZ
  Basis Set:
  Basis Set: CC-PVTZ
  Basis Set:
  @DF-RHF Final Energy:  -388.42547399917515
    Total Energy =                       -388.4254739991750967
  Basis Set: CC-PVTZ
  Basis Set:
  Charge       = 0
  Multiplicity = 1
  Basis Set: CC-PVTZ
  Basis Set:

    Orbital Energies (a.u.)
    -----------------------

    Doubly Occupied:

       1A    -20.545157     2A    -11.264982     3A    -11.217599
       4A    -11.214268     5A    -11.213593     6A    -11.213150
       7A    -11.212840     8A    -11.212158     9A    -11.207147
      10A     -1.363118    11A     -1.095068    12A     -1.063635
      13A     -1.012047    14A     -0.951422    15A     -0.883082
      16A     -0.821202    17A     -0.792296    18A     -0.790761
      19A     -0.696494    20A     -0.656186    21A     -0.634748
      22A     -0.616737    23A     -0.604991    24A     -0.584408
      25A     -0.577941    26A     -0.555961    27A     -0.535256
      28A     -0.525557    29A     -0.508365    30A     -0.499467
      31A     -0.477895    32A     -0.476490    33A     -0.470279
      34A     -0.461791    35A     -0.457035    36A     -0.443770
      37A     -0.422743

  @DF-RHF Final Energy:  -388.42547499873041

   => Energetics <=

    Nuclear Repulsion Energy =            452.4125477086350315
    One-Electron Energy =               -1423.1167771817645189
    Two-Electron Energy =                 582.2787544743989656
    DFT Exchange-Correlation Energy =       0.0000000000000000
    Empirical Dispersion Energy =           0.0000000000000000
    PCM Polarization Energy =               0.0000000000000000
    EFP Energy =                            0.0000000000000000
    Total Energy =                       -388.4254749987305786
    Molecular point group: c1
  Basis Set: CC-PVTZ
  Basis Set:

  -Total Gradient:
     Atom            X                  Y                   Z
    ------   -----------------  -----------------  -----------------
       1        0.000011144202    -0.000012061206     0.000003955064
       2       -0.000057759604    -0.000009290770     0.000040654661
       3        0.000055847702     0.000044754828    -0.000047673668
       4        0.000009632767    -0.000018513151    -0.000012678538
       5       -0.000012170134     0.000014319862    -0.000018403554
       6        0.000004285942     0.000004621691     0.000028523703
       7       -0.000019297527    -0.000010015761     0.000029424757
       8       -0.000011972870    -0.000005017939    -0.000010365675
       9        0.000010048967    -0.000009715524    -0.000000218147
      10       -0.000643492947     0.003774364846    -0.002195961561
      11       -0.000001148672     0.000001681328    -0.000011901668
      12        0.000001878741    -0.000000459428     0.000000014991
      13        0.001336196367     0.000905369857     0.003280761943
      14        0.000221969131    -0.003441542471     0.001086486620
      15       -0.000014121854    -0.000003755045     0.000006967472
      16       -0.000891690118    -0.001215730010    -0.002163144816
      17        0.000008764985     0.000001153165    -0.000009935104
      18        0.000003392354    -0.000002551122    -0.000003903301
      19       -0.000023162600    -0.000002567865    -0.000000972170
      20        0.000002246120    -0.000007677467     0.000009573785
      21        0.000008541969     0.000002222948    -0.000012861350
      22       -0.000000858499    -0.000011424033     0.000007194484
      23       -0.000007980176     0.000013310638     0.000002049628
      24       -0.000000414979    -0.000003132523    -0.000014162301
      25        0.000002312100    -0.000000964031     0.000013345857
      26        0.000011180164     0.000002716268    -0.000003147419
      27       -0.000003371535    -0.000010097089    -0.000003623693

  **** Optimization is complete! (in 6 steps) ****
    Final optimized geometry and variables:
    Molecular point group: c1

    Geometry (in Angstrom), charge = 0, multiplicity = 1:

    H            1.842342540294    -3.580366794754    -0.080168207487
    O            2.723249425703    -3.369272747567    -0.327388905325
    C            2.725266018113    -2.366837257133    -1.309277062049
    C            2.336661073464    -0.995945762535    -0.776236658747
    H            3.735261085492    -2.332827240853    -1.694791401969
    H            2.074070093285    -2.644294347830    -2.135885265051
    C            0.896778360100    -0.901672793315    -0.278966264364
    H            3.019245878002    -0.730825903128     0.025433731456
    H            2.489275173334    -0.271779374999    -1.573098186919
    C            0.516185757499     0.497654312654     0.203693775972
    H            0.743824427801    -1.603674370199     0.536959803768
    H            0.218810723472    -1.200581358754    -1.076121146794
    C           -0.915235266507     0.579966337520     0.760392168524
    H            1.224146065032     0.785883751743     0.974670292777
    H            0.638032741050     1.199146460196    -0.615714906632
    C           -1.658044555830     1.850894713225     0.355614458872
    H           -1.487650527394    -0.273312130229     0.405844258363
    H           -0.895316876633     0.496115809673     1.842491890458
    C           -3.066650101111     1.943328234779     0.934268348510
    H           -1.711357955084     1.897524226138    -0.729488618926
    H           -1.085060672309     2.721447269229     0.667914252977
    C           -3.806890033193     3.208375361861     0.512892698441
    H           -3.638826545362     1.072206610144     0.626304189445
    H           -3.012129696249     1.902763392087     2.018712111643
    H           -3.909123720393     3.261108696250    -0.565985387500
    H           -4.802203190298     3.242644159497     0.940854461338
    H           -3.277037687146     4.097986581105     0.836880465689

  Mulliken Charges: (a.u.)
   Center  Symbol    Alpha    Beta     Spin     Total
       1     H     0.39238  0.39238  0.00000  0.21523
       2     O     4.20575  4.20575  0.00000 -0.41150
       3     C     2.97993  2.97993  0.00000  0.04014
       4     C     3.08959  3.08959  0.00000 -0.17918
       5     H     0.44859  0.44859  0.00000  0.10283
       6     H     0.47003  0.47003  0.00000  0.05994
       7     C     3.10229  3.10229  0.00000 -0.20459
       8     H     0.45099  0.45099  0.00000  0.09801
       9     H     0.45571  0.45571  0.00000  0.08858
      10     C     3.09316  3.09316  0.00000 -0.18633
      11     H     0.45609  0.45609  0.00000  0.08781
      12     H     0.45373  0.45373  0.00000  0.09253
      13     C     3.09325  3.09325  0.00000 -0.18651
      14     H     0.45037  0.45037  0.00000  0.09926
      15     H     0.45277  0.45277  0.00000  0.09445
      16     C     3.08669  3.08669  0.00000 -0.17338
      17     H     0.45605  0.45605  0.00000  0.08790
      18     H     0.45063  0.45063  0.00000  0.09875
      19     C     3.08477  3.08477  0.00000 -0.16954
      20     H     0.45529  0.45529  0.00000  0.08942
      21     H     0.45372  0.45372  0.00000  0.09256
      22     C     3.15006  3.15006  0.00000 -0.30013
      23     H     0.45467  0.45467  0.00000  0.09065
      24     H     0.45451  0.45451  0.00000  0.09099
      25     H     0.45544  0.45544  0.00000  0.08912
      26     H     0.44845  0.44845  0.00000  0.10311
      27     H     0.45506  0.45506  0.00000  0.08988

   Total alpha = 37.00000, Total beta = 37.00000, Total charge = -0.00000

*** Psi4 exiting successfully. Buy a developer a beer!
