                              Psi4 1.0.54 Driver

  ==> Input File <==

--------------------------------------------------------------------------
set {
	reference rhf
	basis cc-pvtz
}

set_num_threads( 4 )
memory 2 gb

molecule MOL {
0 1

H	 3.721907	 -0.933076	 -0.066039
O	 2.824271	 -1.154299	 0.131461
C	 2.076458	 -0.067370	 -0.038225
C	 0.626018	 -0.337582	 0.258241
O	 2.538288	 0.965419	 -0.381593
C	 -0.267326	 0.883135	 0.076490
H	 0.325620	 -1.161483	 -0.378003
H	 0.574537	 -0.713685	 1.275261
C	 -1.726822	 0.642622	 0.463839
H	 -0.210803	 1.217591	 -0.953497
H	 0.129920	 1.693110	 0.675679
C	 -2.480891	 -0.340606	 -0.429852
H	 -2.243098	 1.597649	 0.438609
H	 -1.776542	 0.301208	 1.495542
C	 -1.626026	 -0.867918	 -1.577729
H	 -2.828752	 -1.175331	 0.172860
H	 -3.368103	 0.130728	 -0.840527
H	 -2.182876	 -1.563928	 -2.194310
H	 -0.747557	 -1.384360	 -1.205871
H	 -1.286773	 -0.058970	 -2.216216

	symmetry c1
}
set optking {
	frozen_dihedral = ("
		16 12 9 6
	")
}

ee,wfn = optimize('scf', return_wfn=True)
oeprop( wfn, 'DIPOLE', 'QUADRUPOLE', 'MULLIKEN_CHARGES')
f=open( 'psi4out.xyz', 'w' )
f.write( "20  " )
f.write( str(ee) + "\n" )
f.write( MOL.save_string_xyz() )
f.close()
--------------------------------------------------------------------------

    Molecular point group: c1
  Charge       = 0
  Multiplicity = 1
  Basis Set: CC-PVTZ
  Basis Set:
  @DF-RHF Final Energy:  -384.06364449091734
    Total Energy =                       -384.0636444909176817
    Molecular point group: c1
  Basis Set: CC-PVTZ
  Basis Set:
  Basis Set: CC-PVTZ
  Basis Set:
  @DF-RHF Final Energy:  -384.07895551072045
    Total Energy =                       -384.0789555107201068
  Basis Set: CC-PVTZ
  Basis Set:
  Basis Set: CC-PVTZ
  Basis Set:
  @DF-RHF Final Energy:  -384.08223741396597
    Total Energy =                       -384.0822374139660269
  Basis Set: CC-PVTZ
  Basis Set:
  Basis Set: CC-PVTZ
  Basis Set:
  @DF-RHF Final Energy:  -384.08102938096249
    Total Energy =                       -384.0810293809624909
  Basis Set: CC-PVTZ
  Basis Set:
  @DF-RHF Final Energy:  -384.08315993487497
    Total Energy =                       -384.0831599348749705
  @DF-RHF Final Energy:  -384.08140250970513
    Total Energy =                       -384.0814025097054127
  Basis Set: CC-PVTZ
  Basis Set:
  @DF-RHF Final Energy:  -384.08354784052341
    Total Energy =                       -384.0835478405232379
  Basis Set: CC-PVTZ
  Basis Set:
  Basis Set: CC-PVTZ
  Basis Set:
  @DF-RHF Final Energy:  -384.08360839928378
    Total Energy =                       -384.0836083992837757
  Basis Set: CC-PVTZ
  Basis Set:
  Basis Set: CC-PVTZ
  Basis Set:
  @DF-RHF Final Energy:  -384.08362876675056
    Total Energy =                       -384.0836287667505076
  Basis Set: CC-PVTZ
  Basis Set:
  Charge       = 0
  Multiplicity = 1
  Basis Set: CC-PVTZ
  Basis Set:

    Orbital Energies (a.u.)
    -----------------------

    Doubly Occupied:

       1A    -20.603640     2A    -20.540293     3A    -11.373029
       4A    -11.237927     5A    -11.220448     6A    -11.219084
       7A    -11.218553     8A    -11.211472     9A     -1.477154
      10A     -1.368690    11A     -1.093713    12A     -1.037352
      13A     -0.962606    14A     -0.882952    15A     -0.812957
      16A     -0.768705    17A     -0.703142    18A     -0.691039
      19A     -0.669343    20A     -0.630974    21A     -0.622030
      22A     -0.588235    23A     -0.569318    24A     -0.561661
      25A     -0.537254    26A     -0.510975    27A     -0.510062
      28A     -0.484009    29A     -0.468974    30A     -0.459352
      31A     -0.454701    32A     -0.442895

  @DF-RHF Final Energy:  -384.08362955614257

   => Energetics <=

    Nuclear Repulsion Energy =            383.6381908552857567
    One-Electron Energy =               -1283.5785617057379113
    Two-Electron Energy =                 515.8567412943098134
    DFT Exchange-Correlation Energy =       0.0000000000000000
    Empirical Dispersion Energy =           0.0000000000000000
    PCM Polarization Energy =               0.0000000000000000
    EFP Energy =                            0.0000000000000000
    Total Energy =                       -384.0836295561423412
    Molecular point group: c1
  Basis Set: CC-PVTZ
  Basis Set:

  -Total Gradient:
     Atom            X                  Y                   Z
    ------   -----------------  -----------------  -----------------
       1       -0.000024052454     0.000015001834    -0.000008539149
       2       -0.000003046183    -0.000071406470     0.000032443557
       3        0.000008687715     0.000076350516    -0.000026047512
       4        0.000029674632    -0.000030210965    -0.000005727013
       5       -0.000027385377     0.000000519244     0.000001515146
       6       -0.000665589755     0.002259151557    -0.001986403449
       7       -0.000015585628    -0.000015324595    -0.000003884344
       8        0.000003542136     0.000004408809     0.000013416531
       9        0.000185877862    -0.002863813105     0.002964349987
      10        0.000004916332     0.000004002628     0.000004220522
      11       -0.000006002664     0.000004495321     0.000000056753
      12        0.003972101977    -0.001325899860    -0.001302417626
      13        0.000004812520    -0.000003306174    -0.000002304399
      14       -0.000006099632    -0.000004296677     0.000004879889
      15        0.000004704726     0.000002853417    -0.000009704146
      16       -0.003495544905     0.001950697072     0.000319446806
      17       -0.000003682424     0.000010410436     0.000016068601
      18        0.000007890451     0.000001710520    -0.000005703579
      19        0.000023404557    -0.000001028929    -0.000000833433
      20        0.000001376122    -0.000014314578    -0.000004833139

  **** Optimization is complete! (in 10 steps) ****
    Final optimized geometry and variables:
    Molecular point group: c1

    Geometry (in Angstrom), charge = 0, multiplicity = 1:

    H            3.447432035997    -0.583776950273     0.970600061187
    O            2.540332780766    -0.814907469884     1.102757446118
    C            1.781765155154     0.117454942733     0.532665520251
    C            0.315638392886    -0.176479438988     0.701333310023
    O            2.246159839112     1.049345141312    -0.027764042631
    C           -0.593657205091     0.869020879114     0.065079400091
    H            0.143555726158    -1.169611893248     0.305049730864
    H            0.128885504462    -0.251435973913     1.767900118608
    C           -2.087066871267     0.560722709854     0.224942983530
    H           -0.332505505457     0.995556869058    -0.976298993473
    H           -0.388378030312     1.822086885725     0.537190397080
    C           -2.740620124413    -0.471599717822    -0.737020672701
    H           -2.613632903849     1.500194706515     0.103532045763
    H           -2.272570800390     0.257690742933     1.250369729998
    C           -1.901994307219    -1.023734972226    -1.887804953491
    H           -3.146090804168    -1.293830594725    -0.157253167363
    H           -3.612813992865     0.001254766296    -1.176107056034
    H           -2.503973610997    -1.700159875743    -2.483582838602
    H           -1.036237600644    -1.578428809937    -1.549305901623
    H           -1.554469087263    -0.236459276717    -2.545929991769

  Mulliken Charges: (a.u.)
   Center  Symbol    Alpha    Beta     Spin     Total
       1     H     0.38244  0.38244  0.00000  0.23511
       2     O     4.16079  4.16079  0.00000 -0.32159
       3     C     2.80315  2.80315  0.00000  0.39370
       4     C     3.11302  3.11302  0.00000 -0.22604
       5     O     4.19122  4.19122  0.00000 -0.38244
       6     C     3.09851  3.09851  0.00000 -0.19703
       7     H     0.43713  0.43713  0.00000  0.12573
       8     H     0.43533  0.43533  0.00000  0.12934
       9     C     3.10941  3.10941  0.00000 -0.21882
      10     H     0.44238  0.44238  0.00000  0.11524
      11     H     0.43683  0.43683  0.00000  0.12634
      12     C     3.09132  3.09132  0.00000 -0.18264
      13     H     0.44253  0.44253  0.00000  0.11494
      14     H     0.45137  0.45137  0.00000  0.09725
      15     C     3.15941  3.15941  0.00000 -0.31882
      16     H     0.44939  0.44939  0.00000  0.10122
      17     H     0.44954  0.44954  0.00000  0.10093
      18     H     0.44202  0.44202  0.00000  0.11596
      19     H     0.45407  0.45407  0.00000  0.09185
      20     H     0.45012  0.45012  0.00000  0.09975

   Total alpha = 32.00000, Total beta = 32.00000, Total charge =  0.00000

*** Psi4 exiting successfully. Buy a developer a beer!
