  ==> Input File <==

--------------------------------------------------------------------------
set {
	reference rhf
	basis 6-31G*
}

set_num_threads( 4 )
memory 2 gb

molecule MOL {
0 1

H	 3.301756	 -0.418749	 0.016088
C	 2.241448	 -0.239425	 0.012629
C	 1.434719	 -0.889273	 -0.913516
C	 1.688606	 0.637495	 0.930973
H	 1.871313	 -1.568501	 -1.623137
C	 0.072653	 -0.661268	 -0.920725
H	 2.315793	 1.138329	 1.645847
C	 0.322016	 0.865381	 0.922712
H	 -0.568075	 -1.153411	 -1.628124
C	 -0.488460	 0.219100	 0.000000
H	 -0.113633	 1.545921	 1.634065
C	 -1.949954	 0.470334	 0.000000
O	 -2.781584	 -0.381627	 0.000000
H	 -2.238022	 1.526388	 0.000000

	symmetry c1
}
set optking {
	frozen_dihedral = ("
		8 10 12 14
	")
}

ee = optimize('scf')
oeprop('DIPOLE', 'QUADRUPOLE', 'MULLIKEN_CHARGES')
f=open( 'psi4out.xyz', 'w' )
f.write( "14  " )
f.write( str(ee) + "\n" )
f.write( MOL.save_string_xyz() )
f.close()
--------------------------------------------------------------------------

    Molecular point group: c1
  Charge       = 0
  Multiplicity = 1
  Basis Set: 6-31G*
  Basis Set:
  @DF-RHF Final Energy:  -343.42478475166456
    Total Energy =                       -343.4247847516643333
    Molecular point group: c1
  Basis Set: 6-31G*
  Basis Set:
  Basis Set: 6-31G*
  Basis Set:
  @DF-RHF Final Energy:  -343.42298989826662
    Total Energy =                       -343.4229898982667351
  Basis Set: 6-31G*
  Basis Set:
  Basis Set: 6-31G*
  Basis Set:
  @DF-RHF Final Energy:  -343.42564035632893
    Total Energy =                       -343.4256403563294953
  Basis Set: 6-31G*
  Basis Set:
  Basis Set: 6-31G*
  Basis Set:
  @DF-RHF Final Energy:  -343.42571663463400
    Total Energy =                       -343.4257166346341137
  Basis Set: 6-31G*
  Basis Set:
  Basis Set: 6-31G*
  Basis Set:
  @DF-RHF Final Energy:  -343.42571787381644
    Total Energy =                       -343.4257178738164953
  Basis Set: 6-31G*
  Basis Set:
  Charge       = 0
  Multiplicity = 1
  Basis Set: 6-31G*
  Basis Set:

    Orbital Energies (a.u.)
    -----------------------

    Doubly Occupied:

       1A    -20.567193     2A    -11.333381     3A    -11.251413
       4A    -11.248344     5A    -11.247245     6A    -11.246505
       7A    -11.244142     8A    -11.242567     9A     -1.406907
      10A     -1.169729    11A     -1.045525    12A     -1.029965
      13A     -0.887849    14A     -0.841976    15A     -0.792705
      16A     -0.720639    17A     -0.676661    18A     -0.651805
      19A     -0.628405    20A     -0.617069    21A     -0.601530
      22A     -0.542695    23A     -0.526529    24A     -0.506747
      25A     -0.502606    26A     -0.422180    27A     -0.347879
      28A     -0.346018

  @DF-RHF Final Energy:  -343.42571815503817

   => Energetics <=

    Nuclear Repulsion Energy =            323.0556295363502954
    One-Electron Energy =               -1105.6702761990595718
    Two-Electron Energy =                 439.1889285076710507
    DFT Exchange-Correlation Energy =       0.0000000000000000
    Empirical Dispersion Energy =           0.0000000000000000
    PCM Polarization Energy =               0.0000000000000000
    EFP Energy =                            0.0000000000000000
    Total Energy =                       -343.4257181550381688
    Molecular point group: c1
  Basis Set: 6-31G*
  Basis Set:

  -Total Gradient:
     Atom            X                  Y                   Z
    ------   -----------------  -----------------  -----------------
       1        0.000001282900    -0.000002700243    -0.000000854965
       2       -0.000001450215     0.000002672078     0.000008831527
       3        0.000000062319     0.000008823792    -0.000004261794
       4        0.000015240679    -0.000010461261    -0.000005643012
       5        0.000003724253     0.000001681134     0.000003089347
       6        0.000014514819     0.000018310607    -0.000010645588
       7        0.000001679494    -0.000001072859    -0.000002681243
       8       -0.000580024274    -0.004878035222     0.003794929380
       9        0.000000266674     0.000008630801    -0.000005612590
      10        0.000779826983     0.007212688238    -0.007982459673
      11       -0.000001123949     0.000005751474    -0.000005847978
      12       -0.000040826630    -0.002717581805     0.011822129512
      13       -0.000010910106     0.000026323537     0.000002324673
      14       -0.000182262951     0.000324969730    -0.007613297597

  **** Optimization is complete! (in 6 steps) ****
    Final optimized geometry and variables:
    Molecular point group: c1

    Geometry (in Angstrom), charge = 0, multiplicity = 1:

    H            3.294991203256    -0.441249931824     0.031220457781
    C            2.237306030394    -0.247671945367     0.022735892919
    C            1.424464118346    -0.887599246298    -0.901979773687
    C            1.689413603976     0.634985049308     0.939196222521
    H            1.851371237639    -1.577701011118    -1.607073866458
    C            0.061897808117    -0.650213595653    -0.906440004338
    H            2.317196828368     1.119199999715     1.665093655594
    C            0.328464623866     0.892236307908     0.918159408157
    H           -0.580884848111    -1.162532488549    -1.598219642514
    C           -0.486279200870     0.262284954265    -0.012720497238
    H           -0.097484302929     1.583991259584     1.624811478601
    C           -1.962684632384     0.465560558337     0.028761867087
    O           -2.752790931176    -0.416987182066    -0.078222103510
    H           -2.300614374916     1.504947942454     0.081224425459

  Mulliken Charges: (a.u.)
   Center  Symbol    Alpha    Beta     Spin     Total
       1     H     0.39503  0.39503  0.00000  0.20993
       2     C     3.09425  3.09425  0.00000 -0.18850
       3     C     3.10240  3.10240  0.00000 -0.20480
       4     C     3.10139  3.10139  0.00000 -0.20278
       5     H     0.39456  0.39456  0.00000  0.21088
       6     C     3.09183  3.09183  0.00000 -0.18367
       7     H     0.39518  0.39518  0.00000  0.20964
       8     C     3.10295  3.10295  0.00000 -0.20589
       9     H     0.38371  0.38371  0.00000  0.23258
      10     C     3.04231  3.04231  0.00000 -0.08463
      11     H     0.39392  0.39392  0.00000  0.21215
      12     C     2.84522  2.84522  0.00000  0.30956
      13     O     4.23377  4.23377  0.00000 -0.46754
      14     H     0.42347  0.42347  0.00000  0.15307

   Total alpha = 28.00000, Total beta = 28.00000, Total charge = -0.00000
