  ==> Input File <==

--------------------------------------------------------------------------
set {
	reference rhf
	basis cc-pvtz
}

set_num_threads( 4 )
memory 2 gb

molecule MOL {
0 1

O	 -1.347808	 -0.041314	 -1.019441
C	 -1.081510	 0.147522	 0.122720
C	 0.327029	 -0.064006	 0.641890
C	 -2.128432	 0.587590	 1.117991
C	 1.349460	 -0.017068	 -0.500215
H	 0.399029	 -1.014606	 1.159950
H	 0.538021	 0.726928	 1.350471
C	 2.779782	 -0.209014	 -0.009215
H	 1.115007	 -0.782959	 -1.233891
H	 1.259071	 0.936707	 -1.006644
H	 3.481860	 -0.160270	 -0.833072
H	 2.903471	 -1.171535	 0.475559
H	 3.052569	 0.559584	 0.705428
H	 -2.109002	 -0.044730	 1.998644
H	 -3.107250	 0.560613	 0.664466
H	 -1.907904	 1.598757	 1.444734

	symmetry c1
}
set optking {
	frozen_dihedral = ("
		4 2 3 5
	")
}

ee = optimize('scf')
oeprop('DIPOLE', 'QUADRUPOLE', 'MULLIKEN_CHARGES')
f=open( 'psi4out.xyz', 'w' )
f.write( "16  " )
f.write( str(ee) + "\n" )
f.write( MOL.save_string_xyz() )
f.close()
--------------------------------------------------------------------------

    Molecular point group: c1
  Charge       = 0
  Multiplicity = 1
  Basis Set: CC-PVTZ
  Basis Set:
  @DF-RHF Final Energy:  -270.12968927659404
    Total Energy =                       -270.1296892765941493
    Molecular point group: c1
  Basis Set: CC-PVTZ
  Basis Set:
  Basis Set: CC-PVTZ
  Basis Set:
  @DF-RHF Final Energy:  -270.13013334153686
    Total Energy =                       -270.1301333415365207
  Basis Set: CC-PVTZ
  Basis Set:
  Basis Set: CC-PVTZ
  Basis Set:
  @DF-RHF Final Energy:  -270.12952513024283
    Total Energy =                       -270.1295251302427687
  Basis Set: CC-PVTZ
  Basis Set:
  Basis Set: CC-PVTZ
  Basis Set:
  @DF-RHF Final Energy:  -270.13085209080617
    Total Energy =                       -270.1308520908059450
  Basis Set: CC-PVTZ
  Basis Set:
  Basis Set: CC-PVTZ
  Basis Set:
  @DF-RHF Final Energy:  -270.13087081843139
    Total Energy =                       -270.1308708184310490
  Basis Set: CC-PVTZ
  Basis Set:
  Basis Set: CC-PVTZ
  Basis Set:
  @DF-RHF Final Energy:  -270.13086638548083
    Total Energy =                       -270.1308663854807151
  Basis Set: CC-PVTZ
  Basis Set:
  Basis Set: CC-PVTZ
  Basis Set:
  @DF-RHF Final Energy:  -270.13087367813762
    Total Energy =                       -270.1308736781379594
  Basis Set: CC-PVTZ
  Basis Set:
  Charge       = 0
  Multiplicity = 1
  Basis Set: CC-PVTZ
  Basis Set:

    Orbital Energies (a.u.)
    -----------------------

    Doubly Occupied:

       1A    -20.538672     2A    -11.321114     3A    -11.230805
       4A    -11.227344     5A    -11.219041     6A    -11.212449
       7A     -1.399075     8A     -1.078835     9A     -1.016869
      10A     -0.947978    11A     -0.825506    12A     -0.733368
      13A     -0.657638    14A     -0.651271    15A     -0.626463
      16A     -0.600283    17A     -0.568348    18A     -0.561207
      19A     -0.546805    20A     -0.503949    21A     -0.494680
      22A     -0.483673    23A     -0.477248    24A     -0.402710

  @DF-RHF Final Energy:  -270.13087444128678

   => Energetics <=

    Nuclear Repulsion Energy =            237.2197058830467995
    One-Electron Energy =                -836.0504997115185688
    Two-Electron Energy =                 328.6999193871847638
    DFT Exchange-Correlation Energy =       0.0000000000000000
    Empirical Dispersion Energy =           0.0000000000000000
    PCM Polarization Energy =               0.0000000000000000
    EFP Energy =                            0.0000000000000000
    Total Energy =                       -270.1308744412870055
    Molecular point group: c1
  Basis Set: CC-PVTZ
  Basis Set:

  -Total Gradient:
     Atom            X                  Y                   Z
    ------   -----------------  -----------------  -----------------
       1       -0.000013985370    -0.000007584695    -0.000037812356
       2       -0.000248107157    -0.000897304924     0.000344798884
       3        0.000015229848    -0.000867796719    -0.000264527024
       4        0.000174561874     0.000921391838    -0.000227372061
       5        0.000059988805     0.000846109383     0.000136909879
       6       -0.000005537485     0.000012104553     0.000015741503
       7       -0.000001321587     0.000001327887     0.000017347565
       8        0.000008631518    -0.000003271487    -0.000019666959
       9        0.000017196870     0.000011847481    -0.000004743683
      10       -0.000011363744     0.000010361530    -0.000005721315
      11       -0.000010193138     0.000002340587     0.000002369601
      12        0.000003785937    -0.000002541640     0.000003583582
      13        0.000002492019     0.000006131762     0.000005507891
      14       -0.000004462523    -0.000015901150     0.000007425748
      15        0.000010676196    -0.000010895495     0.000010177407
      16        0.000002407938    -0.000006318912     0.000015981337

  **** Optimization is complete! (in 8 steps) ****
    Final optimized geometry and variables:
    Molecular point group: c1

    Geometry (in Angstrom), charge = 0, multiplicity = 1:

    O           -1.392998133468    -0.116623107924    -1.078114872536
    C           -1.082423525567     0.071660155089     0.052431359563
    C            0.342291521210    -0.108031498856     0.538335468551
    C           -2.093618434242     0.508865799015     1.086406837075
    C            1.390278850213    -0.072495649386    -0.566509859092
    H            0.372328205435    -1.062003666843     1.062430591947
    H            0.551549388007     0.645886546041     1.291996444641
    C            2.803415376982    -0.286302461564    -0.035060811641
    H            1.153158444766    -0.826656978251    -1.305341462355
    H            1.331836504982     0.881262439186    -1.079803649748
    H            3.528697650321    -0.250704793767    -0.839147539754
    H            2.898717848236    -1.251062445283     0.452495882719
    H            3.074917326111     0.476260675575     0.687796337817
    H           -2.004844684406    -0.084153988994     1.989685257044
    H           -3.092149493711     0.426966367563     0.685338493825
    H           -1.898937648026     1.541336305302     1.357994453044

  Mulliken Charges: (a.u.)
   Center  Symbol    Alpha    Beta     Spin     Total
       1     O     4.17199  4.17199  0.00000 -0.34399
       2     C     2.86143  2.86143  0.00000  0.27713
       3     C     3.10687  3.10687  0.00000 -0.21374
       4     C     3.15213  3.15213  0.00000 -0.30427
       5     C     3.08044  3.08044  0.00000 -0.16089
       6     H     0.44485  0.44485  0.00000  0.11031
       7     H     0.44655  0.44655  0.00000  0.10690
       8     C     3.14987  3.14987  0.00000 -0.29973
       9     H     0.44185  0.44185  0.00000  0.11630
      10     H     0.45049  0.45049  0.00000  0.09903
      11     H     0.44578  0.44578  0.00000  0.10845
      12     H     0.45554  0.45554  0.00000  0.08892
      13     H     0.45684  0.45684  0.00000  0.08633
      14     H     0.45064  0.45064  0.00000  0.09872
      15     H     0.43593  0.43593  0.00000  0.12814
      16     H     0.44881  0.44881  0.00000  0.10239

   Total alpha = 24.00000, Total beta = 24.00000, Total charge = -0.00000
