  ==> Input File <==

--------------------------------------------------------------------------
set {
	reference rhf
	basis 6-31G*
}

set_num_threads( 4 )
memory 2 gb

molecule MOL {
0 1

O	 1.593087	 0.302948	 0.306385
C	 2.701189	 0.057885	 -0.047330
C	 3.554538	 0.929822	 -0.936323
O	 3.347903	 -1.046386	 0.304773
C	 2.856695	 2.220905	 -1.358502
H	 4.478131	 1.122982	 -0.400733
H	 3.832509	 0.334243	 -1.802184
C	 3.668567	 3.067112	 -2.345058
H	 2.623769	 2.808013	 -0.475231
H	 1.903263	 1.967144	 -1.809052
C	 4.963601	 3.655154	 -1.777428
H	 3.037126	 3.883675	 -2.687449
H	 3.898486	 2.473188	 -3.228461
C	 5.679983	 4.579341	 -2.764178
H	 4.736541	 4.207962	 -0.867118
H	 5.642698	 2.856265	 -1.488333
C	 6.978153	 5.168669	 -2.209580
H	 5.011060	 5.389851	 -3.048517
H	 5.897755	 4.030107	 -3.678845
C	 7.685372	 6.093412	 -3.199727
H	 6.762504	 5.717005	 -1.294995
H	 7.649809	 4.360059	 -1.928850
H	 8.601556	 6.495089	 -2.777981
H	 7.051899	 6.932358	 -3.473730
H	 7.945440	 5.565027	 -4.112660
C	 4.728119	 -1.109107	 -0.004993
H	 4.882018	 -1.033965	 -1.071845
H	 5.068212	 -2.067527	 0.355250
H	 5.265056	 -0.311663	 0.488280

	symmetry c1
}
set optking {
	frozen_dihedral = ("
		1 2 4 26
	")
}

ee = optimize('scf')
oeprop('DIPOLE', 'QUADRUPOLE', 'MULLIKEN_CHARGES')
f=open( 'psi4out.xyz', 'w' )
f.write( "29  " )
f.write( str(ee) + "\n" )
f.write( MOL.save_string_xyz() )
f.close()
--------------------------------------------------------------------------

    Molecular point group: c1
  Charge       = 0
  Multiplicity = 1
  Basis Set: 6-31G*
  Basis Set:
  @DF-RHF Final Energy:  -501.01638084940294
    Total Energy =                       -501.0163808494032764
    Molecular point group: c1
  Basis Set: 6-31G*
  Basis Set:
  Basis Set: 6-31G*
  Basis Set:
  @DF-RHF Final Energy:  -501.01396868944187
    Total Energy =                       -501.0139686894424358
  Basis Set: 6-31G*
  Basis Set:
  Basis Set: 6-31G*
  Basis Set:
  @DF-RHF Final Energy:  -501.02477848981914
    Total Energy =                       -501.0247784898193686
  Basis Set: 6-31G*
  Basis Set:
  Basis Set: 6-31G*
  Basis Set:
  @DF-RHF Final Energy:  -501.02767796990338
    Total Energy =                       -501.0276779699029248
  Basis Set: 6-31G*
  Basis Set:
  @DF-RHF Final Energy:  -501.02706468160670
    Total Energy =                       -501.0270646816065891
  @DF-RHF Final Energy:  -501.02814402971308
    Total Energy =                       -501.0281440297137578
  @DF-RHF Final Energy:  -501.02870482128333
    Total Energy =                       -501.0287048212835543
  Basis Set: 6-31G*
  Basis Set:
  @DF-RHF Final Energy:  -501.02870711403784
    Total Energy =                       -501.0287071140380704
  Basis Set: 6-31G*
  Basis Set:
  Basis Set: 6-31G*
  Basis Set:
  @DF-RHF Final Energy:  -501.02871288607719
    Total Energy =                       -501.0287128860766188
  Basis Set: 6-31G*
  Basis Set:
  Basis Set: 6-31G*
  Basis Set:
  @DF-RHF Final Energy:  -501.02870984253241
    Total Energy =                       -501.0287098425320664
  Basis Set: 6-31G*
  Basis Set:
  Charge       = 0
  Multiplicity = 1
  Basis Set: 6-31G*
  Basis Set:

    Orbital Energies (a.u.)
    -----------------------

    Doubly Occupied:

       1A    -20.601500     2A    -20.538742     3A    -11.373393
       4A    -11.296296     5A    -11.244871     6A    -11.223287
       7A    -11.221691     8A    -11.220583     9A    -11.219364
      10A    -11.218200    11A    -11.211926    12A     -1.462515
      13A     -1.364200    14A     -1.101919    15A     -1.068873
      16A     -1.014829    17A     -0.986101    18A     -0.945685
      19A     -0.870368    20A     -0.806090    21A     -0.795249
      22A     -0.762970    23A     -0.704773    24A     -0.687797
      25A     -0.672769    26A     -0.654753    27A     -0.633098
      28A     -0.608711    29A     -0.596854    30A     -0.588668
      31A     -0.571634    32A     -0.554298    33A     -0.544823
      34A     -0.538955    35A     -0.522717    36A     -0.510045
      37A     -0.500154    38A     -0.481768    39A     -0.474048
      40A     -0.466173    41A     -0.462754    42A     -0.447187
      43A     -0.442239    44A     -0.430231

  @DF-RHF Final Energy:  -501.02871335483076

   => Energetics <=

    Nuclear Repulsion Energy =            615.2324183499528090
    One-Electron Energy =               -1901.2360663149761422
    Two-Electron Energy =                 784.9749346101934862
    DFT Exchange-Correlation Energy =       0.0000000000000000
    Empirical Dispersion Energy =           0.0000000000000000
    PCM Polarization Energy =               0.0000000000000000
    EFP Energy =                            0.0000000000000000
    Total Energy =                       -501.0287133548299607
    Molecular point group: c1
  Basis Set: 6-31G*
  Basis Set:

  -Total Gradient:
     Atom            X                  Y                   Z
    ------   -----------------  -----------------  -----------------
       1        0.000401528865     0.000469796923     0.000841057088
       2       -0.000442186571    -0.000469427135    -0.000726012379
       3        0.000003482236     0.000012747163     0.000015878695
       4       -0.000165749445    -0.000363031636    -0.000942158970
       5       -0.000000358356    -0.000007564896    -0.000002764191
       6       -0.000007523288    -0.000002637812    -0.000007179879
       7       -0.000003215295    -0.000009758002    -0.000005258261
       8        0.000000235057    -0.000000569386    -0.000000928090
       9        0.000000570090     0.000001343675     0.000002337799
      10        0.000001198281     0.000000863559     0.000000660638
      11       -0.000000803109     0.000001558279     0.000001293923
      12       -0.000000211206     0.000000063460     0.000000726903
      13       -0.000000911891     0.000000151796    -0.000000361361
      14        0.000000014453     0.000000036355    -0.000000275909
      15        0.000000075072     0.000001601475     0.000000181910
      16        0.000000323596     0.000000900908     0.000000497030
      17        0.000000602469    -0.000001451645    -0.000000383788
      18        0.000000366835     0.000000257275     0.000000694105
      19       -0.000000627904     0.000000233287    -0.000000257095
      20        0.000000111368    -0.000000133241    -0.000000230336
      21       -0.000000236400    -0.000000077217    -0.000000348239
      22        0.000000338166    -0.000000001134     0.000000264271
      23       -0.000000046135     0.000000038135     0.000000017620
      24       -0.000000054833    -0.000000080384    -0.000000011872
      25        0.000000073180     0.000000048897     0.000000081677
      26        0.000202693624     0.000365156984     0.000824487046
      27        0.000004089049     0.000000978558    -0.000000208836
      28        0.000006348369     0.000000001542    -0.000001462893
      29       -0.000000126274    -0.000001045768    -0.000000336618

  **** Optimization is complete! (in 11 steps) ****
    Final optimized geometry and variables:
    Molecular point group: c1

    Geometry (in Angstrom), charge = 0, multiplicity = 1:

    O           -2.678018120976    -1.777186968438     1.555159734685
    C           -1.587550224645    -2.072742806705     1.201106152663
    C           -0.737488910492    -1.197057493486     0.300565111793
    O           -1.075507574398    -3.241771380918     1.597364306011
    C           -1.455947602493     0.088568320080    -0.107450728697
    H            0.193619131699    -0.976497984217     0.812604513580
    H           -0.467284545101    -1.773871638227    -0.581015989977
    C           -0.663240965367     0.948927688025    -1.097248927247
    H           -1.686749728634     0.665400855381     0.782180207813
    H           -2.410059354454    -0.175844531793    -0.548437140610
    C            0.628610020148     1.554091277414    -0.540109965872
    H           -1.309536515775     1.757864082662    -1.429412770511
    H           -0.433868550545     0.363321933543    -1.986478648648
    C            1.317781174542     2.497969571163    -1.527649986497
    H            0.403449682751     2.095495241868     0.377379579847
    H            1.325451616548     0.764835347418    -0.265767059563
    C            2.613494172825     3.103116365406    -0.984476178115
    H            0.632361842310     3.299979315948    -1.795825232842
    H            1.532099158802     1.960427688028    -2.450055963230
    C            3.292753219298     4.047927694681    -1.975229905830
    H            2.401077564091     3.639661324804    -0.062227228957
    H            3.301833758897     2.302985372472    -0.719894362030
    H            4.207886148607     4.460302251717    -1.561730112766
    H            2.642472554175     4.879044611169    -2.232952399084
    H            3.549018444980     3.532140447367    -2.896395691755
    C            0.273017616146    -3.596301520698     1.405874356554
    H            0.534365825051    -3.643099027546     0.356356896140
    H            0.381187474863    -4.578734193139     1.838391234179
    H            0.939713683491    -2.912139920168     1.916117538980

  Mulliken Charges: (a.u.)
   Center  Symbol    Alpha    Beta     Spin     Total
       1     O     4.26742  4.26742  0.00000 -0.53484
       2     C     2.59714  2.59714  0.00000  0.80571
       3     C     3.23582  3.23582  0.00000 -0.47164
       4     O     4.30369  4.30369  0.00000 -0.60738
       5     C     3.15021  3.15021  0.00000 -0.30043
       6     H     0.40304  0.40304  0.00000  0.19391
       7     H     0.40413  0.40413  0.00000  0.19174
       8     C     3.15746  3.15746  0.00000 -0.31491
       9     H     0.41014  0.41014  0.00000  0.17972
      10     H     0.40576  0.40576  0.00000  0.18848
      11     C     3.15482  3.15482  0.00000 -0.30965
      12     H     0.41671  0.41671  0.00000  0.16657
      13     H     0.42445  0.42445  0.00000  0.15109
      14     C     3.15031  3.15031  0.00000 -0.30061
      15     H     0.42160  0.42160  0.00000  0.15679
      16     H     0.42655  0.42655  0.00000  0.14690
      17     C     3.15149  3.15149  0.00000 -0.30298
      18     H     0.42238  0.42238  0.00000  0.15524
      19     H     0.42407  0.42407  0.00000  0.15187
      20     C     3.23943  3.23943  0.00000 -0.47887
      21     H     0.42232  0.42232  0.00000  0.15536
      22     H     0.42429  0.42429  0.00000  0.15141
      23     H     0.41888  0.41888  0.00000  0.16224
      24     H     0.42100  0.42100  0.00000  0.15800
      25     H     0.42181  0.42181  0.00000  0.15639
      26     C     3.09346  3.09346  0.00000 -0.18693
      27     H     0.41736  0.41736  0.00000  0.16529
      28     H     0.39793  0.39793  0.00000  0.20414
      29     H     0.41630  0.41630  0.00000  0.16740

   Total alpha = 44.00000, Total beta = 44.00000, Total charge =  0.00000
