  ==> Input File <==

--------------------------------------------------------------------------
set {
	reference rhf
	basis 6-31G*
}

set_num_threads( 4 )
memory 2 gb

molecule MOL {
0 1

H	 -2.499110	 0.859442	 -0.984810
C	 -1.668215	 1.507217	 -1.236501
C	 -0.363904	 0.721796	 -1.304664
H	 -1.616550	 2.281151	 -0.480433
H	 -1.876845	 1.975867	 -2.192595
C	 -0.000005	 0.033229	 -0.000001
H	 0.463734	 1.371512	 -1.582658
H	 -0.411043	 -0.037722	 -2.082679
C	 1.290528	 -0.768786	 0.000276
O	 -0.689106	 0.117723	 0.970146
C	 2.545731	 0.095645	 -0.000061
H	 1.275672	 -1.427874	 -0.865626
H	 1.275566	 -1.427086	 0.866768
H	 2.577157	 0.734767	 -0.874036
H	 3.433520	 -0.528139	 0.000137
H	 2.577172	 0.735117	 0.873581

	symmetry c1
}
set optking {
	frozen_dihedral = ("
		3 6 9 12
	")
}

ee = optimize('scf')
oeprop('DIPOLE', 'QUADRUPOLE', 'MULLIKEN_CHARGES')
f=open( 'psi4out.xyz', 'w' )
f.write( "16  " )
f.write( str(ee) + "\n" )
f.write( MOL.save_string_xyz() )
f.close()
--------------------------------------------------------------------------

    Molecular point group: c1
  Charge       = 0
  Multiplicity = 1
  Basis Set: 6-31G*
  Basis Set:
  @DF-RHF Final Energy:  -270.03018546521827
    Total Energy =                       -270.0301854652180964
    Molecular point group: c1
  Basis Set: 6-31G*
  Basis Set:
  Basis Set: 6-31G*
  Basis Set:
  @DF-RHF Final Energy:  -270.03068789903637
    Total Energy =                       -270.0306878990364226
  Basis Set: 6-31G*
  Basis Set:
  Basis Set: 6-31G*
  Basis Set:
  @DF-RHF Final Energy:  -270.03041998975084
    Total Energy =                       -270.0304199897507260
  Basis Set: 6-31G*
  Basis Set:
  Basis Set: 6-31G*
  Basis Set:
  @DF-RHF Final Energy:  -270.03070650127165
    Total Energy =                       -270.0307065012715384
  Basis Set: 6-31G*
  Basis Set:
  Basis Set: 6-31G*
  Basis Set:
  @DF-RHF Final Energy:  -270.03071858218334
    Total Energy =                       -270.0307185821831126
  Basis Set: 6-31G*
  Basis Set:
  Charge       = 0
  Multiplicity = 1
  Basis Set: 6-31G*
  Basis Set:

    Orbital Energies (a.u.)
    -----------------------

    Doubly Occupied:

       1A    -20.549550     2A    -11.322618     3A    -11.233418
       4A    -11.232361     5A    -11.229648     6A    -11.212918
       7A     -1.394581     8A     -1.071976     9A     -1.035702
      10A     -0.910384    11A     -0.859626    12A     -0.725684
      13A     -0.662992    14A     -0.638709    15A     -0.629614
      16A     -0.605638    17A     -0.560722    18A     -0.541794
      19A     -0.533193    20A     -0.509827    21A     -0.504454
      22A     -0.495956    23A     -0.479946    24A     -0.396767

  @DF-RHF Final Energy:  -270.03071865094182

   => Energetics <=

    Nuclear Repulsion Energy =            240.4284607799748414
    One-Electron Energy =                -842.2422035142315053
    Two-Electron Energy =                 331.7830240833149560
    DFT Exchange-Correlation Energy =       0.0000000000000000
    Empirical Dispersion Energy =           0.0000000000000000
    PCM Polarization Energy =               0.0000000000000000
    EFP Energy =                            0.0000000000000000
    Total Energy =                       -270.0307186509417647
    Molecular point group: c1
  Basis Set: 6-31G*
  Basis Set:

  -Total Gradient:
     Atom            X                  Y                   Z
    ------   -----------------  -----------------  -----------------
       1        0.000008732800    -0.000002412702    -0.000001522501
       2        0.000007977523     0.000010709646    -0.000005495838
       3        0.000299900639     0.000485221956     0.000174203875
       4       -0.000002581155     0.000000804026    -0.000000218350
       5       -0.000003952284     0.000002997088    -0.000000219571
       6       -0.000540761525    -0.000867462845    -0.000138467121
       7       -0.000008198218     0.000001453848    -0.000000435057
       8        0.000002154384     0.000001874327    -0.000003781514
       9        0.000601099316     0.000938338792    -0.000429885764
      10        0.000004100786    -0.000001923028    -0.000001456296
      11       -0.000003466221    -0.000004637448    -0.000018821474
      12       -0.000357521779    -0.000574126224     0.000427152516
      13       -0.000016583271    -0.000008106419     0.000002480807
      14        0.000014450335     0.000013492012    -0.000004858642
      15       -0.000009617528     0.000008590436    -0.000000319676
      16        0.000004266201    -0.000004813465     0.000001644607

  **** Optimization is complete! (in 6 steps) ****
    Final optimized geometry and variables:
    Molecular point group: c1

    Geometry (in Angstrom), charge = 0, multiplicity = 1:

    H           -2.684700749753     0.579906391462    -0.698780063522
    C           -1.854710582749     1.227006974716    -0.954510813919
    C           -0.554559483381     0.437234471161    -1.047678438715
    H           -1.790040720262     1.992490079115    -0.190856581352
    H           -2.073718092952     1.706979807587    -1.902691431896
    C           -0.183010731859    -0.272106039932     0.243625343107
    H            0.268838817265     1.087950896710    -1.331927748749
    H           -0.615217085742    -0.314456939071    -1.832786064877
    C            1.107127273644    -1.075901338979     0.256920313622
    O           -0.869779658172    -0.200773416462     1.217298230376
    C            2.361343146640    -0.191506099137     0.265208451356
    H            1.129475534391    -1.738540055657    -0.604619537933
    H            1.085137986592    -1.690903936250     1.147943911010
    H            2.456263161923     0.391212502106    -0.644527056941
    H            3.249754569246    -0.806687929002     0.354252996844
    H            2.345601210921     0.493354454936     1.106606734426

  Mulliken Charges: (a.u.)
   Center  Symbol    Alpha    Beta     Spin     Total
       1     H     0.41033  0.41033  0.00000  0.17934
       2     C     3.23436  3.23436  0.00000 -0.46872
       3     C     3.20929  3.20929  0.00000 -0.41859
       4     H     0.41086  0.41086  0.00000  0.17828
       5     H     0.42046  0.42046  0.00000  0.15908
       6     C     2.73544  2.73544  0.00000  0.52912
       7     H     0.40766  0.40766  0.00000  0.18468
       8     H     0.40943  0.40943  0.00000  0.18114
       9     C     3.19947  3.19947  0.00000 -0.39895
      10     O     4.26272  4.26272  0.00000 -0.52544
      11     C     3.25001  3.25001  0.00000 -0.50003
      12     H     0.41385  0.41385  0.00000  0.17231
      13     H     0.39876  0.39876  0.00000  0.20248
      14     H     0.41730  0.41730  0.00000  0.16540
      15     H     0.41055  0.41055  0.00000  0.17889
      16     H     0.40950  0.40950  0.00000  0.18099

   Total alpha = 24.00000, Total beta = 24.00000, Total charge =  0.00000
