  ==> Input File <==

--------------------------------------------------------------------------
set {
	reference rhf
	basis cc-pvtz
}

set_num_threads( 4 )
memory 2 gb

molecule MOL {
0 1

H	 1.860482	 -0.730104	 0.664334
C	 1.008677	 -0.804107	 0.004286
O	 -0.000000	 0.000000	 0.518769
H	 1.307598	 -0.480856	 -0.990707
H	 0.698600	 -1.845531	 -0.051779
C	 -1.165153	 0.000000	 -0.236961
H	 -1.229451	 0.882440	 -0.870223
H	 -2.002557	 0.000000	 0.445289
H	 -1.229451	 -0.882440	 -0.870223

	symmetry c1
}
set optking {
	frozen_dihedral = ("
		2 3 6 7
	")
}

ee = optimize('scf')
oeprop('DIPOLE', 'QUADRUPOLE', 'MULLIKEN_CHARGES')
f=open( 'psi4out.xyz', 'w' )
f.write( "9  " )
f.write( str(ee) + "\n" )
f.write( MOL.save_string_xyz() )
f.close()
--------------------------------------------------------------------------

    Molecular point group: c1
  Charge       = 0
  Multiplicity = 1
  Basis Set: CC-PVTZ
  Basis Set:
  @DF-RHF Final Energy:  -154.12424358601010
    Total Energy =                       -154.1242435860100954
    Molecular point group: c1
  Basis Set: CC-PVTZ
  Basis Set:
  Basis Set: CC-PVTZ
  Basis Set:
  @DF-RHF Final Energy:  -154.12441792095746
    Total Energy =                       -154.1244179209572849
  Basis Set: CC-PVTZ
  Basis Set:
  Basis Set: CC-PVTZ
  Basis Set:
  @DF-RHF Final Energy:  -154.12445552831784
    Total Energy =                       -154.1244555283179238
  Basis Set: CC-PVTZ
  Basis Set:
  Charge       = 0
  Multiplicity = 1
  Basis Set: CC-PVTZ
  Basis Set:

    Orbital Energies (a.u.)
    -----------------------

    Doubly Occupied:

       1A    -20.547654     2A    -11.263500     3A    -11.262718
       4A     -1.378991     5A     -0.975947     6A     -0.872480
       7A     -0.660517     8A     -0.654742     9A     -0.645309
      10A     -0.556900    11A     -0.528463    12A     -0.475844
      13A     -0.416068

  @DF-RHF Final Energy:  -154.12445589963818

   => Energetics <=

    Nuclear Repulsion Energy =             84.6395616540263376
    One-Electron Energy =                -377.0497732952097749
    Two-Electron Energy =                 138.2857557415452447
    DFT Exchange-Correlation Energy =       0.0000000000000000
    Empirical Dispersion Energy =           0.0000000000000000
    PCM Polarization Energy =               0.0000000000000000
    EFP Energy =                            0.0000000000000000
    Total Energy =                       -154.1244558996381784
    Molecular point group: c1
  Basis Set: CC-PVTZ
  Basis Set:

  -Total Gradient:
     Atom            X                  Y                   Z
    ------   -----------------  -----------------  -----------------
       1        0.000032453211    -0.000018082073    -0.000007339366
       2       -0.000631750099    -0.001664609454     0.001160216048
       3        0.000632024169     0.002708593982    -0.001142761928
       4       -0.000030944869     0.000001068477     0.000015211412
       5       -0.000033171950     0.000031396894     0.000000445070
       6        0.001271815622    -0.002340799659    -0.001970056838
       7       -0.001226650013     0.001286416546     0.001953116572
       8       -0.000015290240    -0.000000252810    -0.000006644134
       9        0.000001514169    -0.000003731904    -0.000002186836

  **** Optimization is complete! (in 4 steps) ****
    Final optimized geometry and variables:
    Molecular point group: c1

    Geometry (in Angstrom), charge = 0, multiplicity = 1:

    H            1.918212703394    -0.442540813743     0.593912033281
    C            1.074314070929    -0.526037661336    -0.075732286563
    O            0.053576291634     0.270089563974     0.429167141625
    H            1.385728243617    -0.204156621175    -1.067399301579
    H            0.774297549509    -1.569783679150    -0.131080017949
    C           -1.122571344547     0.279523377172    -0.317722422422
    H           -1.179248543199     1.168628502501    -0.939101535099
    H           -1.962485541485     0.296372630244     0.365095906952
    H           -1.212207949704    -0.599834048490    -0.947823247438

  Mulliken Charges: (a.u.)
   Center  Symbol    Alpha    Beta     Spin     Total
       1     H     0.44954  0.44954  0.00000  0.10093
       2     C     3.02108  3.02108  0.00000 -0.04215
       3     O     4.17138  4.17138  0.00000 -0.34276
       4     H     0.47352  0.47352  0.00000  0.05296
       5     H     0.47250  0.47250  0.00000  0.05501
       6     C     3.01789  3.01789  0.00000 -0.03578
       7     H     0.46470  0.46470  0.00000  0.07060
       8     H     0.45458  0.45458  0.00000  0.09085
       9     H     0.47482  0.47482  0.00000  0.05036

   Total alpha = 13.00000, Total beta = 13.00000, Total charge =  0.00000
