                              Psi4 1.0.54 Driver

  ==> Input File <==

--------------------------------------------------------------------------
set {
	reference rhf
	basis cc-pvtz
}

set_num_threads( 4 )
memory 2 gb

molecule MOL {
0 1

H	 -1.869108	 1.870811	 -1.032389
C	 -1.180202	 2.276956	 -0.303915
C	 0.137066	 1.517031	 -0.315534
H	 -1.656332	 2.213672	 0.665368
H	 -1.013170	 3.322032	 -0.535906
C	 0.000000	 0.039916	 0.000014
H	 0.835189	 1.943157	 0.399965
H	 0.624307	 1.603290	 -1.283029
C	 1.286532	 -0.763243	 0.000268
O	 -1.052499	 -0.458349	 0.233161
C	 2.547023	 0.087626	 -0.000114
H	 1.264245	 -1.421103	 -0.864380
H	 1.264290	 -1.420353	 0.865489
H	 2.584452	 0.725630	 -0.872909
H	 3.427035	 -0.544422	 0.000125
H	 2.584484	 0.726356	 0.872143

	symmetry c1
}
set optking {
	frozen_dihedral = ("
		3 6 9 12
	")
}

ee,wfn = optimize('scf', return_wfn=True)
oeprop( wfn, 'DIPOLE', 'QUADRUPOLE', 'MULLIKEN_CHARGES')
f=open( 'psi4out.xyz', 'w' )
f.write( "16  " )
f.write( str(ee) + "\n" )
f.write( MOL.save_string_xyz() )
f.close()
--------------------------------------------------------------------------

    Molecular point group: c1
  Charge       = 0
  Multiplicity = 1
  Basis Set: CC-PVTZ
  Basis Set:
  @DF-RHF Final Energy:  -270.12474818877149
    Total Energy =                       -270.1247481887714912
    Molecular point group: c1
  Basis Set: CC-PVTZ
  Basis Set:
  Basis Set: CC-PVTZ
  Basis Set:
  @DF-RHF Final Energy:  -270.01060219476403
    Total Energy =                       -270.0106021947640897
  Basis Set: CC-PVTZ
  Basis Set:
  Basis Set: CC-PVTZ
  Basis Set:
  @DF-RHF Final Energy:  -270.10705815917731
    Total Energy =                       -270.1070581591773703
  Basis Set: CC-PVTZ
  Basis Set:
  Basis Set: CC-PVTZ
  Basis Set:
  @DF-RHF Final Energy:  -270.12666044275528
    Total Energy =                       -270.1266604427551101
  Basis Set: CC-PVTZ
  Basis Set:
  @DF-RHF Final Energy:  -270.12742168147770
    Total Energy =                       -270.1274216814775286
  Basis Set: CC-PVTZ
  Basis Set:
  @DF-RHF Final Energy:  -270.12696863768849
    Total Energy =                       -270.1269686376887762
  Basis Set: CC-PVTZ
  Basis Set:
  Basis Set: CC-PVTZ
  Basis Set:
  @DF-RHF Final Energy:  -270.12749320858620
    Total Energy =                       -270.1274932085862019
  Basis Set: CC-PVTZ
  Basis Set:
  Basis Set: CC-PVTZ
  Basis Set:
  @DF-RHF Final Energy:  -270.12749736257996
    Total Energy =                       -270.1274973625800726
  Basis Set: CC-PVTZ
  Basis Set:
  Charge       = 0
  Multiplicity = 1
  Basis Set: CC-PVTZ
  Basis Set:

    Orbital Energies (a.u.)
    -----------------------

    Doubly Occupied:

       1A    -20.534959     2A    -11.318444     3A    -11.232349
       4A    -11.231702     5A    -11.225442     6A    -11.211151
       7A     -1.396771     8A     -1.072805     9A     -1.036193
      10A     -0.907950    11A     -0.868189    12A     -0.722827
      13A     -0.656671    14A     -0.648150    15A     -0.632504
      16A     -0.609565    17A     -0.554129    18A     -0.542609
      19A     -0.538262    20A     -0.511546    21A     -0.507786
      22A     -0.503031    23A     -0.473730    24A     -0.398094

  @DF-RHF Final Energy:  -270.12749782529585

   => Energetics <=

    Nuclear Repulsion Energy =            240.8283347011873730
    One-Electron Energy =                -843.2419499271238692
    Two-Electron Energy =                 332.2861174006408191
    DFT Exchange-Correlation Energy =       0.0000000000000000
    Empirical Dispersion Energy =           0.0000000000000000
    PCM Polarization Energy =               0.0000000000000000
    EFP Energy =                            0.0000000000000000
    Total Energy =                       -270.1274978252956771
    Molecular point group: c1
  Basis Set: CC-PVTZ
  Basis Set:

  -Total Gradient:
     Atom            X                  Y                   Z
    ------   -----------------  -----------------  -----------------
       1        0.000004109376     0.000003953405     0.000003818449
       2       -0.000008200469    -0.000011518474    -0.000061002685
       3        0.000251830889     0.000395270174     0.000888238514
       4        0.000014158108     0.000001446740     0.000016525025
       5       -0.000004619566     0.000008598165     0.000003576176
       6       -0.000382562941    -0.000709790648    -0.001004078077
       7       -0.000024659707    -0.000004923547    -0.000027743609
       8        0.000005731363    -0.000018875152    -0.000025958728
       9        0.000166264266     0.001035122758    -0.000624351253
      10       -0.000005448813     0.000020200468    -0.000001002201
      11        0.000043210622    -0.000000917905     0.000034568140
      12       -0.000040257636    -0.000731780047     0.000838948934
      13        0.000000308256    -0.000005333439    -0.000001013069
      14       -0.000011161593     0.000010600014    -0.000022282013
      15       -0.000020739662     0.000024601196    -0.000002218525
      16        0.000012037506    -0.000016653710    -0.000016025078

  **** Optimization is complete! (in 9 steps) ****
    Final optimized geometry and variables:
    Molecular point group: c1

    Geometry (in Angstrom), charge = 0, multiplicity = 1:

    H           -2.707793717525     0.411974709112    -0.467412139471
    C           -2.084157908465     1.170478974280    -0.013776834118
    C           -0.614605383466     0.921787459623    -0.315312315434
    H           -2.270302699657     1.150203922967     1.051515596180
    H           -2.386814770367     2.137845805372    -0.396760210107
    C           -0.107398507767    -0.413550413970     0.187919062365
    H            0.005319232287     1.699934741786     0.119577913624
    H           -0.427010319134     0.967274931109    -1.384787523411
    C            1.338209828947    -0.813683980212    -0.081168474220
    O           -0.815355886461    -1.163910880391     0.777722905252
    C            2.310484865514     0.260944871334    -0.555911383422
    H            1.287882604349    -1.621767916558    -0.805045131965
    H            1.694547552329    -1.267836032178     0.835186279183
    H            2.009434624386     0.699615306035    -1.499091828858
    H            3.292497179088    -0.172707284160    -0.698044272933
    H            2.410635083246     1.060757935902     0.168323197983

  Mulliken Charges: (a.u.)
   Center  Symbol    Alpha    Beta     Spin     Total
       1     H     0.44773  0.44773  0.00000  0.10454
       2     C     3.14195  3.14195  0.00000 -0.28389
       3     C     3.10542  3.10542  0.00000 -0.21085
       4     H     0.44740  0.44740  0.00000  0.10521
       5     H     0.45095  0.45095  0.00000  0.09810
       6     C     2.87208  2.87208  0.00000  0.25583
       7     H     0.44353  0.44353  0.00000  0.11294
       8     H     0.44352  0.44352  0.00000  0.11296
       9     C     3.08944  3.08944  0.00000 -0.17887
      10     O     4.17775  4.17775  0.00000 -0.35551
      11     C     3.15906  3.15906  0.00000 -0.31811
      12     H     0.44157  0.44157  0.00000  0.11687
      13     H     0.43710  0.43710  0.00000  0.12580
      14     H     0.45127  0.45127  0.00000  0.09747
      15     H     0.44114  0.44114  0.00000  0.11772
      16     H     0.45011  0.45011  0.00000  0.09978

   Total alpha = 24.00000, Total beta = 24.00000, Total charge =  0.00000

*** Psi4 exiting successfully. Buy a developer a beer!
