                              Psi4 1.0.54 Driver

  ==> Input File <==

--------------------------------------------------------------------------
set {
	reference rhf
	basis cc-pvtz
}

set_num_threads( 4 )
memory 2 gb

molecule MOL {
0 1

H	 -2.858394	 -1.409096	 0.226944
O	 -2.321472	 -0.864941	 -0.318626
C	 -2.021813	 0.336996	 0.342658
C	 -0.669613	 0.837286	 -0.127252
H	 -2.780861	 1.084746	 0.127159
H	 -2.006390	 0.184138	 1.420053
C	 0.490865	 -0.082543	 0.241244
H	 -0.708709	 0.967192	 -1.204587
H	 -0.507562	 1.822272	 0.303070
C	 1.839800	 0.429565	 -0.255472
H	 0.305636	 -1.070211	 -0.165276
H	 0.527397	 -0.195943	 1.322876
C	 3.001144	 -0.485193	 0.119072
H	 1.804373	 0.541073	 -1.335756
H	 2.020437	 1.423114	 0.146921
H	 2.866892	 -1.477297	 -0.298806
H	 3.943543	 -0.095749	 -0.249061
H	 3.085064	 -0.590459	 1.195790

	symmetry c1
}
set optking {
	frozen_dihedral = ("
		1 2 3 4
	")
}

ee,wfn = optimize('scf', return_wfn=True)
oeprop( wfn, 'DIPOLE', 'QUADRUPOLE', 'MULLIKEN_CHARGES')
f=open( 'psi4out.xyz', 'w' )
f.write( "18  " )
f.write( str(ee) + "\n" )
f.write( MOL.save_string_xyz() )
f.close()
--------------------------------------------------------------------------

    Molecular point group: c1
  Charge       = 0
  Multiplicity = 1
  Basis Set: CC-PVTZ
  Basis Set:
  @DF-RHF Final Energy:  -271.28617025761201
    Total Energy =                       -271.2861702576121843
    Molecular point group: c1
  Basis Set: CC-PVTZ
  Basis Set:
  Basis Set: CC-PVTZ
  Basis Set:
  @DF-RHF Final Energy:  -271.28620662130811
    Total Energy =                       -271.2862066213077696
  Basis Set: CC-PVTZ
  Basis Set:
  Basis Set: CC-PVTZ
  Basis Set:
  @DF-RHF Final Energy:  -271.28622342494373
    Total Energy =                       -271.2862234249434437
  Basis Set: CC-PVTZ
  Basis Set:
  Charge       = 0
  Multiplicity = 1
  Basis Set: CC-PVTZ
  Basis Set:

    Orbital Energies (a.u.)
    -----------------------

    Doubly Occupied:

       1A    -20.545810     2A    -11.266189     3A    -11.210356
       4A    -11.210020     5A    -11.206286     6A    -11.203734
       7A     -1.363463     8A     -1.077337     9A     -1.010707
      10A     -0.915564    11A     -0.819707    12A     -0.785321
      13A     -0.709282    14A     -0.636352    15A     -0.633507
      16A     -0.582692    17A     -0.571030    18A     -0.564479
      19A     -0.525764    20A     -0.497096    21A     -0.485314
      22A     -0.473127    23A     -0.460503    24A     -0.457407
      25A     -0.427114

  @DF-RHF Final Energy:  -271.28622356562562

   => Energetics <=

    Nuclear Repulsion Energy =            249.1996445615203584
    One-Electron Energy =                -861.6954106780233360
    Two-Electron Energy =                 341.2095425508770745
    DFT Exchange-Correlation Energy =       0.0000000000000000
    Empirical Dispersion Energy =           0.0000000000000000
    PCM Polarization Energy =               0.0000000000000000
    EFP Energy =                            0.0000000000000000
    Total Energy =                       -271.2862235656259031
    Molecular point group: c1
  Basis Set: CC-PVTZ
  Basis Set:

  -Total Gradient:
     Atom            X                  Y                   Z
    ------   -----------------  -----------------  -----------------
       1        0.001150520594    -0.000593101084     0.000511493027
       2       -0.001274336217     0.000585110245    -0.000420547652
       3       -0.000250828506     0.000460290903    -0.000685283950
       4        0.000373587439    -0.000464413585     0.000583916525
       5        0.000019546536     0.000004034376     0.000001711278
       6       -0.000003939048     0.000003966912     0.000009395998
       7       -0.000013429458    -0.000010160644     0.000000339113
       8        0.000007144067     0.000002585058    -0.000013507428
       9       -0.000004927614    -0.000011483277    -0.000003221167
      10        0.000003531453     0.000020992448     0.000020443293
      11       -0.000008917931     0.000001741191    -0.000008512451
      12        0.000004307965    -0.000000873727     0.000001944339
      13       -0.000001106016    -0.000001058626    -0.000002448259
      14       -0.000004500779    -0.000007267398     0.000007890417
      15        0.000005870993     0.000009227952    -0.000001829315
      16       -0.000000678011    -0.000002023749     0.000001470566
      17       -0.000002299555    -0.000000295714    -0.000002429990
      18        0.000000454088     0.000002728722    -0.000000824344

  **** Optimization is complete! (in 4 steps) ****
    Final optimized geometry and variables:
    Molecular point group: c1

    Geometry (in Angstrom), charge = 0, multiplicity = 1:

    H           -2.878632425504    -1.408052204586     0.203747039400
    O           -2.342782674489    -0.857972809556    -0.335182916242
    C           -2.021773226192     0.331421808184     0.342095619665
    C           -0.670318737129     0.835820563060    -0.127749395665
    H           -2.782905270378     1.081827138244     0.147843368355
    H           -1.996152503788     0.162227086274     1.415977424550
    C            0.493078847202    -0.077477390496     0.245572146547
    H           -0.708649206575     0.960584057992    -1.205961968854
    H           -0.513002501967     1.824377176335     0.296399357757
    C            1.840296946725     0.431907860825    -0.258511269921
    H            0.308726132686    -1.068679471310    -0.153142312739
    H            0.533321911049    -0.181449003117     1.328256798472
    C            3.003582901202    -0.478386522001     0.120650024946
    H            1.801788172649     0.534253062643    -1.339485632479
    H            2.020663994952     1.428902651510     0.135146055433
    H            2.868552868118    -1.474609101392    -0.287090906516
    H            3.944282266421    -0.091972416794    -0.254800823367
    H            3.091692655128    -0.572989347815     1.198028696440

  Mulliken Charges: (a.u.)
   Center  Symbol    Alpha    Beta     Spin     Total
       1     H     0.39321  0.39321  0.00000  0.21358
       2     O     4.20321  4.20321  0.00000 -0.40641
       3     C     2.97650  2.97650  0.00000  0.04700
       4     C     3.08783  3.08783  0.00000 -0.17566
       5     H     0.46179  0.46179  0.00000  0.07642
       6     H     0.47294  0.47294  0.00000  0.05413
       7     C     3.08878  3.08878  0.00000 -0.17755
       8     H     0.45147  0.45147  0.00000  0.09706
       9     H     0.45419  0.45419  0.00000  0.09163
      10     C     3.08367  3.08367  0.00000 -0.16734
      11     H     0.44623  0.44623  0.00000  0.10754
      12     H     0.46002  0.46002  0.00000  0.07996
      13     C     3.14995  3.14995  0.00000 -0.29991
      14     H     0.45382  0.45382  0.00000  0.09237
      15     H     0.45663  0.45663  0.00000  0.08674
      16     H     0.45458  0.45458  0.00000  0.09084
      17     H     0.44904  0.44904  0.00000  0.10192
      18     H     0.45616  0.45616  0.00000  0.08769

   Total alpha = 25.00000, Total beta = 25.00000, Total charge =  0.00000

*** Psi4 exiting successfully. Buy a developer a beer!
