                              Psi4 1.0.54 Driver

  ==> Input File <==

--------------------------------------------------------------------------
set {
	reference rhf
	basis cc-pvtz
}

set_num_threads( 4 )
memory 2 gb

molecule MOL {
0 1

H	 1.266635	 -1.445807	 0.456901
C	 0.674785	 -0.535336	 0.567380
N	 -0.537714	 -0.645117	 0.000000
O	 1.097324	 0.422045	 1.134477
C	 -1.522613	 0.412524	 0.000000
H	 -0.757978	 -1.503997	 -0.440219
H	 -2.150256	 0.356137	 -0.880771
H	 -1.005621	 1.357208	 0.000000
H	 -2.150256	 0.356137	 0.880771

	symmetry c1
}
set optking {
	frozen_dihedral = ("
		6 3 5 7
	")
}

ee,wfn = optimize('scf', return_wfn=True)
oeprop( wfn, 'DIPOLE', 'QUADRUPOLE', 'MULLIKEN_CHARGES')
f=open( 'psi4out.xyz', 'w' )
f.write( "9  " )
f.write( str(ee) + "\n" )
f.write( MOL.save_string_xyz() )
f.close()
--------------------------------------------------------------------------

    Molecular point group: c1
  Charge       = 0
  Multiplicity = 1
  Basis Set: CC-PVTZ
  Basis Set:
  @DF-RHF Final Energy:  -208.04339123327270
    Total Energy =                       -208.0433912332727004
    Molecular point group: c1
  Basis Set: CC-PVTZ
  Basis Set:
  Basis Set: CC-PVTZ
  Basis Set:
  @DF-RHF Final Energy:  -208.04357570445507
    Total Energy =                       -208.0435757044551792
  Basis Set: CC-PVTZ
  Basis Set:
  Basis Set: CC-PVTZ
  Basis Set:
  @DF-RHF Final Energy:  -208.04359523293769
    Total Energy =                       -208.0435952329376335
  Basis Set: CC-PVTZ
  Basis Set:
  Basis Set: CC-PVTZ
  Basis Set:
  @DF-RHF Final Energy:  -208.04364805762640
    Total Energy =                       -208.0436480576264557
  Basis Set: CC-PVTZ
  Basis Set:
  Basis Set: CC-PVTZ
  Basis Set:
  @DF-RHF Final Energy:  -208.04366926516647
    Total Energy =                       -208.0436692651664998
  Basis Set: CC-PVTZ
  Basis Set:
  Basis Set: CC-PVTZ
  Basis Set:
  @DF-RHF Final Energy:  -208.04367524441199
    Total Energy =                       -208.0436752444118724
  Basis Set: CC-PVTZ
  Basis Set:
  Charge       = 0
  Multiplicity = 1
  Basis Set: CC-PVTZ
  Basis Set:

    Orbital Energies (a.u.)
    -----------------------

    Doubly Occupied:

       1A    -20.516831     2A    -15.584590     3A    -11.336640
       4A    -11.260018     5A     -1.394122     6A     -1.239565
       7A     -0.969851     8A     -0.808725     9A     -0.748879
      10A     -0.646169    11A     -0.629880    12A     -0.596263
      13A     -0.557995    14A     -0.538780    15A     -0.428633
      16A     -0.396695

  @DF-RHF Final Energy:  -208.04367625795103

   => Energetics <=

    Nuclear Repulsion Energy =            122.8543860376172177
    One-Electron Energy =                -526.4888518385851057
    Two-Electron Energy =                 195.5907895430169958
    DFT Exchange-Correlation Energy =       0.0000000000000000
    Empirical Dispersion Energy =           0.0000000000000000
    PCM Polarization Energy =               0.0000000000000000
    EFP Energy =                            0.0000000000000000
    Total Energy =                       -208.0436762579508638
    Molecular point group: c1
  Basis Set: CC-PVTZ
  Basis Set:

  -Total Gradient:
     Atom            X                  Y                   Z
    ------   -----------------  -----------------  -----------------
       1        0.000008106239    -0.000003154222     0.000003234492
       2       -0.000068192949    -0.000070268386    -0.000066510461
       3        0.000092291525     0.000030424283    -0.000053943672
       4        0.000009854693     0.000060071771     0.000029913252
       5       -0.000046446656    -0.000030352028     0.000053756983
       6       -0.000017733334    -0.000004970623     0.000058044271
       7        0.000019728253     0.000025265252    -0.000039504262
       8        0.000015766973    -0.000004130853     0.000000439871
       9       -0.000013374745    -0.000002885193     0.000014569525

  **** Optimization is complete! (in 7 steps) ****
    Final optimized geometry and variables:
    Molecular point group: c1

    Geometry (in Angstrom), charge = 0, multiplicity = 1:

    H            1.375985303172    -1.348739876380     0.063017965957
    C            0.759303952317    -0.453459353703     0.162672171731
    N           -0.411199076283    -0.556176397703    -0.487311702206
    O            1.122559774491     0.498011965521     0.778582101920
    C           -1.416368604324     0.482336586348    -0.449358954114
    H           -0.637438457044    -1.430141096791    -0.892764743140
    H           -2.077219719617     0.365775279502    -1.296649625717
    H           -0.937983337765     1.447308830699    -0.507510128024
    H           -2.002281790024     0.445858990475     0.461653454362

  Mulliken Charges: (a.u.)
   Center  Symbol    Alpha    Beta     Spin     Total
       1     H     0.46387  0.46387  0.00000  0.07225
       2     C     2.88035  2.88035  0.00000  0.23929
       3     N     3.60619  3.60619  0.00000 -0.21237
       4     O     4.21401  4.21401  0.00000 -0.42802
       5     C     3.07739  3.07739  0.00000 -0.15477
       6     H     0.41048  0.41048  0.00000  0.17905
       7     H     0.45394  0.45394  0.00000  0.09211
       8     H     0.43909  0.43909  0.00000  0.12182
       9     H     0.45468  0.45468  0.00000  0.09064

   Total alpha = 16.00000, Total beta = 16.00000, Total charge = -0.00000

*** Psi4 exiting successfully. Buy a developer a beer!
