  ==> Input File <==

--------------------------------------------------------------------------
set {
	reference rhf
	basis 6-31G*
}

set_num_threads( 4 )
memory 2 gb

molecule MOL {
0 1

H	 3.729471	 -0.928294	 -0.070608
O	 2.826016	 -1.159218	 0.122261
C	 2.077727	 -0.067559	 -0.035091
C	 0.624473	 -0.343591	 0.253101
O	 2.542965	 0.974826	 -0.363729
C	 -0.265902	 0.883932	 0.072916
H	 0.324016	 -1.163849	 -0.390541
H	 0.565024	 -0.726111	 1.268924
C	 -1.728698	 0.646073	 0.462102
H	 -0.209144	 1.219470	 -0.958188
H	 0.135059	 1.692851	 0.673903
C	 -2.482460	 -0.343073	 -0.431425
H	 -2.245265	 1.602650	 0.432430
H	 -1.779332	 0.308348	 1.496285
C	 -1.559748	 -1.386596	 -1.060822
H	 -3.247571	 -0.845707	 0.156800
H	 -3.004521	 0.188353	 -1.222892
H	 -2.115695	 -2.074475	 -1.690153
H	 -1.052017	 -1.971141	 -0.299018
H	 -0.798795	 -0.915994	 -1.677036

	symmetry c1
}
set optking {
	frozen_dihedral = ("
		16 12 9 6
	")
}

ee = optimize('scf')
oeprop('DIPOLE', 'QUADRUPOLE', 'MULLIKEN_CHARGES')
f=open( 'psi4out.xyz', 'w' )
f.write( "20  " )
f.write( str(ee) + "\n" )
f.write( MOL.save_string_xyz() )
f.close()
--------------------------------------------------------------------------

    Molecular point group: c1
  Charge       = 0
  Multiplicity = 1
  Basis Set: 6-31G*
  Basis Set:
  @DF-RHF Final Energy:  -383.91698010259586
    Total Energy =                       -383.9169801025957440
    Molecular point group: c1
  Basis Set: 6-31G*
  Basis Set:
  Basis Set: 6-31G*
  Basis Set:
  @DF-RHF Final Energy:  -383.93385437254705
    Total Energy =                       -383.9338543725473301
  Basis Set: 6-31G*
  Basis Set:
  Basis Set: 6-31G*
  Basis Set:
  @DF-RHF Final Energy:  -383.93766583234742
    Total Energy =                       -383.9376658323468519
  Basis Set: 6-31G*
  Basis Set:
  Basis Set: 6-31G*
  Basis Set:
  @DF-RHF Final Energy:  -383.93663681027152
    Total Energy =                       -383.9366368102713523
  Basis Set: 6-31G*
  Basis Set:
  @DF-RHF Final Energy:  -383.93892999225989
    Total Energy =                       -383.9389299922600003
  @DF-RHF Final Energy:  -383.93941776558302
    Total Energy =                       -383.9394177655827889
  @DF-RHF Final Energy:  -383.93950334866327
    Total Energy =                       -383.9395033486632656
  Basis Set: 6-31G*
  Basis Set:
  @DF-RHF Final Energy:  -383.93951344036810
    Total Energy =                       -383.9395134403683869
  Basis Set: 6-31G*
  Basis Set:
  Basis Set: 6-31G*
  Basis Set:
  @DF-RHF Final Energy:  -383.93951734954027
    Total Energy =                       -383.9395173495402105
  Basis Set: 6-31G*
  Basis Set:
  Basis Set: 6-31G*
  Basis Set:
  @DF-RHF Final Energy:  -383.93952052032284
    Total Energy =                       -383.9395205203228443
  Basis Set: 6-31G*
  Basis Set:
  Charge       = 0
  Multiplicity = 1
  Basis Set: 6-31G*
  Basis Set:

    Orbital Energies (a.u.)
    -----------------------

    Doubly Occupied:

       1A    -20.612190     2A    -20.551280     3A    -11.380677
       4A    -11.239123     5A    -11.222849     6A    -11.221221
       7A    -11.220653     8A    -11.213596     9A     -1.474224
      10A     -1.365265    11A     -1.092941    12A     -1.037197
      13A     -0.961831    14A     -0.880691    15A     -0.808048
      16A     -0.772249    17A     -0.698985    18A     -0.686697
      19A     -0.666766    20A     -0.630959    21A     -0.617873
      22A     -0.589230    23A     -0.570224    24A     -0.557615
      25A     -0.533302    26A     -0.513655    27A     -0.508353
      28A     -0.478606    29A     -0.468413    30A     -0.458424
      31A     -0.455412    32A     -0.441318

  @DF-RHF Final Energy:  -383.93952062332511

   => Energetics <=

    Nuclear Repulsion Energy =            383.2192827035931373
    One-Electron Energy =               -1282.4578726151221417
    Two-Electron Energy =                 515.2990692882042367
    DFT Exchange-Correlation Energy =       0.0000000000000000
    Empirical Dispersion Energy =           0.0000000000000000
    PCM Polarization Energy =               0.0000000000000000
    EFP Energy =                            0.0000000000000000
    Total Energy =                       -383.9395206233248246
    Molecular point group: c1
  Basis Set: 6-31G*
  Basis Set:

  -Total Gradient:
     Atom            X                  Y                   Z
    ------   -----------------  -----------------  -----------------
       1       -0.000007631210     0.000005382135     0.000001877350
       2       -0.000010005895    -0.000014806166    -0.000004342441
       3        0.000016816937     0.000010591519    -0.000000087578
       4        0.000002279862    -0.000021488664    -0.000023440997
       5       -0.000009188071     0.000004562717     0.000005566886
       6        0.001368594168    -0.003761913675     0.002273732834
       7        0.000006096947     0.000010284803     0.000015063479
       8        0.000001755885     0.000007545311     0.000006412833
       9       -0.001179244497     0.004539646106    -0.003189428682
      10       -0.000003245940     0.000001079710    -0.000007917100
      11        0.000001578707    -0.000002679433    -0.000002087075
      12       -0.004004371683     0.003847119544     0.000321924437
      13       -0.000000149687    -0.000000763692     0.000000055492
      14        0.000003619288     0.000001240224    -0.000001564501
      15       -0.000002383756    -0.000001267962    -0.000007744924
      16        0.003814733631    -0.004621015840     0.000605169812
      17        0.000001240293    -0.000002883822     0.000001123010
      18        0.000001036831     0.000004484068     0.000000987756
      19        0.000002246085    -0.000000656030     0.000003900180
      20       -0.000003777901    -0.000004460849     0.000000799229

  **** Optimization is complete! (in 11 steps) ****
    Final optimized geometry and variables:
    Molecular point group: c1

    Geometry (in Angstrom), charge = 0, multiplicity = 1:

    H            3.577343582700    -0.600660801542     0.253528516655
    O            2.698376993163    -0.853307432560     0.518721846666
    C            1.861289021021     0.117206403691     0.152603684991
    C            0.439368529135    -0.201588210075     0.537833752397
    O            2.235853021623     1.096076774697    -0.406616176828
    C           -0.547368972012     0.891464779070     0.131391229662
    H            0.200242689029    -1.163856366952     0.102137525998
    H            0.426295955292    -0.352740150089     1.614075535165
    C           -1.996193892037     0.638400145597     0.583955508636
    H           -0.498594860844     1.048288621626    -0.941005165353
    H           -0.207158763794     1.821020702187     0.574723926384
    C           -2.905375303954    -0.230631858906    -0.319032577479
    H           -2.485547485910     1.598706834305     0.712393686822
    H           -1.963405395430     0.196741577254     1.578114787097
    C           -2.231219724177    -1.320320851504    -1.159577802328
    H           -3.622486909786    -0.738455931865     0.319655098940
    H           -3.467965040760     0.415208415297    -0.986461258310
    H           -2.974447257300    -1.824139935370    -1.769782422302
    H           -1.762049826329    -2.076225899662    -0.537709191052
    H           -1.479248727654    -0.921004333487    -1.831740237311

  Mulliken Charges: (a.u.)
   Center  Symbol    Alpha    Beta     Spin     Total
       1     H     0.26794  0.26794  0.00000  0.46413
       2     O     4.35161  4.35161  0.00000 -0.70322
       3     C     2.62297  2.62297  0.00000  0.75407
       4     C     3.21260  3.21260  0.00000 -0.42520
       5     O     4.27951  4.27951  0.00000 -0.55902
       6     C     3.15871  3.15871  0.00000 -0.31742
       7     H     0.39461  0.39461  0.00000  0.21079
       8     H     0.39912  0.39912  0.00000  0.20175
       9     C     3.15983  3.15983  0.00000 -0.31966
      10     H     0.40973  0.40973  0.00000  0.18054
      11     H     0.40862  0.40862  0.00000  0.18275
      12     C     3.15259  3.15259  0.00000 -0.30518
      13     H     0.41512  0.41512  0.00000  0.16975
      14     H     0.42347  0.42347  0.00000  0.15305
      15     C     3.24530  3.24530  0.00000 -0.49059
      16     H     0.41977  0.41977  0.00000  0.16045
      17     H     0.41942  0.41942  0.00000  0.16116
      18     H     0.41704  0.41704  0.00000  0.16593
      19     H     0.42261  0.42261  0.00000  0.15478
      20     H     0.41943  0.41943  0.00000  0.16113

   Total alpha = 32.00000, Total beta = 32.00000, Total charge = -0.00000
