                              Psi4 1.0.54 Driver

  ==> Input File <==

--------------------------------------------------------------------------
set {
	reference rhf
	basis cc-pvtz
}

set_num_threads( 4 )
memory 2 gb

molecule MOL {
0 1

H	 -3.436473	 1.252944	 -1.023892
O	 -3.458596	 0.315260	 -0.960865
C	 -3.176635	 -0.080824	 0.355601
C	 -1.763371	 0.265266	 0.799691
H	 -3.321825	 -1.153438	 0.379502
H	 -3.895468	 0.357385	 1.043382
C	 -0.673390	 -0.426948	 -0.013392
H	 -1.631049	 1.344913	 0.747560
H	 -1.664587	 -0.001624	 1.849167
C	 0.737842	 -0.043159	 0.423759
H	 -0.806103	 -0.190518	 -1.063345
H	 -0.797221	 -1.503753	 0.074146
C	 1.824000	 -0.743224	 -0.390623
H	 0.850588	 1.033777	 0.343840
H	 0.868587	 -0.286314	 1.476203
C	 1.903358	 -2.257643	 -0.190407
H	 2.789288	 -0.300544	 -0.155883
H	 1.649338	 -0.544501	 -1.444484
C	 2.335797	 -2.695001	 1.207040
H	 2.604806	 -2.662729	 -0.913354
H	 0.938927	 -2.701121	 -0.424113
H	 3.295299	 -2.261586	 1.470831
H	 2.436376	 -3.773187	 1.258443
H	 1.620083	 -2.399267	 1.964602

	symmetry c1
}
set optking {
	frozen_dihedral = ("
		17 13 10 7
	")
}

ee,wfn = optimize('scf', return_wfn=True)
oeprop( wfn, 'DIPOLE', 'QUADRUPOLE', 'MULLIKEN_CHARGES')
f=open( 'psi4out.xyz', 'w' )
f.write( "24  " )
f.write( str(ee) + "\n" )
f.write( MOL.save_string_xyz() )
f.close()
--------------------------------------------------------------------------

    Molecular point group: c1
  Charge       = 0
  Multiplicity = 1
  Basis Set: CC-PVTZ
  Basis Set:
  @DF-RHF Final Energy:  -349.37814470363287
    Total Energy =                       -349.3781447036327563
    Molecular point group: c1
  Basis Set: CC-PVTZ
  Basis Set:
  Basis Set: CC-PVTZ
  Basis Set:
  @DF-RHF Final Energy:  -349.36288604407525
    Total Energy =                       -349.3628860440749122
  Basis Set: CC-PVTZ
  Basis Set:
  Basis Set: CC-PVTZ
  Basis Set:
  @DF-RHF Final Energy:  -349.37856820724130
    Total Energy =                       -349.3785682072411873
  Basis Set: CC-PVTZ
  Basis Set:
  Basis Set: CC-PVTZ
  Basis Set:
  @DF-RHF Final Energy:  -349.37876096119726
    Total Energy =                       -349.3787609611973721
  Basis Set: CC-PVTZ
  Basis Set:
  Basis Set: CC-PVTZ
  Basis Set:
  @DF-RHF Final Energy:  -349.37875483860017
    Total Energy =                       -349.3787548386001163
  Basis Set: CC-PVTZ
  Basis Set:
  Basis Set: CC-PVTZ
  Basis Set:
  @DF-RHF Final Energy:  -349.37876673075567
    Total Energy =                       -349.3787667307552169
  Basis Set: CC-PVTZ
  Basis Set:
  Charge       = 0
  Multiplicity = 1
  Basis Set: CC-PVTZ
  Basis Set:

    Orbital Energies (a.u.)
    -----------------------

    Doubly Occupied:

       1A    -20.546380     2A    -11.265624     3A    -11.215326
       4A    -11.211146     5A    -11.210372     6A    -11.209724
       7A    -11.208776     8A    -11.205222     9A     -1.364228
      10A     -1.089724    11A     -1.047718    12A     -0.985710
      13A     -0.917197    14A     -0.854034    15A     -0.809740
      16A     -0.763508    17A     -0.682858    18A     -0.653302
      19A     -0.624558    20A     -0.618738    21A     -0.611124
      22A     -0.575197    23A     -0.558268    24A     -0.545964
      25A     -0.521955    26A     -0.510139    27A     -0.495824
      28A     -0.476019    29A     -0.469303    30A     -0.462732
      31A     -0.451765    32A     -0.445538    33A     -0.422553

  @DF-RHF Final Energy:  -349.37876753166910

   => Energetics <=

    Nuclear Repulsion Energy =            390.7297206175659881
    One-Electron Energy =               -1248.1564364613004727
    Two-Electron Energy =                 508.0479483120655004
    DFT Exchange-Correlation Energy =       0.0000000000000000
    Empirical Dispersion Energy =           0.0000000000000000
    PCM Polarization Energy =               0.0000000000000000
    EFP Energy =                            0.0000000000000000
    Total Energy =                       -349.3787675316689274
    Molecular point group: c1
  Basis Set: CC-PVTZ
  Basis Set:

  -Total Gradient:
     Atom            X                  Y                   Z
    ------   -----------------  -----------------  -----------------
       1       -0.000000045415     0.000006341977    -0.000010702633
       2       -0.000015903718     0.000025110328     0.000014534436
       3        0.000001243417    -0.000046313017    -0.000024205684
       4        0.000000599312     0.000021364537    -0.000008686365
       5       -0.000008888702    -0.000005233498     0.000009862651
       6        0.000001363157    -0.000001642039    -0.000000778787
       7        0.000124792544     0.000533034014    -0.000367769700
       8        0.000015681683     0.000006171916     0.000003169962
       9        0.000000144000     0.000000330481     0.000000004366
      10       -0.000147951635    -0.000604659020     0.000387715286
      11       -0.000001262409    -0.000004834917     0.000004013543
      12       -0.000004173853    -0.000012481561    -0.000002039363
      13       -0.000027024722    -0.000563707785     0.000606162224
      14        0.000001400242     0.000009763944     0.000000479878
      15        0.000000999239     0.000001525498     0.000004551537
      16       -0.000011875892     0.000017197789     0.000015710733
      17        0.000063878452     0.000636690675    -0.000606910635
      18        0.000004140089     0.000004983312    -0.000014840159
      19        0.000011825029    -0.000027075894    -0.000011640999
      20       -0.000010957053    -0.000004781087     0.000014118873
      21       -0.000005116268     0.000001806175     0.000008788719
      22       -0.000000398858     0.000008977272    -0.000005217120
      23        0.000002638968    -0.000000434315     0.000005183926
      24        0.000004892388    -0.000002134782    -0.000021504696

  **** Optimization is complete! (in 7 steps) ****
    Final optimized geometry and variables:
    Molecular point group: c1

    Geometry (in Angstrom), charge = 0, multiplicity = 1:

    H           -2.636534724328     2.201746300539    -1.707373826570
    O           -2.754539800940     1.269737666323    -1.673727497907
    C           -2.793084794356     0.842132017223    -0.337725695651
    C           -1.480992405021     1.056032609916     0.401852247703
    H           -3.033538617202    -0.212956769583    -0.371790055176
    H           -3.600026086775     1.339691915938     0.194357220247
    C           -0.307007161533     0.275867586498    -0.183477861453
    H           -1.248211298753     2.119773112076     0.408879760085
    H           -1.629559698388     0.771930120419     1.440942773738
    C            1.002937493362     0.529908746999     0.560051210127
    H           -0.187435488373     0.539924694616    -1.228577863500
    H           -0.549277849122    -0.782642284315    -0.162284872104
    C            2.224631916745    -0.165334526890    -0.047208361748
    H            1.195163224484     1.599681816491     0.562941208472
    H            0.891370295352     0.247131364287     1.602589514677
    C            2.243721098734    -1.694690280965     0.023125395214
    H            3.117594312746     0.217358323287     0.440209495863
    H            2.305415540605     0.131468121911    -1.089643958866
    C            2.277067516457    -2.265805785736     1.438557807943
    H            3.121578182128    -2.042889569426    -0.512531793071
    H            1.390526944332    -2.101863820734    -0.509535831259
    H            3.117942009621    -1.870306973223     1.999412736653
    H            2.374981941051    -3.345168665335     1.415021550802
    H            1.374371957569    -2.034339610693     1.991406093000

  Mulliken Charges: (a.u.)
   Center  Symbol    Alpha    Beta     Spin     Total
       1     H     0.39517  0.39517  0.00000  0.20967
       2     O     4.20372  4.20372  0.00000 -0.40745
       3     C     2.97698  2.97698  0.00000  0.04605
       4     C     3.10257  3.10257  0.00000 -0.20514
       5     H     0.45908  0.45908  0.00000  0.08185
       6     H     0.46034  0.46034  0.00000  0.07932
       7     C     3.08836  3.08836  0.00000 -0.17671
       8     H     0.45845  0.45845  0.00000  0.08309
       9     H     0.45292  0.45292  0.00000  0.09416
      10     C     3.10502  3.10502  0.00000 -0.21005
      11     H     0.44576  0.44576  0.00000  0.10848
      12     H     0.45422  0.45422  0.00000  0.09155
      13     C     3.10123  3.10123  0.00000 -0.20246
      14     H     0.44628  0.44628  0.00000  0.10744
      15     H     0.45187  0.45187  0.00000  0.09625
      16     C     3.09498  3.09498  0.00000 -0.18996
      17     H     0.44829  0.44829  0.00000  0.10343
      18     H     0.44937  0.44937  0.00000  0.10126
      19     C     3.15202  3.15202  0.00000 -0.30404
      20     H     0.44617  0.44617  0.00000  0.10766
      21     H     0.45138  0.45138  0.00000  0.09725
      22     H     0.45460  0.45460  0.00000  0.09080
      23     H     0.44634  0.44634  0.00000  0.10732
      24     H     0.45487  0.45487  0.00000  0.09025

   Total alpha = 33.00000, Total beta = 33.00000, Total charge = -0.00000

*** Psi4 exiting successfully. Buy a developer a beer!
