  ==> Input File <==

--------------------------------------------------------------------------
set {
	reference rhf
	basis 6-31G*
}

set_num_threads( 4 )
memory 2 gb

molecule MOL {
0 1

H	 -1.987141	 0.481599	 2.261691
O	 -1.576677	 1.319928	 2.103225
C	 -0.814096	 1.257388	 0.927833
C	 0.471123	 0.478590	 1.145437
H	 -1.374891	 0.815778	 0.108780
H	 -0.576898	 2.275501	 0.652820
O	 1.171513	 0.459272	 -0.058250
H	 0.242516	 -0.537664	 1.472464
H	 1.055423	 0.950638	 1.933058
C	 2.397842	 -0.198080	 -0.002151
H	 2.508049	 -0.905315	 -0.822092
H	 3.173794	 0.550865	 -0.078850
H	 2.517602	 -0.735921	 0.936026

	symmetry c1
}
set optking {
	frozen_dihedral = ("
		4 7 10 13
	")
}

ee = optimize('scf')
oeprop('DIPOLE', 'QUADRUPOLE', 'MULLIKEN_CHARGES')
f=open( 'psi4out.xyz', 'w' )
f.write( "13  " )
f.write( str(ee) + "\n" )
f.write( MOL.save_string_xyz() )
f.close()
--------------------------------------------------------------------------

    Molecular point group: c1
  Charge       = 0
  Multiplicity = 1
  Basis Set: 6-31G*
  Basis Set:
  @DF-RHF Final Energy:  -267.94634401936992
    Total Energy =                       -267.9463440193699171
    Molecular point group: c1
  Basis Set: 6-31G*
  Basis Set:
  Basis Set: 6-31G*
  Basis Set:
  @DF-RHF Final Energy:  -267.94685973940386
    Total Energy =                       -267.9468597394039193
  Basis Set: 6-31G*
  Basis Set:
  Basis Set: 6-31G*
  Basis Set:
  @DF-RHF Final Energy:  -267.94699420695287
    Total Energy =                       -267.9469942069527519
  Basis Set: 6-31G*
  Basis Set:
  Charge       = 0
  Multiplicity = 1
  Basis Set: 6-31G*
  Basis Set:

    Orbital Energies (a.u.)
    -----------------------

    Doubly Occupied:

       1A    -20.559804     2A    -20.558644     3A    -11.271278
       4A    -11.269837     5A    -11.268377     6A     -1.384239
       7A     -1.364277     8A     -1.018203     9A     -0.913610
      10A     -0.841504    11A     -0.708514    12A     -0.671301
      13A     -0.658270    14A     -0.635901    15A     -0.596619
      16A     -0.567687    17A     -0.549479    18A     -0.488882
      19A     -0.481732    20A     -0.437841    21A     -0.416490

  @DF-RHF Final Energy:  -267.94699513188425

   => Energetics <=

    Nuclear Repulsion Energy =            189.9150743670902273
    One-Electron Energy =                -742.3991569724324791
    Two-Electron Energy =                 284.5370874734580866
    DFT Exchange-Correlation Energy =       0.0000000000000000
    Empirical Dispersion Energy =           0.0000000000000000
    PCM Polarization Energy =               0.0000000000000000
    EFP Energy =                            0.0000000000000000
    Total Energy =                       -267.9469951318841368
    Molecular point group: c1
  Basis Set: 6-31G*
  Basis Set:

  -Total Gradient:
     Atom            X                  Y                   Z
    ------   -----------------  -----------------  -----------------
       1        0.000005121085     0.000003707663    -0.000005826409
       2       -0.000034426032     0.000042536272     0.000048873531
       3       -0.000005587581    -0.000028648504     0.000010760301
       4       -0.000578114069    -0.001090419085    -0.000306114023
       5        0.000033232301     0.000004081289    -0.000004770987
       6       -0.000021301308     0.000008748853     0.000000858772
       7        0.001069129133     0.001740249850     0.000598206460
       8       -0.000005054564     0.000011357692     0.000021839610
       9        0.000012273916    -0.000007452238    -0.000051143962
      10       -0.000996396196    -0.001872780603    -0.000932312576
      11       -0.000047008173     0.000001007821     0.000004017300
      12        0.000020127421    -0.000002440972    -0.000004061773
      13        0.000548004070     0.001190051961     0.000619673759

  **** Optimization is complete! (in 4 steps) ****
    Final optimized geometry and variables:
    Molecular point group: c1

    Geometry (in Angstrom), charge = 0, multiplicity = 1:

    H           -2.318591910310    -0.169616569426     1.403954632254
    O           -1.904924074269     0.667448153324     1.247300495741
    C           -1.128762739451     0.599563300031     0.080722124472
    C            0.154929756218    -0.176108057943     0.316957371225
    H           -1.679262284592     0.152046395739    -0.741986927254
    H           -0.890121759321     1.616340386563    -0.197855369805
    O            0.864786577778    -0.199083997423    -0.882554066782
    H           -0.077180809985    -1.189911552156     0.646718517387
    H            0.726959056714     0.303257326622     1.108412361358
    C            2.102083011098    -0.849928861663    -0.854863006834
    H            2.156720726875    -1.543939190235    -1.684982229626
    H            2.905624825234    -0.126338594890    -0.950526870077
    H            2.249709239730    -1.397168913451     0.071081112333

  Mulliken Charges: (a.u.)
   Center  Symbol    Alpha    Beta     Spin     Total
       1     H     0.28132  0.28132  0.00000  0.43735
       2     O     4.37094  4.37094  0.00000 -0.74188
       3     C     3.00496  3.00496  0.00000 -0.00992
       4     C     2.99634  2.99634  0.00000  0.00733
       5     H     0.42236  0.42236  0.00000  0.15529
       6     H     0.40846  0.40846  0.00000  0.18307
       7     O     4.31221  4.31221  0.00000 -0.62442
       8     H     0.43721  0.43721  0.00000  0.12558
       9     H     0.42331  0.42331  0.00000  0.15338
      10     C     3.07673  3.07673  0.00000 -0.15345
      11     H     0.41730  0.41730  0.00000  0.16540
      12     H     0.42066  0.42066  0.00000  0.15868
      13     H     0.42821  0.42821  0.00000  0.14359

   Total alpha = 21.00000, Total beta = 21.00000, Total charge = -0.00000
