  ==> Input File <==

--------------------------------------------------------------------------
set {
	reference rhf
	basis 6-31G*
}

set_num_threads( 1 )
memory 2 gb

molecule MOL {
0 1

H	 3.089270	 -1.380733	 0.000000
O	 2.178328	 -1.639175	 0.000000
C	 1.368216	 -0.558384	 0.000000
C	 1.846078	 0.729823	 -0.203658
C	 0.017106	 -0.769521	 0.212960
H	 2.897907	 0.891951	 -0.369208
C	 0.973439	 1.805036	 -0.194246
H	 -0.353314	 -1.764044	 0.370400
C	 -0.849767	 0.312388	 0.220850
H	 1.354956	 2.797314	 -0.353014
C	 -0.378392	 1.603263	 0.017825
C	 -2.302523	 0.092638	 0.449062
H	 -1.057994	 2.436982	 0.025540
O	 -2.803094	 -0.970593	 0.632131
H	 -2.913099	 1.000574	 0.439189

	symmetry c1
}
set optking {
	frozen_dihedral = ("
		11 9 12 14
	")
}

ee = energy('scf')
oeprop('DIPOLE', 'QUADRUPOLE', 'MULLIKEN_CHARGES')
f=open( 'psi4out.xyz', 'w' )
f.write( "15  " )
f.write( str(ee) + "\n" )
f.write( MOL.save_string_xyz() )
f.close()
--------------------------------------------------------------------------

    Molecular point group: c1

    Geometry (in Angstrom), charge = 0, multiplicity = 1:

       Center              X                  Y                   Z               Mass
    ------------   -----------------  -----------------  -----------------  -----------------
           H          3.079943754414    -1.387723542434    -0.133223671995     1.007825032070
           O          2.169001754414    -1.646165542434    -0.133223671995    15.994914619560
           C          1.358889754414    -0.565374542434    -0.133223671995    12.000000000000
           C          1.836751754414     0.722832457566    -0.336881671995    12.000000000000
           C          0.007779754414    -0.776511542434     0.079736328005    12.000000000000
           H          2.888580754414     0.884960457566    -0.502431671995     1.007825032070
           C          0.964112754414     1.798045457566    -0.327469671995    12.000000000000
           H         -0.362640245586    -1.771034542434     0.237176328005     1.007825032070
           C         -0.859093245586     0.305397457566     0.087626328005    12.000000000000
           H          1.345629754414     2.790323457566    -0.486237671995     1.007825032070
           C         -0.387718245586     1.596272457566    -0.115398671995    12.000000000000
           C         -2.311849245586     0.085647457566     0.315838328005    12.000000000000
           H         -1.067320245586     2.429991457566    -0.107683671995     1.007825032070
           O         -2.812420245586    -0.977583542434     0.498907328005    15.994914619560
           H         -2.922425245586     0.993583457566     0.305965328005     1.007825032070

  Charge       = 0
  Multiplicity = 1
  Basis Set: 6-31G*
  Basis Set:

    Orbital Energies (a.u.)
    -----------------------

    Doubly Occupied:

       1A    -20.601286     2A    -20.564369     3A    -11.332402
       4A    -11.312570     5A    -11.253232     6A    -11.251741
       7A    -11.249987     8A    -11.246384     9A    -11.239562
      10A     -1.421165    11A     -1.404982    12A     -1.169608
      13A     -1.048702    14A     -1.027108    15A     -0.899975
      16A     -0.845838    17A     -0.813154    18A     -0.736008
      19A     -0.702087    20A     -0.685686    21A     -0.639584
      22A     -0.635770    23A     -0.611416    24A     -0.602793
      25A     -0.572464    26A     -0.550410    27A     -0.542842
      28A     -0.512895    29A     -0.486288    30A     -0.423465
      31A     -0.353508    32A     -0.326182

  @DF-RHF Final Energy:  -418.28604665770484

   => Energetics <=

    Nuclear Repulsion Energy =            403.1665491989714951
    One-Electron Energy =               -1368.7783418425017317
    Two-Electron Energy =                 547.3257459858255061
    DFT Exchange-Correlation Energy =       0.0000000000000000
    Empirical Dispersion Energy =           0.0000000000000000
    PCM Polarization Energy =               0.0000000000000000
    EFP Energy =                            0.0000000000000000
    Total Energy =                       -418.2860466577046736

  Mulliken Charges: (a.u.)
   Center  Symbol    Alpha    Beta     Spin     Total
       1     H     0.27069  0.27069  0.00000  0.45863
       2     O     4.37616  4.37616  0.00000 -0.75232
       3     C     2.79526  2.79526  0.00000  0.40949
       4     C     3.13378  3.13378  0.00000 -0.26756
       5     C     3.11338  3.11338  0.00000 -0.22676
       6     H     0.39871  0.39871  0.00000  0.20259
       7     C     3.09516  3.09516  0.00000 -0.19033
       8     H     0.37025  0.37025  0.00000  0.25950
       9     C     3.04598  3.04598  0.00000 -0.09196
      10     H     0.39301  0.39301  0.00000  0.21398
      11     C     3.11512  3.11512  0.00000 -0.23024
      12     C     2.83260  2.83260  0.00000  0.33481
      13     H     0.39322  0.39322  0.00000  0.21356
      14     O     4.24487  4.24487  0.00000 -0.48973
      15     H     0.42183  0.42183  0.00000  0.15633

   Total alpha = 32.00000, Total beta = 32.00000, Total charge = -0.00000
