                              Psi4 1.0.54 Driver

  ==> Input File <==

--------------------------------------------------------------------------
set {
	reference rhf
	basis cc-pvtz
}

set_num_threads( 4 )
memory 2 gb

molecule MOL {
0 1

H	 2.609167	 -0.669362	 -0.380975
O	 1.675515	 -0.612943	 -0.465627
C	 1.135873	 0.113391	 0.608264
C	 0.027642	 1.012027	 0.090274
H	 1.902972	 0.727968	 1.072615
H	 0.756163	 -0.561896	 1.370018
C	 -1.138737	 0.285728	 -0.581921
H	 0.464661	 1.708096	 -0.618252
H	 -0.340737	 1.603071	 0.925246
C	 -1.933983	 -0.631436	 0.343653
H	 -0.763151	 -0.285569	 -1.422081
H	 -1.808359	 1.035291	 -0.992333
H	 -2.789188	 -1.049673	 -0.174718
H	 -1.335629	 -1.461368	 0.700418
H	 -2.305435	 -0.092167	 1.209725

	symmetry c1
}
set optking {
	frozen_dihedral = ("
		1 2 3 4
	")
}

ee,wfn = optimize('scf', return_wfn=True)
oeprop( wfn, 'DIPOLE', 'QUADRUPOLE', 'MULLIKEN_CHARGES')
f=open( 'psi4out.xyz', 'w' )
f.write( "15  " )
f.write( str(ee) + "\n" )
f.write( MOL.save_string_xyz() )
f.close()
--------------------------------------------------------------------------

    Molecular point group: c1
  Charge       = 0
  Multiplicity = 1
  Basis Set: CC-PVTZ
  Basis Set:
  @DF-RHF Final Energy:  -232.23617747544176
    Total Energy =                       -232.2361774754419343
    Molecular point group: c1
  Basis Set: CC-PVTZ
  Basis Set:
  Basis Set: CC-PVTZ
  Basis Set:
  @DF-RHF Final Energy:  -232.23627413891174
    Total Energy =                       -232.2362741389117673
  Basis Set: CC-PVTZ
  Basis Set:
  Basis Set: CC-PVTZ
  Basis Set:
  @DF-RHF Final Energy:  -232.23629721372484
    Total Energy =                       -232.2362972137248107
  Basis Set: CC-PVTZ
  Basis Set:
  Basis Set: CC-PVTZ
  Basis Set:
  @DF-RHF Final Energy:  -232.23630302090424
    Total Energy =                       -232.2363030209043586
  Basis Set: CC-PVTZ
  Basis Set:
  Charge       = 0
  Multiplicity = 1
  Basis Set: CC-PVTZ
  Basis Set:

    Orbital Energies (a.u.)
    -----------------------

    Doubly Occupied:

       1A    -20.545464     2A    -11.265634     3A    -11.210641
       4A    -11.206979     5A    -11.201800     6A     -1.363056
       7A     -1.064963     8A     -0.970770     9A     -0.869810
      10A     -0.777374    11A     -0.704302    12A     -0.647283
      13A     -0.612451    14A     -0.572615    15A     -0.565425
      16A     -0.532553    17A     -0.510262    18A     -0.480232
      19A     -0.467079    20A     -0.452082    21A     -0.430175

  @DF-RHF Final Energy:  -232.23630363341940

   => Energetics <=

    Nuclear Repulsion Energy =            191.7980156347647664
    One-Electron Energy =                -695.1667336686787166
    Two-Electron Energy =                 271.1324144004946675
    DFT Exchange-Correlation Energy =       0.0000000000000000
    Empirical Dispersion Energy =           0.0000000000000000
    PCM Polarization Energy =               0.0000000000000000
    EFP Energy =                            0.0000000000000000
    Total Energy =                       -232.2363036334193112
    Molecular point group: c1
  Basis Set: CC-PVTZ
  Basis Set:

  -Total Gradient:
     Atom            X                  Y                   Z
    ------   -----------------  -----------------  -----------------
       1        0.000127570342     0.001204075657    -0.000792495179
       2        0.000076359437    -0.001234738092     0.000921045682
       3       -0.000839525443    -0.000630999663     0.000077454686
       4        0.000623023595     0.000636647733    -0.000222529754
       5       -0.000004528203     0.000002387791    -0.000016148256
       6        0.000011043152    -0.000020017080     0.000012006914
       7       -0.000013612021     0.000018446871     0.000042441142
       8       -0.000032629529     0.000035627686    -0.000030825741
       9       -0.000000646014    -0.000036671535    -0.000002808194
      10        0.000022969542    -0.000011187224     0.000009474731
      11        0.000025647635    -0.000007646805     0.000027656257
      12       -0.000003987148     0.000039157081    -0.000022062635
      13       -0.000002928227     0.000014291995    -0.000010079168
      14        0.000007845036    -0.000013878612     0.000004149950
      15        0.000003397845     0.000004504194     0.000002719564

  **** Optimization is complete! (in 5 steps) ****
    Final optimized geometry and variables:
    Molecular point group: c1

    Geometry (in Angstrom), charge = 0, multiplicity = 1:

    H            2.596349430127    -0.704319654146    -0.380364186715
    O            1.663652696594    -0.643072076055    -0.454657225524
    C            1.134718430022     0.115968415515     0.605578810021
    C            0.021616063276     1.016159246605     0.097119697444
    H            1.908128018503     0.733388079917     1.052470992240
    H            0.769394132719    -0.549867337679     1.380984943331
    C           -1.139697180625     0.286462976402    -0.580214742143
    H            0.452470414891     1.721178796314    -0.606566293515
    H           -0.351967835234     1.596243684739     0.937970310487
    C           -1.930707702959    -0.638629265227     0.341064344031
    H           -0.758001712125    -0.280485813445    -1.420817176946
    H           -1.812540925286     1.033070371056    -0.990812118209
    H           -2.780276603360    -1.063106039055    -0.181434926553
    H           -1.326246119028    -1.463541386729     0.698756023169
    H           -2.310176153506    -0.103406639796     1.206164613679

  Mulliken Charges: (a.u.)
   Center  Symbol    Alpha    Beta     Spin     Total
       1     H     0.39303  0.39303  0.00000  0.21394
       2     O     4.20249  4.20249  0.00000 -0.40498
       3     C     2.97728  2.97728  0.00000  0.04544
       4     C     3.08915  3.08915  0.00000 -0.17831
       5     H     0.46372  0.46372  0.00000  0.07257
       6     H     0.46956  0.46956  0.00000  0.06088
       7     C     3.08877  3.08877  0.00000 -0.17753
       8     H     0.45184  0.45184  0.00000  0.09631
       9     H     0.45649  0.45649  0.00000  0.08703
      10     C     3.15436  3.15436  0.00000 -0.30872
      11     H     0.44671  0.44671  0.00000  0.10658
      12     H     0.45047  0.45047  0.00000  0.09906
      13     H     0.44693  0.44693  0.00000  0.10613
      14     H     0.45172  0.45172  0.00000  0.09657
      15     H     0.45748  0.45748  0.00000  0.08505

   Total alpha = 21.00000, Total beta = 21.00000, Total charge =  0.00000

*** Psi4 exiting successfully. Buy a developer a beer!
