                              Psi4 1.0.54 Driver

  ==> Input File <==

--------------------------------------------------------------------------
set {
	reference rhf
	basis cc-pvtz
}

set_num_threads( 4 )
memory 2 gb

molecule MOL {
0 1

O	 -2.817697	 1.304178	 0.001046
C	 -2.664672	 0.129869	 0.003507
C	 -3.797908	 -0.860100	 -0.001145
O	 -1.481217	 -0.452708	 0.001092
H	 -4.408836	 -0.679689	 -0.875387
H	 -3.443486	 -1.878443	 -0.002770
H	 -4.412123	 -0.683688	 0.871605
C	 -0.332055	 0.384012	 -0.000250
C	 0.892252	 -0.506059	 -0.000295
H	 -0.360822	 1.020205	 -0.874146
H	 -0.359817	 1.021310	 0.872861
C	 0.534647	 -1.975025	 0.206152
H	 1.567615	 -0.175465	 0.782177
H	 1.418031	 -0.381250	 -0.941382
C	 1.754301	 -2.892391	 0.209275
H	 -0.000485	 -2.089353	 1.145588
H	 -0.150458	 -2.294626	 -0.575167
C	 1.397281	 -4.360547	 0.414365
H	 2.438863	 -2.575100	 0.990784
H	 2.289778	 -2.779128	 -0.729086
H	 0.890388	 -4.511512	 1.361526
H	 2.283934	 -4.983719	 0.411256
H	 0.739876	 -4.717029	 -0.371506

	symmetry c1
}
set optking {
	frozen_dihedral = ("
		13 9 8 10
	")
}

ee,wfn = optimize('scf', return_wfn=True)
oeprop( wfn, 'DIPOLE', 'QUADRUPOLE', 'MULLIKEN_CHARGES')
f=open( 'psi4out.xyz', 'w' )
f.write( "23  " )
f.write( str(ee) + "\n" )
f.write( MOL.save_string_xyz() )
f.close()
--------------------------------------------------------------------------

    Molecular point group: c1
  Charge       = 0
  Multiplicity = 1
  Basis Set: CC-PVTZ
  Basis Set:
  @DF-RHF Final Energy:  -423.12326168483696
    Total Energy =                       -423.1232616848368480
    Molecular point group: c1
  Basis Set: CC-PVTZ
  Basis Set:
  Basis Set: CC-PVTZ
  Basis Set:
  @DF-RHF Final Energy:  -423.12342921076305
    Total Energy =                       -423.1234292107634474
  Basis Set: CC-PVTZ
  Basis Set:
  Basis Set: CC-PVTZ
  Basis Set:
  @DF-RHF Final Energy:  -423.12586900020364
    Total Energy =                       -423.1258690002036928
  Basis Set: CC-PVTZ
  Basis Set:
  Basis Set: CC-PVTZ
  Basis Set:
  @DF-RHF Final Energy:  -423.12583057624136
    Total Energy =                       -423.1258305762410146
  Basis Set: CC-PVTZ
  Basis Set:
  Basis Set: CC-PVTZ
  Basis Set:
  @DF-RHF Final Energy:  -423.12602673204071
    Total Energy =                       -423.1260267320409412
  Basis Set: CC-PVTZ
  Basis Set:
  Basis Set: CC-PVTZ
  Basis Set:
  @DF-RHF Final Energy:  -423.12611352080478
    Total Energy =                       -423.1261135208046653
  Basis Set: CC-PVTZ
  Basis Set:
  Basis Set: CC-PVTZ
  Basis Set:
  @DF-RHF Final Energy:  -423.12611591634658
    Total Energy =                       -423.1261159163466345
  Basis Set: CC-PVTZ
  Basis Set:
  Charge       = 0
  Multiplicity = 1
  Basis Set: CC-PVTZ
  Basis Set:

    Orbital Energies (a.u.)
    -----------------------

    Doubly Occupied:

       1A    -20.595500     2A    -20.529662     3A    -11.366557
       4A    -11.280967     5A    -11.231028     6A    -11.224120
       7A    -11.216447     8A    -11.215404     9A    -11.208995
      10A     -1.471241    11A     -1.364002    12A     -1.089592
      13A     -1.040561    14A     -1.001905    15A     -0.932157
      16A     -0.844691    17A     -0.808358    18A     -0.762437
      19A     -0.693575    20A     -0.690384    21A     -0.669222
      22A     -0.645090    23A     -0.606890    24A     -0.589716
      25A     -0.580816    26A     -0.567148    27A     -0.560412
      28A     -0.529031    29A     -0.526189    30A     -0.517158
      31A     -0.490947    32A     -0.472618    33A     -0.470662
      34A     -0.459073    35A     -0.446052    36A     -0.440593

  @DF-RHF Final Energy:  -423.12611613584789

   => Energetics <=

    Nuclear Repulsion Energy =            461.0751609217118698
    One-Electron Energy =               -1490.1241608906611873
    Two-Electron Energy =                 605.9228838331014231
    DFT Exchange-Correlation Energy =       0.0000000000000000
    Empirical Dispersion Energy =           0.0000000000000000
    PCM Polarization Energy =               0.0000000000000000
    EFP Energy =                            0.0000000000000000
    Total Energy =                       -423.1261161358479512
    Molecular point group: c1
  Basis Set: CC-PVTZ
  Basis Set:

  -Total Gradient:
     Atom            X                  Y                   Z
    ------   -----------------  -----------------  -----------------
       1       -0.000009284373     0.000005325912     0.000002541099
       2        0.000014116033     0.000004567621    -0.000012243503
       3        0.000003068793     0.000002505603     0.000004661221
       4        0.000011182163    -0.000009623826     0.000003005626
       5        0.000000035533     0.000001418466     0.000000585001
       6        0.000001145498     0.000000156240    -0.000000057349
       7        0.000001574844    -0.000000988660     0.000000589421
       8        0.001597497680     0.001999135569     0.002172852301
       9        0.001220269118     0.001512234065    -0.002486147980
      10       -0.001517309490    -0.001887312267    -0.001416990177
      11        0.000002167673     0.000003173689    -0.000010540369
      12       -0.000007434651     0.000001328682    -0.000044353678
      13       -0.001326116039    -0.001630588073     0.001751715474
      14        0.000005884245    -0.000003702199     0.000010193268
      15        0.000001784975    -0.000001015816    -0.000002758771
      16        0.000007398489     0.000007409875     0.000010619089
      17       -0.000008182733    -0.000004151565     0.000004501144
      18        0.000000975605     0.000001059589     0.000004448554
      19        0.000002523814    -0.000003969256     0.000003558250
      20       -0.000001376468     0.000004212837     0.000002150526
      21       -0.000001097527    -0.000002741421     0.000001220267
      22        0.000000326698    -0.000000521211     0.000001435712
      23        0.000000850121     0.000002086149    -0.000000985125

  **** Optimization is complete! (in 8 steps) ****
    Final optimized geometry and variables:
    Molecular point group: c1

    Geometry (in Angstrom), charge = 0, multiplicity = 1:

    O           -1.983539153189     2.476788837726    -0.112183238603
    C           -1.938237115070     1.293293542741    -0.124663168290
    C           -3.158378857843     0.412557458630    -0.155813083017
    O           -0.814703635336     0.603777475581    -0.112399577377
    H           -3.736560585473     0.656994251206    -1.036816878398
    H           -2.900577784309    -0.634504271805    -0.162926021112
    H           -3.766829148251     0.637421694537     0.709885593728
    C            0.406210879544     1.336172652984    -0.082529846005
    C            1.605532119051     0.373516239334    -0.081750039956
    H            0.422210424156     1.975642330424    -0.952123131135
    H            0.401854938001     1.965202291769     0.794528358194
    C            1.281402859505    -1.106179989970     0.127440758361
    H            2.276919609107     0.679713872584     0.713182981200
    H            2.151100568157     0.484034320220    -1.011814805766
    C            2.540142516666    -1.968285900317     0.169654757954
    H            0.727328586818    -1.232743420570     1.051963603467
    H            0.631233555040    -1.456721160621    -0.665733786529
    C            2.239191336839    -3.449889515194     0.369730600065
    H            3.189246001367    -1.622448624231     0.969632696475
    H            3.098862302637    -1.836717531763    -0.753143535571
    H            1.710263767408    -3.619257710787     1.301717562875
    H            3.150756306978    -4.035742487205     0.396024351165
    H            1.621235424378    -3.835562749725    -0.434233920341

  Mulliken Charges: (a.u.)
   Center  Symbol    Alpha    Beta     Spin     Total
       1     O     4.20362  4.20362  0.00000 -0.40725
       2     C     2.81649  2.81649  0.00000  0.36703
       3     C     3.14022  3.14022  0.00000 -0.28044
       4     O     4.14199  4.14199  0.00000 -0.28399
       5     H     0.44185  0.44185  0.00000  0.11630
       6     H     0.44204  0.44204  0.00000  0.11592
       7     H     0.44182  0.44182  0.00000  0.11636
       8     C     2.98058  2.98058  0.00000  0.03884
       9     C     3.11137  3.11137  0.00000 -0.22273
      10     H     0.44948  0.44948  0.00000  0.10103
      11     H     0.45039  0.45039  0.00000  0.09923
      12     C     3.07457  3.07457  0.00000 -0.14914
      13     H     0.44998  0.44998  0.00000  0.10003
      14     H     0.44859  0.44859  0.00000  0.10283
      15     C     3.08689  3.08689  0.00000 -0.17377
      16     H     0.45201  0.45201  0.00000  0.09598
      17     H     0.45017  0.45017  0.00000  0.09966
      18     C     3.15005  3.15005  0.00000 -0.30010
      19     H     0.45499  0.45499  0.00000  0.09003
      20     H     0.45483  0.45483  0.00000  0.09034
      21     H     0.45497  0.45497  0.00000  0.09005
      22     H     0.44809  0.44809  0.00000  0.10383
      23     H     0.45501  0.45501  0.00000  0.08998

   Total alpha = 36.00000, Total beta = 36.00000, Total charge = -0.00000

*** Psi4 exiting successfully. Buy a developer a beer!
