  ==> Input File <==

--------------------------------------------------------------------------
set {
	reference rhf
	basis 6-31G*
}

set_num_threads( 1 )
memory 2 gb

molecule MOL {
0 1

H	 -1.947394	 -0.152963	 -2.785722
N	 -1.008665	 -0.300612	 -2.469554
C	 -0.975566	 -1.272973	 -1.391351
H	 -0.663710	 0.578912	 -2.137057
C	 0.445952	 -1.453888	 -0.901766
H	 -1.601252	 -1.004702	 -0.538973
H	 -1.333736	 -2.224823	 -1.771453
O	 0.874168	 -0.245412	 -0.342030
H	 0.489420	 -2.247826	 -0.156507
H	 1.087226	 -1.731817	 -1.735287
C	 2.202317	 -0.244239	 0.074611
H	 2.711377	 -1.041390	 -0.449894
H	 2.692099	 0.699270	 -0.159667
H	 2.283185	 -0.418429	 1.145558

	symmetry c1
}
set optking {
	frozen_dihedral = ("
		8 5 3 6,
		6 3 2 4,
		11 8 5 3
	")
}

ee = energy('scf')
oeprop('DIPOLE', 'QUADRUPOLE', 'MULLIKEN_CHARGES')
f=open( 'psi4out.xyz', 'w' )
f.write( "14  " )
f.write( str(ee) + "\n" )
f.write( MOL.save_string_xyz() )
f.close()
--------------------------------------------------------------------------

    Molecular point group: c1

    Geometry (in Angstrom), charge = 0, multiplicity = 1:

       Center              X                  Y                   Z               Mass
    ------------   -----------------  -----------------  -----------------  -----------------
           H         -2.262793899566     0.531623653921    -1.782232418196     1.007825032070
           N         -1.324064899566     0.383974653921    -1.466064418196    14.003074004780
           C         -1.290965899566    -0.588386346079    -0.387861418196    12.000000000000
           H         -0.979109899566     1.263498653921    -1.133567418196     1.007825032070
           C          0.130552100434    -0.769301346079     0.101723581804    12.000000000000
           H         -1.916651899566    -0.320115346079     0.464516581804     1.007825032070
           H         -1.649135899566    -1.540236346079    -0.767963418196     1.007825032070
           O          0.558768100434     0.439174653921     0.661459581804    15.994914619560
           H          0.174020100434    -1.563239346079     0.846982581804     1.007825032070
           H          0.771826100434    -1.047230346079    -0.731797418196     1.007825032070
           C          1.886917100434     0.440347653921     1.078100581804    12.000000000000
           H          2.395977100434    -0.356803346079     0.553595581804     1.007825032070
           H          2.376699100434     1.383856653921     0.843822581804     1.007825032070
           H          1.967785100434     0.266157653921     2.149047581804     1.007825032070

  Charge       = 0
  Multiplicity = 1
  Basis Set: 6-31G*
  Basis Set:

    Orbital Energies (a.u.)
    -----------------------

    Doubly Occupied:

       1A    -20.554898     2A    -15.528401     3A    -11.266598
       4A    -11.265777     5A    -11.240777     6A     -1.380663
       7A     -1.173569     8A     -0.998259     9A     -0.907290
      10A     -0.816922    11A     -0.682889    12A     -0.673258
      13A     -0.643464    14A     -0.610707    15A     -0.607638
      16A     -0.538517    17A     -0.533164    18A     -0.496509
      19A     -0.472755    20A     -0.414121    21A     -0.380096

  @DF-RHF Final Energy:  -248.12127706043117

   => Energetics <=

    Nuclear Repulsion Energy =            194.7553045929167297
    One-Electron Energy =                -723.3805687742651571
    Two-Electron Energy =                 280.5039871209172020
    DFT Exchange-Correlation Energy =       0.0000000000000000
    Empirical Dispersion Energy =           0.0000000000000000
    PCM Polarization Energy =               0.0000000000000000
    EFP Energy =                            0.0000000000000000
    Total Energy =                       -248.1212770604312823

  Mulliken Charges: (a.u.)
   Center  Symbol    Alpha    Beta     Spin     Total
       1     H     0.33281  0.33281  0.00000  0.33437
       2     N     3.92538  3.92538  0.00000 -0.85076
       3     C     3.06884  3.06884  0.00000 -0.13768
       4     H     0.32356  0.32356  0.00000  0.35287
       5     C     2.99210  2.99210  0.00000  0.01579
       6     H     0.42640  0.42640  0.00000  0.14719
       7     H     0.42049  0.42049  0.00000  0.15901
       8     O     4.31187  4.31187  0.00000 -0.62373
       9     H     0.43077  0.43077  0.00000  0.13846
      10     H     0.42128  0.42128  0.00000  0.15744
      11     C     3.07503  3.07503  0.00000 -0.15006
      12     H     0.42943  0.42943  0.00000  0.14113
      13     H     0.41686  0.41686  0.00000  0.16628
      14     H     0.42516  0.42516  0.00000  0.14968

   Total alpha = 21.00000, Total beta = 21.00000, Total charge = -0.00000
