                              Psi4 1.0.54 Driver

  ==> Input File <==

--------------------------------------------------------------------------
set {
	reference rhf
	basis cc-pvtz
}

set_num_threads( 4 )
memory 2 gb

molecule MOL {
0 1

H	 -0.490027	 -1.643966	 0.000679
N	 -0.625939	 -0.663860	 -0.000707
C	 -1.978640	 -0.158595	 0.001017
C	 0.468489	 0.129114	 -0.002160
H	 -2.519062	 -0.493466	 -0.876362
H	 -1.938895	 0.917271	 -0.004137
H	 -2.514271	 -0.485068	 0.884506
C	 1.785710	 -0.615024	 0.000603
O	 0.413280	 1.323275	 0.000532
H	 1.866989	 -1.243241	 -0.878792
H	 2.591501	 0.100332	 0.006422
H	 1.860353	 -1.250291	 0.875522

	symmetry c1
}
ee,wfn = energy('scf', return_wfn=True)
oeprop( wfn, 'DIPOLE', 'QUADRUPOLE', 'MULLIKEN_CHARGES')
oeprop( wfn, 'GRID_ESP')
f=open( 'psi4out.xyz', 'w' )
f.write( "12  " )
f.write( str(ee) + "\n" )
f.write( MOL.save_string_xyz() )
f.close()
--------------------------------------------------------------------------

    Molecular point group: c1

    Geometry (in Angstrom), charge = 0, multiplicity = 1:

       Center              X                  Y                   Z               Mass
    ------------   -----------------  -----------------  -----------------  -----------------
           H         -0.490022303927    -1.644034862501     0.000678610503     1.007825032070
           N         -0.625934303927    -0.663928862501    -0.000707389497    14.003074004780
           C         -1.978635303927    -0.158663862501     0.001016610503    12.000000000000
           C          0.468493696073     0.129045137499    -0.002160389497    12.000000000000
           H         -2.519057303927    -0.493534862501    -0.876362389497     1.007825032070
           H         -1.938890303927     0.917202137499    -0.004137389497     1.007825032070
           H         -2.514266303927    -0.485136862501     0.884505610503     1.007825032070
           C          1.785714696073    -0.615092862501     0.000602610503    12.000000000000
           O          0.413284696073     1.323206137499     0.000531610503    15.994914619560
           H          1.866993696073    -1.243309862501    -0.878792389497     1.007825032070
           H          2.591505696072     0.100263137499     0.006421610503     1.007825032070
           H          1.860357696073    -1.250359862501     0.875521610503     1.007825032070

  Charge       = 0
  Multiplicity = 1
  Basis Set: CC-PVTZ
  Basis Set:

    Orbital Energies (a.u.)
    -----------------------

    Doubly Occupied:

       1A    -20.506585     2A    -15.574949     3A    -11.336895
       4A    -11.252377     5A    -11.228002     6A     -1.388383
       7A     -1.231111     8A     -1.016759     9A     -0.932913
      10A     -0.788289    11A     -0.690993    12A     -0.651707
      13A     -0.635381    14A     -0.586920    15A     -0.582935
      16A     -0.555543    17A     -0.544881    18A     -0.511397
      19A     -0.417209    20A     -0.389335

  @DF-RHF Final Energy:  -247.10098503819890

   => Energetics <=

    Nuclear Repulsion Energy =            181.6428207424377490
    One-Electron Energy =                -695.8422847799180317
    Two-Electron Energy =                 267.0984789992814967
    DFT Exchange-Correlation Energy =       0.0000000000000000
    Empirical Dispersion Energy =           0.0000000000000000
    PCM Polarization Energy =               0.0000000000000000
    EFP Energy =                            0.0000000000000000
    Total Energy =                       -247.1009850381988144

  Mulliken Charges: (a.u.)
   Center  Symbol    Alpha    Beta     Spin     Total
       1     H     0.41026  0.41026  0.00000  0.17948
       2     N     3.62193  3.62193  0.00000 -0.24387
       3     C     3.08603  3.08603  0.00000 -0.17206
       4     C     2.83651  2.83651  0.00000  0.32697
       5     H     0.45567  0.45567  0.00000  0.08867
       6     H     0.43100  0.43100  0.00000  0.13800
       7     H     0.45570  0.45570  0.00000  0.08860
       8     C     3.15351  3.15351  0.00000 -0.30701
       9     O     4.21571  4.21571  0.00000 -0.43142
      10     H     0.45001  0.45001  0.00000  0.09999
      11     H     0.43351  0.43351  0.00000  0.13298
      12     H     0.45017  0.45017  0.00000  0.09966

   Total alpha = 20.00000, Total beta = 20.00000, Total charge = -0.00000

*** Psi4 exiting successfully. Buy a developer a beer!
