                              Psi4 1.0.54 Driver

  ==> Input File <==

--------------------------------------------------------------------------
set {
	reference rhf
	basis cc-pvtz
}

set_num_threads( 4 )
memory 2 gb

molecule MOL {
0 1

H	 -2.246501	 -0.975351	 -1.009207
N	 -1.530434	 -0.280714	 -1.026526
C	 -0.561396	 -0.500007	 0.035200
H	 -1.977688	 0.606220	 -0.923337
C	 0.575129	 0.507849	 -0.048832
H	 -0.159713	 -1.500931	 -0.083210
H	 -1.004635	 -0.456762	 1.031234
C	 1.951750	 -0.141983	 0.035101
H	 0.478254	 1.061643	 -0.975981
H	 0.467676	 1.231891	 0.755499
H	 2.101550	 -0.848142	 -0.774949
H	 2.738260	 0.600794	 -0.026526
H	 2.078939	 -0.679792	 0.968824

	symmetry c1
}
set optking {
	frozen_dihedral = ("
		6 3 5 9
	")
}

ee,wfn = optimize('scf', return_wfn=True)
oeprop( wfn, 'DIPOLE', 'QUADRUPOLE', 'MULLIKEN_CHARGES')
f=open( 'psi4out.xyz', 'w' )
f.write( "13  " )
f.write( str(ee) + "\n" )
f.write( MOL.save_string_xyz() )
f.close()
--------------------------------------------------------------------------

    Molecular point group: c1
  Charge       = 0
  Multiplicity = 1
  Basis Set: CC-PVTZ
  Basis Set:
  @DF-RHF Final Energy:  -173.34681122484804
    Total Energy =                       -173.3468112248478690
    Molecular point group: c1
  Basis Set: CC-PVTZ
  Basis Set:
  Basis Set: CC-PVTZ
  Basis Set:
  @DF-RHF Final Energy:  -173.34709385330476
    Total Energy =                       -173.3470938533046706
  Basis Set: CC-PVTZ
  Basis Set:
  Basis Set: CC-PVTZ
  Basis Set:
  @DF-RHF Final Energy:  -173.34717528690138
    Total Energy =                       -173.3471752869013471
  Basis Set: CC-PVTZ
  Basis Set:
  Basis Set: CC-PVTZ
  Basis Set:
  @DF-RHF Final Energy:  -173.34717664452543
    Total Energy =                       -173.3471766445254048
  Basis Set: CC-PVTZ
  Basis Set:
  Charge       = 0
  Multiplicity = 1
  Basis Set: CC-PVTZ
  Basis Set:

    Orbital Energies (a.u.)
    -----------------------

    Doubly Occupied:

       1A    -15.527592     2A    -11.238309     3A    -11.210267
       4A    -11.206369     5A     -1.177869     6A     -1.033959
       7A     -0.898745     8A     -0.801426     9A     -0.653632
      10A     -0.641131    11A     -0.596835    12A     -0.567424
      13A     -0.533998    14A     -0.489272    15A     -0.475251
      16A     -0.468539    17A     -0.382886

  @DF-RHF Final Energy:  -173.34717695036124

   => Energetics <=

    Nuclear Repulsion Energy =            131.8672810872156447
    One-Electron Energy =                -494.6219081779212843
    Two-Electron Energy =                 189.4074501403444231
    DFT Exchange-Correlation Energy =       0.0000000000000000
    Empirical Dispersion Energy =           0.0000000000000000
    PCM Polarization Energy =               0.0000000000000000
    EFP Energy =                            0.0000000000000000
    Total Energy =                       -173.3471769503612165
    Molecular point group: c1
  Basis Set: CC-PVTZ
  Basis Set:

  -Total Gradient:
     Atom            X                  Y                   Z
    ------   -----------------  -----------------  -----------------
       1       -0.000036908790    -0.000023517509    -0.000016126084
       2        0.000041882190    -0.000026644587     0.000013035863
       3       -0.000851340590     0.000764504323    -0.003479915171
       4        0.000006103033     0.000015698024     0.000019646434
       5        0.002268142582    -0.002652555477    -0.001033109446
       6        0.000387317008    -0.000192574312     0.003061025888
       7       -0.000018943707     0.000010253246     0.000007513963
       8       -0.000007460918     0.000001337832    -0.000000888274
       9       -0.001763166322     0.002104162837     0.001416017815
      10       -0.000006710076    -0.000015864814     0.000005320058
      11       -0.000010183155     0.000010894476     0.000005855549
      12        0.000000194359     0.000005098541     0.000003893742
      13       -0.000008925613    -0.000000792580    -0.000002270336

  **** Optimization is complete! (in 5 steps) ****
    Final optimized geometry and variables:
    Molecular point group: c1

    Geometry (in Angstrom), charge = 0, multiplicity = 1:

    H           -2.370276543615    -0.841317824841    -0.707949014702
    N           -1.631147717022    -0.172599233738    -0.765122468271
    C           -0.644289065183    -0.398704919030     0.280331024570
    H           -2.047482254752     0.730450025960    -0.668652131391
    C            0.507995179640     0.614954841015     0.200679917631
    H           -0.254406284964    -1.403735239195     0.166443276532
    H           -1.079936937658    -0.365219979407     1.279128152584
    C            1.889313621474    -0.021462144014     0.301237966570
    H            0.416738754005     1.166573802070    -0.727905496757
    H            0.398595444133     1.349406246576     0.993230966616
    H            2.058661764364    -0.710679251058    -0.518708701625
    H            2.670529428629     0.729430212143     0.273340648741
    H            1.998408674699    -0.576058484618     1.227848127589

  Mulliken Charges: (a.u.)
   Center  Symbol    Alpha    Beta     Spin     Total
       1     H     0.43043  0.43043  0.00000  0.13915
       2     N     3.68616  3.68616  0.00000 -0.37232
       3     C     3.02558  3.02558  0.00000 -0.05116
       4     H     0.43091  0.43091  0.00000  0.13819
       5     C     3.08373  3.08373  0.00000 -0.16747
       6     H     0.45968  0.45968  0.00000  0.08064
       7     H     0.46765  0.46765  0.00000  0.06470
       8     C     3.14923  3.14923  0.00000 -0.29847
       9     H     0.45169  0.45169  0.00000  0.09661
      10     H     0.45593  0.45593  0.00000  0.08815
      11     H     0.45239  0.45239  0.00000  0.09522
      12     H     0.45037  0.45037  0.00000  0.09925
      13     H     0.45625  0.45625  0.00000  0.08751

   Total alpha = 17.00000, Total beta = 17.00000, Total charge = -0.00000

*** Psi4 exiting successfully. Buy a developer a beer!
