  ==> Input File <==

--------------------------------------------------------------------------
set {
	reference rhf
	basis 6-31G*
}

set_num_threads( 4 )
memory 2 gb

molecule MOL {
0 1

H	 3.541045	 -0.104052	 -0.953336
N	 3.092854	 -0.246221	 -0.068770
C	 1.865559	 0.531981	 0.018834
H	 3.744022	 0.044663	 0.635642
C	 0.645745	 -0.382037	 -0.029944
H	 1.841966	 1.207024	 -0.831236
H	 1.815756	 1.155410	 0.915079
C	 -0.679275	 0.379305	 0.025956
H	 0.698998	 -0.976915	 -0.937203
H	 0.693479	 -1.083846	 0.802235
C	 -1.903357	 -0.536963	 -0.023547
H	 -0.726309	 1.082987	 -0.803784
H	 -0.717680	 0.977832	 0.934877
C	 -3.225172	 0.228290	 0.028445
H	 -1.867824	 -1.134999	 -0.931459
H	 -1.860449	 -1.239604	 0.805977
H	 -3.313397	 0.915643	 -0.808262
H	 -4.073500	 -0.448134	 -0.008893
H	 -3.306061	 0.809945	 0.942516

	symmetry c1
}
set optking {
	frozen_dihedral = ("
		1 2 3 6
	")
}

ee = optimize('scf')
oeprop('DIPOLE', 'QUADRUPOLE', 'MULLIKEN_CHARGES')
f=open( 'psi4out.xyz', 'w' )
f.write( "19  " )
f.write( str(ee) + "\n" )
f.write( MOL.save_string_xyz() )
f.close()
--------------------------------------------------------------------------

    Molecular point group: c1
  Charge       = 0
  Multiplicity = 1
  Basis Set: 6-31G*
  Basis Set:
  @DF-RHF Final Energy:  -251.34756343741145
    Total Energy =                       -251.3475634374112815
    Molecular point group: c1
  Basis Set: 6-31G*
  Basis Set:
  Basis Set: 6-31G*
  Basis Set:
  @DF-RHF Final Energy:  -251.34840577601349
    Total Energy =                       -251.3484057760135784
  Basis Set: 6-31G*
  Basis Set:
  Basis Set: 6-31G*
  Basis Set:
  @DF-RHF Final Energy:  -251.34863071892374
    Total Energy =                       -251.3486307189238005
  Basis Set: 6-31G*
  Basis Set:
  Basis Set: 6-31G*
  Basis Set:
  @DF-RHF Final Energy:  -251.34863557124993
    Total Energy =                       -251.3486355712498153
  Basis Set: 6-31G*
  Basis Set:
  Charge       = 0
  Multiplicity = 1
  Basis Set: 6-31G*
  Basis Set:

    Orbital Energies (a.u.)
    -----------------------

    Doubly Occupied:

       1A    -15.531308     2A    -11.240649     3A    -11.211638
       4A    -11.209588     5A    -11.205864     6A    -11.202600
       7A     -1.173127     8A     -1.070278     9A     -0.996576
      10A     -0.899559    11A     -0.809857    12A     -0.784791
      13A     -0.674935    14A     -0.634121    15A     -0.613606
      16A     -0.577156    17A     -0.568831    18A     -0.553265
      19A     -0.517323    20A     -0.504827    21A     -0.472262
      22A     -0.462156    23A     -0.456798    24A     -0.455261
      25A     -0.377078

  @DF-RHF Final Energy:  -251.34863577836413

   => Energetics <=

    Nuclear Repulsion Energy =            245.1398675952459882
    One-Electron Energy =                -824.5701007986829154
    Two-Electron Energy =                 328.0815974250728573
    DFT Exchange-Correlation Energy =       0.0000000000000000
    Empirical Dispersion Energy =           0.0000000000000000
    PCM Polarization Energy =               0.0000000000000000
    EFP Energy =                            0.0000000000000000
    Total Energy =                       -251.3486357783640983
    Molecular point group: c1
  Basis Set: 6-31G*
  Basis Set:

  -Total Gradient:
     Atom            X                  Y                   Z
    ------   -----------------  -----------------  -----------------
       1        0.000731627669     0.001075408465     0.000580564677
       2       -0.000997209714    -0.001596173822    -0.000920335513
       3        0.000891529055     0.001413021861     0.001166709030
       4       -0.000011848525     0.000006498783    -0.000018729256
       5       -0.000040130371    -0.000007879630    -0.000013814371
       6       -0.000591122410    -0.000917865700    -0.000715737908
       7        0.000033155680     0.000040968083    -0.000016338410
       8       -0.000012176838    -0.000009814877    -0.000032770644
       9       -0.000040380433    -0.000001127189    -0.000004179135
      10        0.000024406372    -0.000006723196    -0.000017622180
      11       -0.000000658789    -0.000004034016    -0.000007806908
      12       -0.000027518943     0.000010361949    -0.000007428098
      13        0.000028503213    -0.000007274023    -0.000003267893
      14        0.000005719735     0.000004483774     0.000006178087
      15        0.000002135555    -0.000002829375     0.000000907713
      16        0.000001120072     0.000002549464     0.000002152228
      17        0.000000593716     0.000000196718    -0.000001226414
      18        0.000005103893    -0.000002204271     0.000000947551
      19       -0.000002848933     0.000002437000     0.000001797444

  **** Optimization is complete! (in 5 steps) ****
    Final optimized geometry and variables:
    Molecular point group: c1

    Geometry (in Angstrom), charge = 0, multiplicity = 1:

    H            3.585645395464    -0.099769034385    -0.910092740591
    N            3.104356256713    -0.245853964477    -0.045879853322
    C            1.862175755430     0.525884991828     0.011616802884
    H            3.734212229035     0.024450549866     0.681967095135
    C            0.640061343963    -0.388694203189    -0.027828209801
    H            1.801498274464     1.231793250820    -0.814913595367
    H            1.838840501193     1.117024654753     0.923040970193
    C           -0.684569153621     0.373083112193     0.028292270668
    H            0.684230839438    -0.988470172014    -0.934163896004
    H            0.705833279067    -1.087129230019     0.802321998162
    C           -1.910042079173    -0.542069432465    -0.007194195660
    H           -0.738371440159     1.073001115389    -0.804873015433
    H           -0.717707305287     0.977888117915     0.933876188207
    C           -3.231237122847     0.223907001263     0.049908999601
    H           -1.881450810468    -1.145556894840    -0.911837794317
    H           -1.861085922634    -1.239961790404     0.825762891410
    H           -3.325643685025     0.906353912911    -0.790231297481
    H           -4.080284939679    -0.452280514856     0.023165126917
    H           -3.305059764517     0.811198775126     0.961006193665

  Mulliken Charges: (a.u.)
   Center  Symbol    Alpha    Beta     Spin     Total
       1     H     0.33198  0.33198  0.00000  0.33604
       2     N     3.92613  3.92613  0.00000 -0.85225
       3     C     3.06822  3.06822  0.00000 -0.13644
       4     H     0.33145  0.33145  0.00000  0.33711
       5     C     3.13929  3.13929  0.00000 -0.27859
       6     H     0.42771  0.42771  0.00000  0.14459
       7     H     0.42477  0.42477  0.00000  0.15047
       8     C     3.15706  3.15706  0.00000 -0.31412
       9     H     0.42267  0.42267  0.00000  0.15466
      10     H     0.41959  0.41959  0.00000  0.16081
      11     C     3.15014  3.15014  0.00000 -0.30027
      12     H     0.42606  0.42606  0.00000  0.14789
      13     H     0.42591  0.42591  0.00000  0.14819
      14     C     3.23908  3.23908  0.00000 -0.47815
      15     H     0.42280  0.42280  0.00000  0.15439
      16     H     0.42250  0.42250  0.00000  0.15500
      17     H     0.42251  0.42251  0.00000  0.15497
      18     H     0.41974  0.41974  0.00000  0.16053
      19     H     0.42242  0.42242  0.00000  0.15517

   Total alpha = 25.00000, Total beta = 25.00000, Total charge =  0.00000
