  ==> Input File <==

--------------------------------------------------------------------------
set {
	reference rhf
	basis 6-31G*
}

set_num_threads( 4 )
memory 2 gb

molecule MOL {
0 1

H	 -3.728581	 0.488234	 1.556436
O	 -3.018325	 -0.075453	 1.284962
C	 -2.306886	 0.532354	 0.237577
C	 -1.177863	 -0.397191	 -0.171080
H	 -2.961823	 0.719700	 -0.612285
H	 -1.902667	 1.492480	 0.555548
C	 0.198102	 0.111031	 0.262842
H	 -1.208843	 -0.518759	 -1.250427
H	 -1.368741	 -1.376554	 0.258909
C	 1.331804	 -0.827780	 -0.158768
H	 0.361943	 1.100838	 -0.156218
H	 0.217265	 0.229072	 1.345532
C	 2.723619	 -0.410569	 0.329459
H	 1.342964	 -0.912588	 -1.244120
H	 1.116806	 -1.824343	 0.220779
C	 3.243875	 0.895854	 -0.272975
H	 3.424222	 -1.207124	 0.091250
H	 2.714788	 -0.329854	 1.414619
H	 3.251977	 0.848779	 -1.358681
H	 2.637085	 1.747371	 0.016682
H	 4.259473	 1.094070	 0.055697

	symmetry c1
}
set optking {
	frozen_dihedral = ("
		2 3 4 8
	")
}

ee = optimize('scf')
oeprop('DIPOLE', 'QUADRUPOLE', 'MULLIKEN_CHARGES')
f=open( 'psi4out.xyz', 'w' )
f.write( "21  " )
f.write( str(ee) + "\n" )
f.write( MOL.save_string_xyz() )
f.close()
--------------------------------------------------------------------------

    Molecular point group: c1
  Charge       = 0
  Multiplicity = 1
  Basis Set: 6-31G*
  Basis Set:
  @DF-RHF Final Energy:  -310.20719835815117
    Total Energy =                       -310.2071983581511176
    Molecular point group: c1
  Basis Set: 6-31G*
  Basis Set:
  Basis Set: 6-31G*
  Basis Set:
  @DF-RHF Final Energy:  -310.20759396314895
    Total Energy =                       -310.2075939631487813
  Basis Set: 6-31G*
  Basis Set:
  Basis Set: 6-31G*
  Basis Set:
  @DF-RHF Final Energy:  -310.20773200534586
    Total Energy =                       -310.2077320053462017
  Basis Set: 6-31G*
  Basis Set:
  Basis Set: 6-31G*
  Basis Set:
  @DF-RHF Final Energy:  -310.20771722739721
    Total Energy =                       -310.2077172273968699
  Basis Set: 6-31G*
  Basis Set:
  Basis Set: 6-31G*
  Basis Set:
  @DF-RHF Final Energy:  -310.20773444929767
    Total Energy =                       -310.2077344492979591
  Basis Set: 6-31G*
  Basis Set:
  Basis Set: 6-31G*
  Basis Set:
  @DF-RHF Final Energy:  -310.20773579125472
    Total Energy =                       -310.2077357912544358
  Basis Set: 6-31G*
  Basis Set:
  Charge       = 0
  Multiplicity = 1
  Basis Set: 6-31G*
  Basis Set:

    Orbital Energies (a.u.)
    -----------------------

    Doubly Occupied:

       1A    -20.551386     2A    -11.267380     3A    -11.213433
       4A    -11.212297     5A    -11.211247     6A    -11.210526
       7A    -11.206960     8A     -1.357435     9A     -1.083320
      10A     -1.030075    11A     -0.952843    12A     -0.875761
      13A     -0.806315    14A     -0.776864    15A     -0.701556
      16A     -0.637808    17A     -0.631619    18A     -0.601620
      19A     -0.584127    20A     -0.569465    21A     -0.534569
      22A     -0.523396    23A     -0.506834    24A     -0.484865
      25A     -0.481453    26A     -0.459384    27A     -0.453944
      28A     -0.447564    29A     -0.423686

  @DF-RHF Final Energy:  -310.20773642830216

   => Energetics <=

    Nuclear Repulsion Energy =            313.7615419756895108
    One-Electron Energy =               -1042.3430926827409166
    Two-Electron Energy =                 418.3738142787491370
    DFT Exchange-Correlation Energy =       0.0000000000000000
    Empirical Dispersion Energy =           0.0000000000000000
    PCM Polarization Energy =               0.0000000000000000
    EFP Energy =                            0.0000000000000000
    Total Energy =                       -310.2077364283022689
    Molecular point group: c1
  Basis Set: 6-31G*
  Basis Set:

  -Total Gradient:
     Atom            X                  Y                   Z
    ------   -----------------  -----------------  -----------------
       1        0.000046376207     0.000007453852    -0.000056231182
       2       -0.001525654054    -0.001211157846    -0.001651264393
       3        0.001401092410     0.000883838096     0.002337238086
       4        0.001905782548     0.002987581831    -0.000962238730
       5        0.000010048012     0.000009224229    -0.000009671965
       6        0.000018909384     0.000005976943    -0.000030464378
       7        0.000038556611    -0.000025646273     0.000038570089
       8       -0.001909497118    -0.002689505447     0.000344433531
       9        0.000012926663     0.000030419177     0.000002997065
      10        0.000032536577     0.000006861969    -0.000009548354
      11        0.000010300761    -0.000015592037    -0.000007251083
      12       -0.000008261841     0.000015395472     0.000011741838
      13       -0.000015667878     0.000005297692     0.000000294778
      14       -0.000001300216    -0.000002611656    -0.000007154878
      15        0.000009732893    -0.000001232006     0.000009520357
      16       -0.000000200255    -0.000000673215    -0.000006916125
      17       -0.000014247814    -0.000007673712    -0.000002865500
      18       -0.000006637756     0.000000989363     0.000001075063
      19        0.000001148692     0.000003509802    -0.000004787671
      20       -0.000006726617    -0.000001663145     0.000002345569
      21        0.000000782792    -0.000000793091     0.000000177882

  **** Optimization is complete! (in 7 steps) ****
    Final optimized geometry and variables:
    Molecular point group: c1

    Geometry (in Angstrom), charge = 0, multiplicity = 1:

    H           -3.783529865808     0.457021818373     1.381603183715
    O           -3.089513711108    -0.103278566423     1.064137738979
    C           -2.414463310548     0.537986377622     0.008715924729
    C           -1.253964157859    -0.355650410002    -0.441527668868
    H           -3.102333207080     0.710372102925    -0.816222052194
    H           -2.045532804756     1.510624219152     0.328819546340
    C            0.122032536018     0.139686712137     0.006502646914
    H           -1.278732688607    -0.480708716696    -1.521052609458
    H           -1.438701248365    -1.341461705131    -0.026811454244
    C            1.251857961979    -0.813437549304    -0.389425312114
    H            0.301067696639     1.125315501063    -0.416453044066
    H            0.115784239694     0.263874568067     1.087999605094
    C            2.642022029993    -0.401193734638     0.108049200403
    H            1.275092760995    -0.914685049870    -1.473686795479
    H            1.024214199210    -1.802461756991     0.002365057712
    C            3.182260326886     0.889441286283    -0.510690694098
    H            3.337756999820    -1.208377251180    -0.107706215795
    H            2.620563589759    -0.301348586032     1.191310378157
    H            3.203520651877     0.823118943605    -1.595294113704
    H            2.580004555146     1.751495070610    -0.243694616862
    H            4.195576107877     1.084039350287    -0.172821862766

  Mulliken Charges: (a.u.)
   Center  Symbol    Alpha    Beta     Spin     Total
       1     H     0.28197  0.28197  0.00000  0.43607
       2     O     4.37103  4.37103  0.00000 -0.74206
       3     C     2.99645  2.99645  0.00000  0.00710
       4     C     3.16504  3.16504  0.00000 -0.33007
       5     H     0.43002  0.43002  0.00000  0.13996
       6     H     0.43018  0.43018  0.00000  0.13964
       7     C     3.15913  3.15913  0.00000 -0.31827
       8     H     0.42140  0.42140  0.00000  0.15721
       9     H     0.40443  0.40443  0.00000  0.19115
      10     C     3.15340  3.15340  0.00000 -0.30679
      11     H     0.42349  0.42349  0.00000  0.15302
      12     H     0.41821  0.41821  0.00000  0.16358
      13     C     3.15232  3.15232  0.00000 -0.30465
      14     H     0.42497  0.42497  0.00000  0.15005
      15     H     0.42035  0.42035  0.00000  0.15929
      16     C     3.24103  3.24103  0.00000 -0.48206
      17     H     0.42113  0.42113  0.00000  0.15774
      18     H     0.42275  0.42275  0.00000  0.15450
      19     H     0.42266  0.42266  0.00000  0.15468
      20     H     0.42059  0.42059  0.00000  0.15881
      21     H     0.41945  0.41945  0.00000  0.16110

   Total alpha = 29.00000, Total beta = 29.00000, Total charge =  0.00000
