                              Psi4 1.0.54 Driver

  ==> Input File <==

--------------------------------------------------------------------------
set {
	reference rhf
	basis cc-pvtz
}

set_num_threads( 4 )
memory 2 gb

molecule MOL {
0 1

H	 3.083659	 -1.378387	 0.000000
O	 2.179005	 -1.633391	 0.000000
C	 1.366950	 -0.558201	 0.000000
C	 1.637224	 0.573977	 -0.753529
C	 0.233232	 -0.609222	 0.784921
H	 2.520844	 0.612024	 -1.364427
C	 0.774650	 1.650935	 -0.720597
H	 0.021709	 -1.482198	 1.368029
C	 -0.625850	 0.474572	 0.812058
H	 0.994015	 2.521537	 -1.307755
C	 -0.361620	 1.607893	 0.061998
C	 -1.850467	 0.432282	 1.653427
H	 -1.034220	 2.443796	 0.089631
O	 -2.171572	 -0.482623	 2.331114
H	 -2.466867	 1.335451	 1.609414

	symmetry c1
}
set optking {
	frozen_dihedral = ("
		4 3 2 1
	")
}

ee,wfn = optimize('scf', return_wfn=True)
oeprop( wfn, 'DIPOLE', 'QUADRUPOLE', 'MULLIKEN_CHARGES')
f=open( 'psi4out.xyz', 'w' )
f.write( "15  " )
f.write( str(ee) + "\n" )
f.write( MOL.save_string_xyz() )
f.close()
--------------------------------------------------------------------------

    Molecular point group: c1
  Charge       = 0
  Multiplicity = 1
  Basis Set: CC-PVTZ
  Basis Set:
  @DF-RHF Final Energy:  -418.43704972763533
    Total Energy =                       -418.4370497276355536
    Molecular point group: c1
  Basis Set: CC-PVTZ
  Basis Set:
  Basis Set: CC-PVTZ
  Basis Set:
  @DF-RHF Final Energy:  -418.43719503199776
    Total Energy =                       -418.4371950319980442
  Basis Set: CC-PVTZ
  Basis Set:
  Basis Set: CC-PVTZ
  Basis Set:
  @DF-RHF Final Energy:  -418.43725869498718
    Total Energy =                       -418.4372586949873494
  Basis Set: CC-PVTZ
  Basis Set:
  Basis Set: CC-PVTZ
  Basis Set:
  @DF-RHF Final Energy:  -418.43730858759778
    Total Energy =                       -418.4373085875977267
  Basis Set: CC-PVTZ
  Basis Set:
  Basis Set: CC-PVTZ
  Basis Set:
  @DF-RHF Final Energy:  -418.43731358307576
    Total Energy =                       -418.4373135830758201
  Basis Set: CC-PVTZ
  Basis Set:
  Charge       = 0
  Multiplicity = 1
  Basis Set: CC-PVTZ
  Basis Set:

    Orbital Energies (a.u.)
    -----------------------

    Doubly Occupied:

       1A    -20.590123     2A    -20.554449     3A    -11.327793
       4A    -11.308264     5A    -11.250650     6A    -11.250484
       7A    -11.247953     8A    -11.245950     9A    -11.238720
      10A     -1.420253    11A     -1.410252    12A     -1.174668
      13A     -1.052254    14A     -1.030802    15A     -0.901486
      16A     -0.849628    17A     -0.813444    18A     -0.741423
      19A     -0.704587    20A     -0.689657    21A     -0.646238
      22A     -0.641409    23A     -0.620437    24A     -0.610985
      25A     -0.564933    26A     -0.554207    27A     -0.543990
      28A     -0.512857    29A     -0.492693    30A     -0.426910
      31A     -0.357819    32A     -0.336654

  @DF-RHF Final Energy:  -418.43731414447456

   => Energetics <=

    Nuclear Repulsion Energy =            403.8585958503293227
    One-Electron Energy =               -1370.3678822625911380
    Two-Electron Energy =                 548.0719722677872596
    DFT Exchange-Correlation Energy =       0.0000000000000000
    Empirical Dispersion Energy =           0.0000000000000000
    PCM Polarization Energy =               0.0000000000000000
    EFP Energy =                            0.0000000000000000
    Total Energy =                       -418.4373141444746125
    Molecular point group: c1
  Basis Set: CC-PVTZ
  Basis Set:

  -Total Gradient:
     Atom            X                  Y                   Z
    ------   -----------------  -----------------  -----------------
       1        0.000143476659    -0.000000370620     0.002224030557
       2       -0.000635516075    -0.000348382725    -0.003423761928
       3        0.001427685192     0.001023499746     0.002367442826
       4       -0.000875052319    -0.000700166543    -0.001219325682
       5       -0.000056373635    -0.000009260362     0.000048102129
       6        0.000000432090     0.000005752229    -0.000019934435
       7       -0.000016864360     0.000049756177     0.000089904780
       8       -0.000000008351     0.000004988540    -0.000010073307
       9        0.000034336242    -0.000028348383     0.000054724660
      10       -0.000001691994    -0.000005749657    -0.000007539144
      11       -0.000012885041     0.000001728259    -0.000105350901
      12       -0.000021677439     0.000007520117    -0.000026920226
      13       -0.000001281057    -0.000000901912     0.000008679370
      14        0.000005117693     0.000004448969     0.000004741198
      15        0.000010302395    -0.000004513837     0.000015280100

  **** Optimization is complete! (in 6 steps) ****
    Final optimized geometry and variables:
    Molecular point group: c1

    Geometry (in Angstrom), charge = 0, multiplicity = 1:

    H            2.947482963930    -1.494493209716    -0.534407546733
    O            2.041542782478    -1.744770359738    -0.500576529804
    C            1.234424350400    -0.657455422748    -0.466953174703
    C            1.499056547487     0.468011392261    -1.234568704929
    C            0.097177374277    -0.712086555634     0.307282869502
    H            2.376601242106     0.493031895634    -1.853716721352
    C            0.636886853004     1.543659082770    -1.206913486947
    H           -0.113491554425    -1.583349955204     0.893369311793
    C           -0.772845350917     0.366851351611     0.320485481504
    H            0.852021794380     2.411713305091    -1.799327125805
    C           -0.505785700531     1.496722411512    -0.430304302293
    C           -2.003141562430     0.322266476878     1.152205083619
    H           -1.182609365441     2.329768095272    -0.411663070984
    O           -2.322998948538    -0.589722924301     1.834422550922
    H           -2.625052943555     1.221293116503     1.096603358841

  Mulliken Charges: (a.u.)
   Center  Symbol    Alpha    Beta     Spin     Total
       1     H     0.38552  0.38552  0.00000  0.22895
       2     O     4.17783  4.17783  0.00000 -0.35566
       3     C     2.85390  2.85390  0.00000  0.29221
       4     C     3.11762  3.11762  0.00000 -0.23524
       5     C     3.11824  3.11824  0.00000 -0.23649
       6     H     0.42394  0.42394  0.00000  0.15213
       7     C     3.06477  3.06477  0.00000 -0.12953
       8     H     0.40319  0.40319  0.00000  0.19362
       9     C     2.97321  2.97321  0.00000  0.05358
      10     H     0.41926  0.41926  0.00000  0.16148
      11     C     3.10474  3.10474  0.00000 -0.20949
      12     C     2.90906  2.90906  0.00000  0.18187
      13     H     0.42286  0.42286  0.00000  0.15428
      14     O     4.16929  4.16929  0.00000 -0.33857
      15     H     0.45658  0.45658  0.00000  0.08685

   Total alpha = 32.00000, Total beta = 32.00000, Total charge = -0.00000

*** Psi4 exiting successfully. Buy a developer a beer!
