  ==> Input File <==

--------------------------------------------------------------------------
set {
	reference rhf
	basis 6-31G*
}

set_num_threads( 4 )
memory 2 gb

molecule MOL {
0 1

O	 0.992767	 0.834261	 -0.863806
C	 0.576249	 0.131685	 -0.000108
C	 -0.766779	 -0.556801	 -0.000461
O	 1.257942	 -0.144217	 1.104354
C	 -1.945214	 0.412366	 0.000161
H	 -0.796911	 -1.211249	 -0.867467
H	 -0.796854	 -1.212390	 0.865687
C	 -3.287791	 -0.317055	 0.000105
H	 -1.876087	 1.060580	 -0.866812
H	 -1.875822	 1.059691	 0.867761
H	 -3.394745	 -0.949193	 -0.877058
H	 -4.111778	 0.388953	 0.000015
H	 -3.394954	 -0.949187	 0.877259
C	 2.540784	 0.441844	 1.231071
H	 3.186525	 0.120345	 0.426585
H	 2.927625	 0.102795	 2.179368
H	 2.468911	 1.519904	 1.219704

	symmetry c1
}
set optking {
	frozen_dihedral = ("
		1 2 3 6
	")
}

ee = optimize('scf')
oeprop('DIPOLE', 'QUADRUPOLE', 'MULLIKEN_CHARGES')
f=open( 'psi4out.xyz', 'w' )
f.write( "17  " )
f.write( str(ee) + "\n" )
f.write( MOL.save_string_xyz() )
f.close()
--------------------------------------------------------------------------

    Molecular point group: c1
  Charge       = 0
  Multiplicity = 1
  Basis Set: 6-31G*
  Basis Set:
  @DF-RHF Final Energy:  -344.90463124714512
    Total Energy =                       -344.9046312471452893
    Molecular point group: c1
  Basis Set: 6-31G*
  Basis Set:
  Basis Set: 6-31G*
  Basis Set:
  @DF-RHF Final Energy:  -344.90526873033446
    Total Energy =                       -344.9052687303343419
  Basis Set: 6-31G*
  Basis Set:
  Basis Set: 6-31G*
  Basis Set:
  @DF-RHF Final Energy:  -344.90446538422532
    Total Energy =                       -344.9044653842253183
  Basis Set: 6-31G*
  Basis Set:
  Basis Set: 6-31G*
  Basis Set:
  @DF-RHF Final Energy:  -344.90535354562593
    Total Energy =                       -344.9053535456254735
  Basis Set: 6-31G*
  Basis Set:
  Basis Set: 6-31G*
  Basis Set:
  @DF-RHF Final Energy:  -344.90535726882024
    Total Energy =                       -344.9053572688202394
  Basis Set: 6-31G*
  Basis Set:
  Charge       = 0
  Multiplicity = 1
  Basis Set: 6-31G*
  Basis Set:

    Orbital Energies (a.u.)
    -----------------------

    Doubly Occupied:

       1A    -20.606342     2A    -20.542544     3A    -11.371839
       4A    -11.281063     5A    -11.234367     6A    -11.228896
       7A    -11.217062     8A     -1.469946     9A     -1.361732
      10A     -1.082078    11A     -1.000522    12A     -0.941501
      13A     -0.828602    14A     -0.772068    15A     -0.698663
      16A     -0.680526    17A     -0.672845    18A     -0.636424
      19A     -0.594546    20A     -0.582110    21A     -0.560207
      22A     -0.535242    23A     -0.525460    24A     -0.502976
      25A     -0.484653    26A     -0.482660    27A     -0.454344
      28A     -0.434506

  @DF-RHF Final Energy:  -344.90535746212487

   => Energetics <=

    Nuclear Repulsion Energy =            312.9464926970079546
    One-Electron Energy =               -1090.1362475885725871
    Two-Electron Energy =                 432.2843974294399914
    DFT Exchange-Correlation Energy =       0.0000000000000000
    Empirical Dispersion Energy =           0.0000000000000000
    PCM Polarization Energy =               0.0000000000000000
    EFP Energy =                            0.0000000000000000
    Total Energy =                       -344.9053574621246980
    Molecular point group: c1
  Basis Set: 6-31G*
  Basis Set:

  -Total Gradient:
     Atom            X                  Y                   Z
    ------   -----------------  -----------------  -----------------
       1        0.000191944599    -0.000423141940    -0.000227657519
       2       -0.000366428956     0.000710899706     0.000212117516
       3        0.000347442040    -0.000630662602     0.000202596004
       4        0.000026951159    -0.000015859006     0.000056676760
       5        0.000007902510     0.000017057925     0.000020226552
       6       -0.000204325676     0.000362001537    -0.000237058973
       7        0.000003388931    -0.000006370623    -0.000002056674
       8        0.000007690004    -0.000014150873    -0.000012807636
       9        0.000000863729     0.000009514619     0.000002705200
      10       -0.000002034448    -0.000004035820    -0.000003733597
      11       -0.000003413467    -0.000004973717     0.000001111357
      12        0.000004080797     0.000005511165    -0.000002530839
      13        0.000006451451     0.000004782112    -0.000002232878
      14       -0.000031636025    -0.000017491577    -0.000015129149
      15        0.000007834096     0.000003595796     0.000002846630
      16       -0.000000698621    -0.000000791234     0.000003072964
      17        0.000003987874     0.000004114529     0.000001854279

  **** Optimization is complete! (in 6 steps) ****
    Final optimized geometry and variables:
    Molecular point group: c1

    Geometry (in Angstrom), charge = 0, multiplicity = 1:

    O            0.987829612300     0.729893572015    -1.051321068084
    C            0.627004838866    -0.001539426552    -0.184894312994
    C           -0.705631059467    -0.711241718680    -0.176648112111
    O            1.360448946810    -0.278054531617     0.883285963471
    C           -1.871743251132     0.284780520335    -0.216615744328
    H           -0.736524936131    -1.335928136369    -1.064308359796
    H           -0.772696281795    -1.354009051398     0.691641915375
    C           -3.226434839972    -0.417981877191    -0.275697910520
    H           -1.749274155694     0.931797000849    -1.077699273090
    H           -1.831001745101     0.921666047844     0.663418916466
    H           -3.307505703506    -1.038935255870    -1.163191475367
    H           -4.036001806138     0.304067140791    -0.302024982124
    H           -3.379000808284    -1.055402017546     0.590411296146
    C            2.631697557233     0.341277385655     0.965820463370
    H            3.249107565211     0.053017249632     0.127383194609
    H            3.068722372328    -0.004627260119     1.889512402302
    H            2.529440769477     1.416778176708     0.978554683742

  Mulliken Charges: (a.u.)
   Center  Symbol    Alpha    Beta     Spin     Total
       1     O     4.28711  4.28711  0.00000 -0.57422
       2     C     2.60998  2.60998  0.00000  0.78003
       3     C     3.20133  3.20133  0.00000 -0.40266
       4     O     4.30319  4.30319  0.00000 -0.60638
       5     C     3.16204  3.16204  0.00000 -0.32408
       6     H     0.40134  0.40134  0.00000  0.19733
       7     H     0.40110  0.40110  0.00000  0.19781
       8     C     3.24145  3.24145  0.00000 -0.48290
       9     H     0.40301  0.40301  0.00000  0.19397
      10     H     0.41616  0.41616  0.00000  0.16769
      11     H     0.41913  0.41913  0.00000  0.16174
      12     H     0.41512  0.41512  0.00000  0.16977
      13     H     0.42009  0.42009  0.00000  0.15983
      14     C     3.09366  3.09366  0.00000 -0.18731
      15     H     0.40839  0.40839  0.00000  0.18322
      16     H     0.40837  0.40837  0.00000  0.18326
      17     H     0.40854  0.40854  0.00000  0.18292

   Total alpha = 28.00000, Total beta = 28.00000, Total charge =  0.00000
