  ==> Input File <==

--------------------------------------------------------------------------
set {
	reference rhf
	basis 6-31G*
}

set_num_threads( 1 )
memory 2 gb

molecule MOL {
0 1

H	 0.930586	 4.202215	 1.954144
N	 0.108307	 3.636203	 1.870283
C	 0.344616	 2.512176	 0.975718
H	 -0.614589	 4.228048	 1.507004
C	 -0.876203	 1.599534	 0.926348
H	 1.192835	 1.955697	 1.362647
H	 0.608640	 2.819609	 -0.039259
C	 -0.679275	 0.379305	 0.025956
H	 -1.110360	 1.284879	 1.939264
H	 -1.734334	 2.171848	 0.575060
C	 -1.903357	 -0.536963	 -0.023547
H	 0.180022	 -0.191491	 0.374738
H	 -0.437213	 0.706815	 -0.983990
C	 -3.225172	 0.228290	 0.028445
H	 -1.867824	 -1.134999	 -0.931459
H	 -1.860449	 -1.239604	 0.805977
H	 -3.313397	 0.915643	 -0.808262
H	 -4.073500	 -0.448134	 -0.008893
H	 -3.306061	 0.809945	 0.942516

	symmetry c1
}
set optking {
	frozen_dihedral = ("
		6 3 5 9,
		12 8 5 9,
		1 2 3 6
	")
}

ee = energy('scf')
oeprop('DIPOLE', 'QUADRUPOLE', 'MULLIKEN_CHARGES')
f=open( 'psi4out.xyz', 'w' )
f.write( "19  " )
f.write( str(ee) + "\n" )
f.write( MOL.save_string_xyz() )
f.close()
--------------------------------------------------------------------------

    Molecular point group: c1

    Geometry (in Angstrom), charge = 0, multiplicity = 1:

       Center              X                  Y                   Z               Mass
    ------------   -----------------  -----------------  -----------------  -----------------
           H          1.964768448272     2.855418661732     1.309787040546     1.007825032070
           N          1.142489448272     2.289406661732     1.225926040546    14.003074004780
           C          1.378798448272     1.165379661732     0.331361040546    12.000000000000
           H          0.419593448272     2.881251661732     0.862647040546     1.007825032070
           C          0.157979448272     0.252737661732     0.281991040546    12.000000000000
           H          2.227017448272     0.608900661732     0.718290040546     1.007825032070
           H          1.642822448272     1.472812661732    -0.683615959454     1.007825032070
           C          0.354907448272    -0.967491338268    -0.618400959454    12.000000000000
           H         -0.076177551728    -0.061917338268     1.294907040546     1.007825032070
           H         -0.700151551728     0.825051661732    -0.069296959454     1.007825032070
           C         -0.869174551728    -1.883759338268    -0.667903959454    12.000000000000
           H          1.214204448272    -1.538287338268    -0.269618959454     1.007825032070
           H          0.596969448272    -0.639981338268    -1.628346959454     1.007825032070
           C         -2.190989551728    -1.118506338268    -0.615911959454    12.000000000000
           H         -0.833641551728    -2.481795338268    -1.575815959454     1.007825032070
           H         -0.826266551728    -2.586400338268     0.161620040546     1.007825032070
           H         -2.279214551728    -0.431153338268    -1.452618959454     1.007825032070
           H         -3.039317551728    -1.794930338268    -0.653249959454     1.007825032070
           H         -2.271878551728    -0.536851338268     0.298159040546     1.007825032070

  Charge       = 0
  Multiplicity = 1
  Basis Set: 6-31G*
  Basis Set:

    Orbital Energies (a.u.)
    -----------------------

    Doubly Occupied:

       1A    -15.532163     2A    -11.239070     3A    -11.213430
       4A    -11.212164     5A    -11.208248     6A    -11.205872
       7A     -1.176257     8A     -1.075698     9A     -0.991478
      10A     -0.904931    11A     -0.827523    12A     -0.770421
      13A     -0.665116    14A     -0.635191    15A     -0.616426
      16A     -0.605055    17A     -0.566145    18A     -0.545004
      19A     -0.523926    20A     -0.504924    21A     -0.484411
      22A     -0.456945    23A     -0.453091    24A     -0.451744
      25A     -0.380765

  @DF-RHF Final Energy:  -251.34499700462132

   => Energetics <=

    Nuclear Repulsion Energy =            251.3612654806623539
    One-Electron Energy =                -836.9205098015718249
    Two-Electron Energy =                 334.2142473162888336
    DFT Exchange-Correlation Energy =       0.0000000000000000
    Empirical Dispersion Energy =           0.0000000000000000
    PCM Polarization Energy =               0.0000000000000000
    EFP Energy =                            0.0000000000000000
    Total Energy =                       -251.3449970046206090

  Mulliken Charges: (a.u.)
   Center  Symbol    Alpha    Beta     Spin     Total
       1     H     0.33250  0.33250  0.00000  0.33500
       2     N     3.92202  3.92202  0.00000 -0.84403
       3     C     3.05917  3.05917  0.00000 -0.11834
       4     H     0.33548  0.33548  0.00000  0.32903
       5     C     3.15803  3.15803  0.00000 -0.31607
       6     H     0.42129  0.42129  0.00000  0.15743
       7     H     0.43496  0.43496  0.00000  0.13008
       8     C     3.15655  3.15655  0.00000 -0.31310
       9     H     0.41333  0.41333  0.00000  0.17335
      10     H     0.42308  0.42308  0.00000  0.15384
      11     C     3.15088  3.15088  0.00000 -0.30175
      12     H     0.42118  0.42118  0.00000  0.15763
      13     H     0.42434  0.42434  0.00000  0.15133
      14     C     3.24665  3.24665  0.00000 -0.49330
      15     H     0.42095  0.42095  0.00000  0.15811
      16     H     0.42168  0.42168  0.00000  0.15663
      17     H     0.42304  0.42304  0.00000  0.15391
      18     H     0.41894  0.41894  0.00000  0.16212
      19     H     0.41594  0.41594  0.00000  0.16813

   Total alpha = 25.00000, Total beta = 25.00000, Total charge =  0.00000
