                              Psi4 1.0.54 Driver

  ==> Input File <==

--------------------------------------------------------------------------
set {
	reference rhf
	basis cc-pvtz
}

set_num_threads( 4 )
memory 2 gb

molecule MOL {
0 1

H	 1.824038	 2.215720	 -1.839232
O	 2.631051	 1.815793	 -2.104972
C	 3.112043	 0.972687	 -1.091516
C	 2.312582	 -0.313073	 -0.941956
H	 4.131546	 0.735229	 -1.363925
H	 3.147595	 1.502986	 -0.141796
C	 0.874186	 -0.106304	 -0.472793
H	 2.315285	 -0.834257	 -1.894593
H	 2.834398	 -0.950248	 -0.231946
C	 0.113298	 -1.420414	 -0.302504
H	 0.351864	 0.523985	 -1.184775
H	 0.878010	 0.428972	 0.475232
C	 -1.311023	 -1.277304	 0.237018
H	 0.085091	 -1.942611	 -1.255783
H	 0.674250	 -2.058601	 0.374637
C	 -2.041121	 -0.006551	 -0.194127
H	 -1.888548	 -2.136293	 -0.093331
H	 -1.289731	 -1.328757	 1.323321
C	 -3.489218	 0.042606	 0.286507
H	 -2.022185	 0.066287	 -1.279394
H	 -1.518764	 0.869305	 0.178730
C	 -4.219984	 1.311773	 -0.139038
H	 -4.022855	 -0.824300	 -0.093339
H	 -3.510372	 -0.038577	 1.370031
H	 -4.244251	 1.405725	 -1.219696
H	 -5.244345	 1.313233	 0.215630
H	 -3.732090	 2.196311	 0.257073

	symmetry c1
}
set optking {
	frozen_dihedral = ("
		14 10 13 16
	")
}

ee,wfn = optimize('scf', return_wfn=True)
oeprop( wfn, 'DIPOLE', 'QUADRUPOLE', 'MULLIKEN_CHARGES')
f=open( 'psi4out.xyz', 'w' )
f.write( "27  " )
f.write( str(ee) + "\n" )
f.write( MOL.save_string_xyz() )
f.close()
--------------------------------------------------------------------------

    Molecular point group: c1
  Charge       = 0
  Multiplicity = 1
  Basis Set: CC-PVTZ
  Basis Set:
  @DF-RHF Final Energy:  -388.42334502835746
    Total Energy =                       -388.4233450283575166
    Molecular point group: c1
  Basis Set: CC-PVTZ
  Basis Set:
  Basis Set: CC-PVTZ
  Basis Set:
  @DF-RHF Final Energy:  -388.42154220805679
    Total Energy =                       -388.4215422080566213
  Basis Set: CC-PVTZ
  Basis Set:
  Basis Set: CC-PVTZ
  Basis Set:
  @DF-RHF Final Energy:  -388.42409245479575
    Total Energy =                       -388.4240924547953000
  Basis Set: CC-PVTZ
  Basis Set:
  Basis Set: CC-PVTZ
  Basis Set:
  @DF-RHF Final Energy:  -388.42415746389401
    Total Energy =                       -388.4241574638941756
  Basis Set: CC-PVTZ
  Basis Set:
  Basis Set: CC-PVTZ
  Basis Set:
  @DF-RHF Final Energy:  -388.42415524970465
    Total Energy =                       -388.4241552497046541
  Basis Set: CC-PVTZ
  Basis Set:
  Basis Set: CC-PVTZ
  Basis Set:
  @DF-RHF Final Energy:  -388.42418368402650
    Total Energy =                       -388.4241836840263886
  Basis Set: CC-PVTZ
  Basis Set:
  Charge       = 0
  Multiplicity = 1
  Basis Set: CC-PVTZ
  Basis Set:

    Orbital Energies (a.u.)
    -----------------------

    Doubly Occupied:

       1A    -20.545285     2A    -11.264990     3A    -11.217265
       4A    -11.214745     5A    -11.213982     6A    -11.213518
       7A    -11.213268     8A    -11.212185     9A    -11.207563
      10A     -1.363191    11A     -1.095572    12A     -1.062576
      13A     -1.011559    14A     -0.949225    15A     -0.890911
      16A     -0.820781    17A     -0.806529    18A     -0.771440
      19A     -0.696011    20A     -0.657309    21A     -0.635075
      22A     -0.615710    23A     -0.602912    24A     -0.585959
      25A     -0.578034    26A     -0.554161    27A     -0.539219
      28A     -0.534222    29A     -0.506929    30A     -0.497365
      31A     -0.487262    32A     -0.474527    33A     -0.467883
      34A     -0.458087    35A     -0.449783    36A     -0.442631
      37A     -0.426513

  @DF-RHF Final Energy:  -388.42418376699413

   => Energetics <=

    Nuclear Repulsion Energy =            461.9453708948824442
    One-Electron Energy =               -1442.1707539998851644
    Two-Electron Energy =                 591.8011993380082458
    DFT Exchange-Correlation Energy =       0.0000000000000000
    Empirical Dispersion Energy =           0.0000000000000000
    PCM Polarization Energy =               0.0000000000000000
    EFP Energy =                            0.0000000000000000
    Total Energy =                       -388.4241837669944744
    Molecular point group: c1
  Basis Set: CC-PVTZ
  Basis Set:

  -Total Gradient:
     Atom            X                  Y                   Z
    ------   -----------------  -----------------  -----------------
       1        0.000007634614     0.000004402766    -0.000008473453
       2       -0.000031477493     0.000022707718    -0.000013858558
       3        0.000014310518    -0.000026319061     0.000018272764
       4        0.000011471082     0.000004757031    -0.000005630801
       5       -0.000002802998    -0.000011185875     0.000014562395
       6       -0.000000827304    -0.000001098581    -0.000003267543
       7        0.000005868077     0.000008052443    -0.000000260156
       8       -0.000001764578     0.000002853196    -0.000000190657
       9       -0.000001457109    -0.000002685123    -0.000004256852
      10       -0.000924243424     0.007359642944    -0.001468997895
      11       -0.000005115453    -0.000011930583     0.000006420491
      12        0.000000024520    -0.000000044768    -0.000004392379
      13       -0.002028040082    -0.004229834652    -0.004539145310
      14        0.001331520788    -0.005200453508     0.002454840017
      15        0.000000538659     0.000004784037    -0.000002954189
      16        0.001624346286     0.002077241205     0.003561359240
      17       -0.000003648159    -0.000002972655     0.000004964168
      18       -0.000003937906     0.000006794577    -0.000005447217
      19       -0.000005384012     0.000005616154    -0.000004860094
      20        0.000004588371    -0.000001497136     0.000006327577
      21       -0.000004850113     0.000000664688    -0.000002766620
      22        0.000007051075    -0.000008170077     0.000000605366
      23        0.000000906408    -0.000000458493     0.000001714474
      24        0.000000669678     0.000001469406    -0.000004677275
      25        0.000000820399    -0.000000296368     0.000003754254
      26        0.000005622422    -0.000000520487    -0.000002068839
      27       -0.000001824263    -0.000001518796    -0.000001572909

  **** Optimization is complete! (in 7 steps) ****
    Final optimized geometry and variables:
    Molecular point group: c1

    Geometry (in Angstrom), charge = 0, multiplicity = 1:

    H            1.841438378322     2.340688710262    -1.269975241627
    O            2.653160115225     2.013845702964    -1.610367528760
    C            3.242476789498     1.127922631814    -0.695491844162
    C            2.527489182175    -0.211634946025    -0.601461908332
    H            4.254839890478     0.973883287621    -1.043789778295
    H            3.307059159877     1.586858205699     0.289201817931
    C            1.111496256836    -0.127645035394    -0.036074895874
    H            2.500179806165    -0.658544252467    -1.590666419863
    H            3.127272437193    -0.867404536714     0.024938108292
    C            0.444281619716    -1.495918518643     0.068552295564
    H            0.511274204552     0.522014942967    -0.663727458108
    H            1.146281934937     0.334065517237     0.949036034146
    C           -0.944990389187    -1.539404005313     0.728142858876
    H            0.398622719072    -1.968239572308    -0.909149986454
    H            1.097329593633    -2.145570696456     0.646152813084
    C           -1.865792974753    -0.352015921889     0.450714715362
    H           -1.440264408823    -2.458006836767     0.430199883012
    H           -0.814641366813    -1.607909210886     1.805564759294
    C           -3.249032286918    -0.521297314915     1.073866750116
    H           -1.976243361251    -0.210575203454    -0.622581471394
    H           -1.416906185856     0.558508871604     0.834005424402
    C           -4.169516468351     0.668618435115     0.823784911312
    H           -3.711747309019    -1.422657444272     0.681670200418
    H           -3.143314969348    -0.675486193028     2.144421472416
    H           -4.322296563721     0.828968739368    -0.238355104888
    H           -5.141928908891     0.515623317286     1.277655139816
    H           -3.752003319399     1.580687934206     1.237535998691

  Mulliken Charges: (a.u.)
   Center  Symbol    Alpha    Beta     Spin     Total
       1     H     0.39235  0.39235  0.00000  0.21531
       2     O     4.20556  4.20556  0.00000 -0.41111
       3     C     2.98003  2.98003  0.00000  0.03994
       4     C     3.09039  3.09039  0.00000 -0.18078
       5     H     0.44844  0.44844  0.00000  0.10312
       6     H     0.46988  0.46988  0.00000  0.06024
       7     C     3.10560  3.10560  0.00000 -0.21121
       8     H     0.45090  0.45090  0.00000  0.09820
       9     H     0.45484  0.45484  0.00000  0.09031
      10     C     3.09622  3.09622  0.00000 -0.19244
      11     H     0.45301  0.45301  0.00000  0.09399
      12     H     0.45265  0.45265  0.00000  0.09470
      13     C     3.09576  3.09576  0.00000 -0.19152
      14     H     0.45025  0.45025  0.00000  0.09950
      15     H     0.45125  0.45125  0.00000  0.09750
      16     C     3.09160  3.09160  0.00000 -0.18320
      17     H     0.44886  0.44886  0.00000  0.10229
      18     H     0.45381  0.45381  0.00000  0.09238
      19     C     3.08508  3.08508  0.00000 -0.17016
      20     H     0.45372  0.45372  0.00000  0.09257
      21     H     0.45276  0.45276  0.00000  0.09447
      22     C     3.14991  3.14991  0.00000 -0.29981
      23     H     0.45336  0.45336  0.00000  0.09328
      24     H     0.45475  0.45475  0.00000  0.09051
      25     H     0.45497  0.45497  0.00000  0.09006
      26     H     0.44810  0.44810  0.00000  0.10379
      27     H     0.45595  0.45595  0.00000  0.08810

   Total alpha = 37.00000, Total beta = 37.00000, Total charge = -0.00000

*** Psi4 exiting successfully. Buy a developer a beer!
