                              Psi4 1.0.54 Driver

  ==> Input File <==

--------------------------------------------------------------------------
set {
	reference rhf
	basis cc-pvtz
}

set_num_threads( 4 )
memory 2 gb

molecule MOL {
0 1

O	 3.219313	 0.959291	 -0.614106
C	 2.698710	 0.058177	 -0.050237
C	 1.246364	 -0.005813	 0.348416
O	 3.344101	 -1.038700	 0.312317
C	 0.453207	 1.232821	 -0.049003
H	 0.839270	 -0.907818	 -0.092281
H	 1.216683	 -0.160521	 1.422434
C	 -0.998367	 1.217982	 0.432195
H	 0.481498	 1.345443	 -1.127236
H	 0.951413	 2.105557	 0.354893
C	 -1.882951	 0.151251	 -0.211235
H	 -1.429490	 2.193659	 0.228843
H	 -1.019755	 1.099323	 1.513279
C	 -3.342450	 0.243269	 0.226009
H	 -1.826223	 0.246578	 -1.293162
H	 -1.508033	 -0.839650	 0.027695
C	 -4.141167	 1.294283	 -0.539624
H	 -3.385108	 0.466298	 1.289389
H	 -3.816781	 -0.727385	 0.100682
C	 -5.597644	 1.381475	 -0.095947
H	 -3.668527	 2.264769	 -0.415173
H	 -4.101859	 1.071227	 -1.602430
H	 -6.135550	 2.135789	 -0.658665
H	 -5.671649	 1.638208	 0.955585
H	 -6.108051	 0.434953	 -0.240132
C	 4.720529	 -1.114346	 0.001449
H	 4.874321	 -1.055557	 -1.065852
H	 5.057824	 -2.067950	 0.373977
H	 5.264321	 -0.313596	 0.480350

	symmetry c1
}
set optking {
	frozen_dihedral = ("
		17 14 11 15
	")
}

ee,wfn = optimize('scf', return_wfn=True)
oeprop( wfn, 'DIPOLE', 'QUADRUPOLE', 'MULLIKEN_CHARGES')
f=open( 'psi4out.xyz', 'w' )
f.write( "29  " )
f.write( str(ee) + "\n" )
f.write( MOL.save_string_xyz() )
f.close()
--------------------------------------------------------------------------

    Molecular point group: c1
  Charge       = 0
  Multiplicity = 1
  Basis Set: CC-PVTZ
  Basis Set:
  @DF-RHF Final Energy:  -501.22228114919074
    Total Energy =                       -501.2222811491915309
    Molecular point group: c1
  Basis Set: CC-PVTZ
  Basis Set:
  Basis Set: CC-PVTZ
  Basis Set:
  @DF-RHF Final Energy:  -501.22246856960146
    Total Energy =                       -501.2224685696016877
  Basis Set: CC-PVTZ
  Basis Set:
  Basis Set: CC-PVTZ
  Basis Set:
  @DF-RHF Final Energy:  -501.22248197740669
    Total Energy =                       -501.2224819774063462
  Basis Set: CC-PVTZ
  Basis Set:
  Basis Set: CC-PVTZ
  Basis Set:
  @DF-RHF Final Energy:  -501.22240389535000
    Total Energy =                       -501.2224038953499985
  Basis Set: CC-PVTZ
  Basis Set:
  Basis Set: CC-PVTZ
  Basis Set:
  @DF-RHF Final Energy:  -501.22249586690123
    Total Energy =                       -501.2224958669015678
  Basis Set: CC-PVTZ
  Basis Set:
  Charge       = 0
  Multiplicity = 1
  Basis Set: CC-PVTZ
  Basis Set:

    Orbital Energies (a.u.)
    -----------------------

    Doubly Occupied:

       1A    -20.595932     2A    -20.533787     3A    -11.364198
       4A    -11.278208     5A    -11.232845     6A    -11.216944
       7A    -11.215213     8A    -11.213949     9A    -11.213525
      10A    -11.212510    11A    -11.206877    12A     -1.471824
      13A     -1.365413    14A     -1.099118    15A     -1.067120
      16A     -1.019140    17A     -0.977758    18A     -0.929244
      19A     -0.862817    20A     -0.810208    21A     -0.782205
      22A     -0.765045    23A     -0.703116    24A     -0.685301
      25A     -0.675799    26A     -0.636440    27A     -0.630337
      28A     -0.618017    29A     -0.596505    30A     -0.581280
      31A     -0.562833    32A     -0.557510    33A     -0.538346
      34A     -0.528378    35A     -0.523939    36A     -0.500405
      37A     -0.496274    38A     -0.484757    39A     -0.472478
      40A     -0.462992    41A     -0.459177    42A     -0.448333
      43A     -0.443689    44A     -0.439710

  @DF-RHF Final Energy:  -501.22249504023523

   => Energetics <=

    Nuclear Repulsion Energy =            613.7135225125360876
    One-Electron Energy =               -1898.9130484579841323
    Two-Electron Energy =                 783.9770309052127004
    DFT Exchange-Correlation Energy =       0.0000000000000000
    Empirical Dispersion Energy =           0.0000000000000000
    PCM Polarization Energy =               0.0000000000000000
    EFP Energy =                            0.0000000000000000
    Total Energy =                       -501.2224950402352306
    Molecular point group: c1
  Basis Set: CC-PVTZ
  Basis Set:

  -Total Gradient:
     Atom            X                  Y                   Z
    ------   -----------------  -----------------  -----------------
       1       -0.000031433042    -0.000062317153    -0.000122206027
       2        0.000092941255     0.000167841203     0.000326263222
       3       -0.000066239718    -0.000055581544    -0.000117501046
       4       -0.000036823245    -0.000048574376    -0.000091693670
       5        0.000049909680     0.000066173811     0.000103144453
       6       -0.000059818534    -0.000033668474     0.000005455977
       7        0.000028593639     0.000014107659    -0.000016861666
       8        0.000008246367    -0.000042380878    -0.000110370546
       9       -0.000015669968     0.000011149203     0.000006413358
      10        0.000034830892    -0.000015920179    -0.000000627181
      11       -0.000327754765    -0.002617108950    -0.000515318088
      12       -0.000036502205    -0.000003461745    -0.000028053286
      13       -0.000000160517     0.000007009609    -0.000025261581
      14        0.000544896070     0.001800725208     0.001352960371
      15        0.000202205193     0.001866698963     0.000210822926
      16        0.000096638712    -0.000066883803    -0.000045230475
      17       -0.000393267060    -0.001074196138    -0.000923930624
      18       -0.000026198130     0.000015876545    -0.000013308623
      19       -0.000042837036     0.000000826975     0.000021584517
      20       -0.000031558768     0.000072889637    -0.000022115019
      21        0.000013125331    -0.000024207193     0.000026613557
      22       -0.000006852060     0.000011042310    -0.000008726582
      23       -0.000035733396     0.000015877402     0.000011246686
      24        0.000003293999    -0.000008162538     0.000000071121
      25        0.000026772303     0.000009865707    -0.000012509384
      26        0.000012067068    -0.000004344841    -0.000010684220
      27        0.000005831068    -0.000002687271    -0.000000557975
      28        0.000000215529    -0.000000213505    -0.000001970511
      29       -0.000008718668    -0.000000375644     0.000002350315

  **** Optimization is complete! (in 6 steps) ****
    Final optimized geometry and variables:
    Molecular point group: c1

    Geometry (in Angstrom), charge = 0, multiplicity = 1:

    O            3.199511397906     0.578216599699    -0.608564613585
    C            2.682311666178    -0.330898052995    -0.054476921716
    C            1.234807218876    -0.396682598071     0.361289212063
    O            3.327140112202    -1.437864498892     0.277191898725
    C            0.442567077209     0.853484010037    -0.000411197153
    H            0.818096235209    -1.287531426631    -0.092964236186
    H            1.217849123689    -0.573717822347     1.432132675289
    C           -1.002628931993     0.836161025526     0.499918867829
    H            0.456654208472     0.987005301956    -1.076562716250
    H            0.950820664852     1.715754094393     0.413431252697
    C           -1.892993647866    -0.233907314203    -0.135688743633
    H           -1.431184635391     1.814622475982     0.310766063998
    H           -1.009281426595     0.708256209190     1.580109952086
    C           -3.364604979864    -0.134470975560     0.282242889982
    H           -1.821534103328    -0.147820909926    -1.217307090465
    H           -1.518993274916    -1.218012916004     0.124272031963
    C           -4.169580733531     0.907857059292    -0.492337086271
    H           -3.425435968699     0.074725908695     1.347469388395
    H           -3.838910819894    -1.101400491028     0.139217692123
    C           -5.622585016053     0.995718076942    -0.037078221804
    H           -3.706782440506     1.884875346754    -0.393407436880
    H           -4.138200000076     0.661930924938    -1.550079267609
    H           -6.171040202344     1.732741276448    -0.612426896469
    H           -5.688755462318     1.276820923162     1.008737412527
    H           -6.127436256374     0.042435319316    -0.153946319910
    C            4.698728117078    -1.513887542230    -0.054351231927
    H            4.837995233963    -1.434587196418    -1.122323853641
    H            5.036424707308    -2.476305056799     0.294412244159
    H            5.253131185762    -0.725418014244     0.432693989744

  Mulliken Charges: (a.u.)
   Center  Symbol    Alpha    Beta     Spin     Total
       1     O     4.19697  4.19697  0.00000 -0.39395
       2     C     2.80512  2.80512  0.00000  0.38977
       3     C     3.10201  3.10201  0.00000 -0.20402
       4     O     4.14718  4.14718  0.00000 -0.29436
       5     C     3.09213  3.09213  0.00000 -0.18426
       6     H     0.43917  0.43917  0.00000  0.12167
       7     H     0.43980  0.43980  0.00000  0.12040
       8     C     3.10294  3.10294  0.00000 -0.20587
       9     H     0.44584  0.44584  0.00000  0.10832
      10     H     0.43977  0.43977  0.00000  0.12046
      11     C     3.10463  3.10463  0.00000 -0.20927
      12     H     0.44367  0.44367  0.00000  0.11265
      13     H     0.45402  0.45402  0.00000  0.09197
      14     C     3.09463  3.09463  0.00000 -0.18926
      15     H     0.45345  0.45345  0.00000  0.09310
      16     H     0.44535  0.44535  0.00000  0.10930
      17     C     3.08122  3.08122  0.00000 -0.16243
      18     H     0.45466  0.45466  0.00000  0.09068
      19     H     0.44818  0.44818  0.00000  0.10364
      20     C     3.15071  3.15071  0.00000 -0.30142
      21     H     0.45434  0.45434  0.00000  0.09132
      22     H     0.45438  0.45438  0.00000  0.09124
      23     H     0.44815  0.44815  0.00000  0.10369
      24     H     0.45484  0.45484  0.00000  0.09033
      25     H     0.45487  0.45487  0.00000  0.09025
      26     C     3.03810  3.03810  0.00000 -0.07620
      27     H     0.45436  0.45436  0.00000  0.09129
      28     H     0.44528  0.44528  0.00000  0.10945
      29     H     0.45425  0.45425  0.00000  0.09150

   Total alpha = 44.00000, Total beta = 44.00000, Total charge =  0.00000

*** Psi4 exiting successfully. Buy a developer a beer!
