  ==> Input File <==

--------------------------------------------------------------------------
set {
	reference rhf
	basis cc-pvtz
}

set_num_threads( 4 )
memory 2 gb

molecule MOL {
0 1

H	 -2.430191	 2.238007	 1.143024
O	 -1.749330	 1.647162	 0.879347
C	 -2.302264	 0.528872	 0.237390
C	 -1.175688	 -0.398187	 -0.171891
H	 -2.987478	 0.008010	 0.902941
H	 -2.867606	 0.834748	 -0.640481
C	 0.196029	 0.106276	 0.266738
H	 -1.201873	 -0.515469	 -1.250677
H	 -1.365975	 -1.378728	 0.252664
C	 1.330220	 -0.826136	 -0.155230
H	 0.359542	 1.097229	 -0.145561
H	 0.212134	 0.218135	 1.348778
C	 2.719700	 -0.407669	 0.328325
H	 1.339388	 -0.911200	 -1.239363
H	 1.119001	 -1.821953	 0.224128
C	 3.241564	 0.893452	 -0.276737
H	 3.418299	 -1.204729	 0.093035
H	 2.711776	 -0.323368	 1.411960
H	 3.254204	 0.841071	 -1.360784
H	 2.634460	 1.745075	 0.005842
H	 4.254264	 1.092401	 0.054971

	symmetry c1
}
set optking {
	frozen_dihedral = ("
		2 3 4 8
	")
}

ee = optimize('scf')
oeprop('DIPOLE', 'QUADRUPOLE', 'MULLIKEN_CHARGES')
f=open( 'psi4out.xyz', 'w' )
f.write( "21  " )
f.write( str(ee) + "\n" )
f.write( MOL.save_string_xyz() )
f.close()
--------------------------------------------------------------------------

    Molecular point group: c1
  Charge       = 0
  Multiplicity = 1
  Basis Set: CC-PVTZ
  Basis Set:
  @DF-RHF Final Energy:  -310.32219816177121
    Total Energy =                       -310.3221981617710412
    Molecular point group: c1
  Basis Set: CC-PVTZ
  Basis Set:
  Basis Set: CC-PVTZ
  Basis Set:
  @DF-RHF Final Energy:  -310.32268191894923
    Total Energy =                       -310.3226819189493995
  Basis Set: CC-PVTZ
  Basis Set:
  Basis Set: CC-PVTZ
  Basis Set:
  @DF-RHF Final Energy:  -310.32423369979199
    Total Energy =                       -310.3242336997918187
  Basis Set: CC-PVTZ
  Basis Set:
  Basis Set: CC-PVTZ
  Basis Set:
  @DF-RHF Final Energy:  -310.32430572745676
    Total Energy =                       -310.3243057274567605
  Basis Set: CC-PVTZ
  Basis Set:
  Basis Set: CC-PVTZ
  Basis Set:
  @DF-RHF Final Energy:  -310.32430906320377
    Total Energy =                       -310.3243090632039412
  Basis Set: CC-PVTZ
  Basis Set:
  Charge       = 0
  Multiplicity = 1
  Basis Set: CC-PVTZ
  Basis Set:

    Orbital Energies (a.u.)
    -----------------------

    Doubly Occupied:

       1A    -20.545833     2A    -11.266743     3A    -11.211013
       4A    -11.207390     5A    -11.204920     6A    -11.201386
       7A    -11.200163     8A     -1.363731     9A     -1.079170
      10A     -1.026419    11A     -0.951853    12A     -0.876381
      13A     -0.800403    14A     -0.772368    15A     -0.697672
      16A     -0.657250    17A     -0.617716    18A     -0.603783
      19A     -0.585786    20A     -0.563635    21A     -0.533591
      22A     -0.521706    23A     -0.494863    24A     -0.494512
      25A     -0.483385    26A     -0.457386    27A     -0.448892
      28A     -0.436680    29A     -0.424463

  @DF-RHF Final Energy:  -310.32430896051864

   => Energetics <=

    Nuclear Repulsion Energy =            318.4868378205658814
    One-Electron Energy =               -1052.1641069561937911
    Two-Electron Energy =                 423.3529601751090468
    DFT Exchange-Correlation Energy =       0.0000000000000000
    Empirical Dispersion Energy =           0.0000000000000000
    PCM Polarization Energy =               0.0000000000000000
    EFP Energy =                            0.0000000000000000
    Total Energy =                       -310.3243089605189198
    Molecular point group: c1
  Basis Set: CC-PVTZ
  Basis Set:

  -Total Gradient:
     Atom            X                  Y                   Z
    ------   -----------------  -----------------  -----------------
       1        0.000006480408    -0.000023459383    -0.000012134816
       2       -0.000006599663    -0.000323553042     0.000649352738
       3       -0.000079893749     0.000328717592    -0.000843002771
       4        0.000642562619     0.000841908065     0.000097937690
       5        0.000009100362    -0.000032017381    -0.000019717029
       6       -0.000000546222    -0.000026605309    -0.000012838420
       7       -0.000008118041    -0.000041587212     0.000101354893
       8       -0.000568489910    -0.000761018349     0.000080812054
       9       -0.000010278924     0.000012387404     0.000011194614
      10        0.000018942523     0.000001888650    -0.000014774524
      11        0.000019239045     0.000035016174    -0.000000482197
      12        0.000001470609    -0.000006803880    -0.000015119272
      13        0.000005024219    -0.000004457038    -0.000030385595
      14        0.000004170796    -0.000021314714    -0.000005575579
      15       -0.000001631931     0.000015587479     0.000014238294
      16       -0.000006040157    -0.000003220267     0.000003922141
      17        0.000001713176     0.000003157971    -0.000008389672
      18       -0.000004510181    -0.000006796514    -0.000004415226
      19        0.000000530402    -0.000002760944     0.000004336142
      20       -0.000023481500     0.000008990467     0.000001164516
      21        0.000000356120     0.000005940231     0.000002522021

  **** Optimization is complete! (in 6 steps) ****
    Final optimized geometry and variables:
    Molecular point group: c1

    Geometry (in Angstrom), charge = 0, multiplicity = 1:

    H           -2.900308221786     1.956468888815     0.951303237293
    O           -2.162145448472     1.423540576481     0.721036376225
    C           -2.606325376383     0.261690307009     0.067242269833
    C           -1.417907714603    -0.635411583440    -0.332965377678
    H           -3.274695798633    -0.290591179916     0.721309959348
    H           -3.174601659414     0.531941070859    -0.817752767507
    C           -0.039805527692    -0.143033769577     0.107353643763
    H           -1.418567006996    -0.760697326287    -1.410838162238
    H           -1.579660364198    -1.626717598206     0.077791731793
    C            1.069170445483    -1.097357854121    -0.332096064602
    H            0.132633208491     0.845548762993    -0.296560438569
    H           -0.018653131314    -0.036411711578     1.186433637158
    C            2.470882320201    -0.704791500833     0.138440794047
    H            1.068252084675    -1.179272165188    -1.417139228903
    H            0.847131023333    -2.092179513666     0.045517146310
    C            3.006330867265     0.591286033200    -0.465353197641
    H            3.154722513143    -1.511579053907    -0.107998333912
    H            2.474894126548    -0.625170242289     1.222304492734
    H            3.007664395850     0.543782785413    -1.549828381006
    H            2.413840521025     1.449372718470    -0.172756668490
    H            4.025308788081     0.773338513527    -0.142777748441

  Mulliken Charges: (a.u.)
   Center  Symbol    Alpha    Beta     Spin     Total
       1     H     0.40086  0.40086  0.00000  0.19829
       2     O     4.18780  4.18780  0.00000 -0.37561
       3     C     2.96559  2.96559  0.00000  0.06883
       4     C     3.10926  3.10926  0.00000 -0.21853
       5     H     0.47194  0.47194  0.00000  0.05612
       6     H     0.47143  0.47143  0.00000  0.05713
       7     C     3.08437  3.08437  0.00000 -0.16874
       8     H     0.45337  0.45337  0.00000  0.09326
       9     H     0.45335  0.45335  0.00000  0.09331
      10     C     3.09592  3.09592  0.00000 -0.19185
      11     H     0.44578  0.44578  0.00000  0.10844
      12     H     0.44926  0.44926  0.00000  0.10148
      13     C     3.08940  3.08940  0.00000 -0.17880
      14     H     0.45639  0.45639  0.00000  0.08722
      15     H     0.45194  0.45194  0.00000  0.09612
      16     C     3.15268  3.15268  0.00000 -0.30536
      17     H     0.45005  0.45005  0.00000  0.09990
      18     H     0.45510  0.45510  0.00000  0.08979
      19     H     0.45614  0.45614  0.00000  0.08772
      20     H     0.45164  0.45164  0.00000  0.09673
      21     H     0.44772  0.44772  0.00000  0.10455

   Total alpha = 29.00000, Total beta = 29.00000, Total charge = -0.00000
