  ==> Input File <==

--------------------------------------------------------------------------
set {
	reference rhf
	basis 6-31G*
}

set_num_threads( 4 )
memory 2 gb

molecule MOL {
0 1

H	 0.967130	 0.885861	 1.227014
C	 0.265543	 0.058369	 1.207669
N	 -0.528168	 0.128977	 -0.000000
H	 -0.379541	 0.152248	 2.073746
H	 0.839769	 -0.866744	 1.306136
C	 0.248044	 -0.037491	 -1.209632
H	 -1.255213	 -0.557592	 0.032489
H	 0.998722	 0.743888	 -1.266824
H	 -0.398417	 0.061950	 -2.074060
H	 0.763621	 -0.999315	 -1.275517

	symmetry c1
}
set optking {
	frozen_dihedral = ("
		2 3 6 8
	")
}

ee = optimize('scf')
oeprop('DIPOLE', 'QUADRUPOLE', 'MULLIKEN_CHARGES')
f=open( 'psi4out.xyz', 'w' )
f.write( "10  " )
f.write( str(ee) + "\n" )
f.write( MOL.save_string_xyz() )
f.close()
--------------------------------------------------------------------------

    Molecular point group: c1
  Charge       = 0
  Multiplicity = 1
  Basis Set: 6-31G*
  Basis Set:
  @DF-RHF Final Energy:  -134.23872536464503
    Total Energy =                       -134.2387253646451200
    Molecular point group: c1
  Basis Set: 6-31G*
  Basis Set:
  Basis Set: 6-31G*
  Basis Set:
  @DF-RHF Final Energy:  -134.23873210345218
    Total Energy =                       -134.2387321034522074
  Basis Set: 6-31G*
  Basis Set:
  Charge       = 0
  Multiplicity = 1
  Basis Set: 6-31G*
  Basis Set:

    Orbital Energies (a.u.)
    -----------------------

    Doubly Occupied:

       1A    -15.537992     2A    -11.236058     3A    -11.236025
       4A     -1.199434     5A     -0.947807     6A     -0.854359
       7A     -0.662218     8A     -0.611673     9A     -0.591666
      10A     -0.539175    11A     -0.511370    12A     -0.507081
      13A     -0.360969

  @DF-RHF Final Energy:  -134.23873267553694

   => Energetics <=

    Nuclear Repulsion Energy =             84.6550808597152837
    One-Electron Energy =                -348.1959733985873982
    Two-Electron Energy =                 129.3021598633352198
    DFT Exchange-Correlation Energy =       0.0000000000000000
    Empirical Dispersion Energy =           0.0000000000000000
    PCM Polarization Energy =               0.0000000000000000
    EFP Energy =                            0.0000000000000000
    Total Energy =                       -134.2387326755369088
    Molecular point group: c1
  Basis Set: 6-31G*
  Basis Set:

  -Total Gradient:
     Atom            X                  Y                   Z
    ------   -----------------  -----------------  -----------------
       1       -0.000013022121    -0.000002177932    -0.000017725955
       2        0.000175946044     0.000621766655     0.000004261630
       3       -0.000086143307    -0.000990370147     0.000151291644
       4       -0.000016999234     0.000002618700    -0.000020891399
       5       -0.000010506514     0.000005015655    -0.000004049002
       6       -0.000555516412     0.000866232805    -0.000573681684
       7       -0.000029245224    -0.000020357658     0.000017727301
       8        0.000560305427    -0.000507080655     0.000420728802
       9       -0.000021952888    -0.000006838778     0.000019582907
      10       -0.000002865770     0.000031191356     0.000002755755

  **** Optimization is complete! (in 3 steps) ****
    Final optimized geometry and variables:
    Molecular point group: c1

    Geometry (in Angstrom), charge = 0, multiplicity = 1:

    H            0.960629284770     0.852270349134     1.227269469227
    C            0.259109001795     0.024853356333     1.207853953178
    N           -0.534497296610     0.096234522712     0.000363144001
    H           -0.386298909367     0.118854241958     2.073666194917
    H            0.833077558706    -0.900384305796     1.307218740165
    C            0.239887085041    -0.069483351130    -1.210367209203
    H           -1.266626005069    -0.584981001899     0.032249572187
    H            0.990024920739     0.712297882000    -1.266576865058
    H           -0.406795954075     0.024807885958    -2.075122264217
    H            0.761020841091    -1.028579515630    -1.273825588240

  Mulliken Charges: (a.u.)
   Center  Symbol    Alpha    Beta     Spin     Total
       1     H     0.41804  0.41804  0.00000  0.16393
       2     C     3.14507  3.14507  0.00000 -0.29014
       3     N     3.83836  3.83836  0.00000 -0.67672
       4     H     0.41677  0.41677  0.00000  0.16647
       5     H     0.43476  0.43476  0.00000  0.13049
       6     C     3.14508  3.14508  0.00000 -0.29017
       7     H     0.33254  0.33254  0.00000  0.33492
       8     H     0.41839  0.41839  0.00000  0.16322
       9     H     0.41630  0.41630  0.00000  0.16740
      10     H     0.43470  0.43470  0.00000  0.13060

   Total alpha = 13.00000, Total beta = 13.00000, Total charge = -0.00000
