  ==> Input File <==

--------------------------------------------------------------------------
set {
	reference rhf
	basis 6-31G*
}

set_num_threads( 4 )
memory 2 gb

molecule MOL {
0 1

H	 2.591676	 2.013956	 0.335017
O	 3.341076	 1.666752	 -0.126416
C	 3.569581	 0.339145	 0.272707
C	 4.305074	 0.229737	 1.603800
H	 2.590819	 -0.115286	 0.357508
H	 4.111786	 -0.203378	 -0.500896
C	 5.724239	 0.802673	 1.579618
H	 3.718911	 0.738751	 2.364513
H	 4.344227	 -0.821577	 1.884110
C	 6.454868	 0.628992	 2.914097
H	 5.678986	 1.857991	 1.325411
H	 6.298393	 0.314583	 0.791928
C	 7.910775	 1.109260	 2.918374
H	 5.902330	 1.148374	 3.694988
H	 6.439388	 -0.425255	 3.182471
C	 8.091465	 2.620217	 2.748550
H	 8.366793	 0.809249	 3.859574
H	 8.462882	 0.589791	 2.136603
C	 9.551613	 3.062770	 2.864959
H	 7.498735	 3.139405	 3.500365
H	 7.704473	 2.937276	 1.783141
C	 9.735530	 4.569764	 2.689439
H	 9.942491	 2.762407	 3.834745
H	 10.147105	 2.537759	 2.120891
H	 9.177784	 5.122832	 3.439944
H	 10.779979	 4.852074	 2.779233
H	 9.387693	 4.896570	 1.713441

	symmetry c1
}
set optking {
	frozen_dihedral = ("
		4 3 2 1
	")
}

ee = optimize('scf')
oeprop('DIPOLE', 'QUADRUPOLE', 'MULLIKEN_CHARGES')
f=open( 'psi4out.xyz', 'w' )
f.write( "27  " )
f.write( str(ee) + "\n" )
f.write( MOL.save_string_xyz() )
f.close()
--------------------------------------------------------------------------

    Molecular point group: c1
  Charge       = 0
  Multiplicity = 1
  Basis Set: 6-31G*
  Basis Set:
  @DF-RHF Final Energy:  -388.28005808263242
    Total Energy =                       -388.2800580826328769
    Molecular point group: c1
  Basis Set: 6-31G*
  Basis Set:
  Basis Set: 6-31G*
  Basis Set:
  @DF-RHF Final Energy:  -388.28154548012236
    Total Energy =                       -388.2815454801229862
  Basis Set: 6-31G*
  Basis Set:
  Basis Set: 6-31G*
  Basis Set:
  @DF-RHF Final Energy:  -388.28198553203123
    Total Energy =                       -388.2819855320316265
  Basis Set: 6-31G*
  Basis Set:
  Charge       = 0
  Multiplicity = 1
  Basis Set: 6-31G*
  Basis Set:

    Orbital Energies (a.u.)
    -----------------------

    Doubly Occupied:

       1A    -20.553569     2A    -11.267923     3A    -11.214964
       4A    -11.211670     5A    -11.211367     6A    -11.210347
       7A    -11.208731     8A    -11.208415     9A    -11.205476
      10A     -1.359967    11A     -1.089573    12A     -1.057288
      13A     -1.008349    14A     -0.943661    15A     -0.881997
      16A     -0.818103    17A     -0.799202    18A     -0.773448
      19A     -0.686145    20A     -0.649018    21A     -0.639605
      22A     -0.605905    23A     -0.602653    24A     -0.584224
      25A     -0.568719    26A     -0.554261    27A     -0.535136
      28A     -0.519472    29A     -0.510402    30A     -0.489665
      31A     -0.476620    32A     -0.468526    33A     -0.464873
      34A     -0.456379    35A     -0.450872    36A     -0.438237
      37A     -0.419612

  @DF-RHF Final Energy:  -388.28198610655824

   => Energetics <=

    Nuclear Repulsion Energy =            459.7322586614196211
    One-Electron Energy =               -1437.7397438828986651
    Two-Electron Energy =                 589.7254991149205807
    DFT Exchange-Correlation Energy =       0.0000000000000000
    Empirical Dispersion Energy =           0.0000000000000000
    PCM Polarization Energy =               0.0000000000000000
    EFP Energy =                            0.0000000000000000
    Total Energy =                       -388.2819861065585201
    Molecular point group: c1
  Basis Set: 6-31G*
  Basis Set:

  -Total Gradient:
     Atom            X                  Y                   Z
    ------   -----------------  -----------------  -----------------
       1       -0.000929365963    -0.000364316469    -0.000993971779
       2        0.001684278360     0.000232611109     0.001052728912
       3       -0.001379968307    -0.000149485729     0.000531337799
       4        0.000973308860    -0.000106776020    -0.000575665025
       5       -0.000098454243    -0.000025108876    -0.000016196346
       6       -0.000026160099     0.000168047418    -0.000006676489
       7       -0.000079969179     0.000216454935     0.000105132018
       8       -0.000030095043     0.000015848209    -0.000047228596
       9       -0.000091321464    -0.000031019413     0.000024801609
      10       -0.000000369970    -0.000006237259    -0.000078050052
      11       -0.000116259401    -0.000014329236     0.000046917345
      12        0.000021136507     0.000040908614     0.000030257580
      13        0.000043522533    -0.000067199607    -0.000079806306
      14        0.000006645748     0.000077149699    -0.000053245287
      15       -0.000092032916    -0.000009207695     0.000017771591
      16        0.000000207607     0.000014921847    -0.000018522428
      17        0.000018171740    -0.000019178064    -0.000007583161
      18        0.000029713221     0.000014433807    -0.000016690315
      19        0.000003922877    -0.000013947094     0.000015361952
      20       -0.000004636986     0.000012906459    -0.000000189335
      21        0.000067674271     0.000015339610     0.000066639942
      22       -0.000006320178    -0.000001733040    -0.000001421163
      23        0.000006068927    -0.000001351595     0.000000306031
      24       -0.000000402855     0.000001001353    -0.000001832835
      25       -0.000000155326     0.000002734679     0.000000609014
      26        0.000002501356    -0.000000900636     0.000001792873
      27       -0.000001640074    -0.000001567001     0.000003422452

  **** Optimization is complete! (in 4 steps) ****
    Final optimized geometry and variables:
    Molecular point group: c1

    Geometry (in Angstrom), charge = 0, multiplicity = 1:

    H           -3.801917731369     0.380560378090    -1.517469902828
    O           -3.069957291006     0.017040038686    -1.995189030239
    C           -2.896845289758    -1.330565601134    -1.633202348365
    C           -2.158554600229    -1.495566430169    -0.309948857405
    H           -3.856797510109    -1.841723207547    -1.595032192183
    H           -2.324405945045    -1.782209746957    -2.434523434679
    C           -0.753122794111    -0.892874693018    -0.321165603162
    H           -2.747371615487    -1.036737051465     0.484116102921
    H           -2.105881712158    -2.557998243009    -0.076850942639
    C           -0.031256214188    -1.052063439346     1.019490538333
    H           -0.825788981422     0.153882274253    -0.592461881395
    H           -0.166834438552    -1.374572652827    -1.102759665206
    C            1.426502904608    -0.576967940735     1.022583252940
    H           -0.583448746483    -0.518681355569     1.791973862985
    H           -0.051012659454    -2.102144955151     1.305272586288
    C            1.610914035455     0.931462438848     0.836130124993
    H            1.881015607711    -0.868273211042     1.967494333377
    H            1.977690598623    -1.105878386206     0.246594562585
    C            3.072798705439     1.370879838735     0.942018471631
    H            1.023243301225     1.459920032399     1.585767425681
    H            1.219978687110     1.238893989806    -0.130303702093
    C            3.259705639275     2.876042766166     0.754147695002
    H            3.468486117603     1.076690004970     1.911912741857
    H            3.662867115589     0.839083989212     0.198461980546
    H            2.708170702253     3.436138393045     1.504157645544
    H            4.305493564241     3.156424842848     0.835230850842
    H            2.906163042106     3.196217054437    -0.221891172038

  Mulliken Charges: (a.u.)
   Center  Symbol    Alpha    Beta     Spin     Total
       1     H     0.28228  0.28228  0.00000  0.43544
       2     O     4.36875  4.36875  0.00000 -0.73749
       3     C     2.99998  2.99998  0.00000  0.00005
       4     C     3.16323  3.16323  0.00000 -0.32646
       5     H     0.42819  0.42819  0.00000  0.14362
       6     H     0.41694  0.41694  0.00000  0.16612
       7     C     3.15532  3.15532  0.00000 -0.31063
       8     H     0.42748  0.42748  0.00000  0.14504
       9     H     0.42414  0.42414  0.00000  0.15171
      10     C     3.15291  3.15291  0.00000 -0.30582
      11     H     0.40767  0.40767  0.00000  0.18465
      12     H     0.42509  0.42509  0.00000  0.14983
      13     C     3.15283  3.15283  0.00000 -0.30567
      14     H     0.42503  0.42503  0.00000  0.14994
      15     H     0.42385  0.42385  0.00000  0.15230
      16     C     3.15294  3.15294  0.00000 -0.30588
      17     H     0.42293  0.42293  0.00000  0.15414
      18     H     0.42410  0.42410  0.00000  0.15181
      19     C     3.15106  3.15106  0.00000 -0.30212
      20     H     0.42544  0.42544  0.00000  0.14913
      21     H     0.41987  0.41987  0.00000  0.16027
      22     C     3.23910  3.23910  0.00000 -0.47820
      23     H     0.42392  0.42392  0.00000  0.15216
      24     H     0.42325  0.42325  0.00000  0.15350
      25     H     0.42233  0.42233  0.00000  0.15533
      26     H     0.42004  0.42004  0.00000  0.15991
      27     H     0.42134  0.42134  0.00000  0.15731

   Total alpha = 37.00000, Total beta = 37.00000, Total charge =  0.00000
