  ==> Input File <==

--------------------------------------------------------------------------
set {
	reference rhf
	basis 6-31G*
}

set_num_threads( 4 )
memory 2 gb

molecule MOL {
0 1

H	 -3.553071	 0.365936	 0.515587
O	 -3.107695	 -0.256701	 -0.042606
C	 -1.776011	 -0.074204	 -0.005466
C	 -1.184954	 0.917832	 0.771397
C	 -0.993657	 -0.921398	 -0.780225
H	 -1.798576	 1.570251	 1.368998
C	 0.186895	 1.058721	 0.770335
H	 -1.472975	 -1.678779	 -1.370902
C	 0.377042	 -0.768006	 -0.770752
H	 0.656298	 1.819778	 1.364938
C	 0.984182	 0.218375	 0.000000
H	 0.983776	 -1.424269	 -1.370965
C	 2.452467	 0.370529	 0.000000
O	 3.228994	 -0.533774	 0.000000
H	 2.809473	 1.405765	 0.000000

	symmetry c1
}
set optking {
	frozen_dihedral = ("
		7 11 13 14
	")
}

ee = optimize('scf')
oeprop('DIPOLE', 'QUADRUPOLE', 'MULLIKEN_CHARGES')
f=open( 'psi4out.xyz', 'w' )
f.write( "15  " )
f.write( str(ee) + "\n" )
f.write( MOL.save_string_xyz() )
f.close()
--------------------------------------------------------------------------

    Molecular point group: c1
  Charge       = 0
  Multiplicity = 1
  Basis Set: 6-31G*
  Basis Set:
  @DF-RHF Final Energy:  -418.28311259369030
    Total Energy =                       -418.2831125936904755
    Molecular point group: c1
  Basis Set: 6-31G*
  Basis Set:
  Basis Set: 6-31G*
  Basis Set:
  @DF-RHF Final Energy:  -418.28242870110995
    Total Energy =                       -418.2824287011094384
  Basis Set: 6-31G*
  Basis Set:
  Basis Set: 6-31G*
  Basis Set:
  @DF-RHF Final Energy:  -418.28394804994525
    Total Energy =                       -418.2839480499451383
  Basis Set: 6-31G*
  Basis Set:
  Basis Set: 6-31G*
  Basis Set:
  @DF-RHF Final Energy:  -418.28425808633625
    Total Energy =                       -418.2842580863358535
  Basis Set: 6-31G*
  Basis Set:
  Basis Set: 6-31G*
  Basis Set:
  @DF-RHF Final Energy:  -418.28426443545163
    Total Energy =                       -418.2842644354511776
  Basis Set: 6-31G*
  Basis Set:
  Basis Set: 6-31G*
  Basis Set:
  @DF-RHF Final Energy:  -418.28426632548172
    Total Energy =                       -418.2842663254816671
  Basis Set: 6-31G*
  Basis Set:
  Charge       = 0
  Multiplicity = 1
  Basis Set: 6-31G*
  Basis Set:

    Orbital Energies (a.u.)
    -----------------------

    Doubly Occupied:

       1A    -20.608646     2A    -20.560649     3A    -11.330031
       4A    -11.320598     5A    -11.261652     6A    -11.253341
       7A    -11.244519     8A    -11.240431     9A    -11.237037
      10A     -1.429335    11A     -1.400956    12A     -1.169736
      13A     -1.041541    14A     -1.036173    15A     -0.891999
      16A     -0.858061    17A     -0.802768    18A     -0.755300
      19A     -0.696922    20A     -0.684553    21A     -0.641570
      22A     -0.626774    23A     -0.607773    24A     -0.605911
      25A     -0.586310    26A     -0.558317    27A     -0.540581
      28A     -0.505545    29A     -0.485790    30A     -0.419921
      31A     -0.355889    32A     -0.325693

  @DF-RHF Final Energy:  -418.28426638347855

   => Energetics <=

    Nuclear Repulsion Energy =            401.2874145703412978
    One-Electron Energy =               -1364.9747205455246331
    Two-Electron Energy =                 545.4030395917045553
    DFT Exchange-Correlation Energy =       0.0000000000000000
    Empirical Dispersion Energy =           0.0000000000000000
    PCM Polarization Energy =               0.0000000000000000
    EFP Energy =                            0.0000000000000000
    Total Energy =                       -418.2842663834787800
    Molecular point group: c1
  Basis Set: 6-31G*
  Basis Set:

  -Total Gradient:
     Atom            X                  Y                   Z
    ------   -----------------  -----------------  -----------------
       1        0.000015707222    -0.000003759599    -0.000002862616
       2       -0.000005286940    -0.000031411248     0.000031698477
       3       -0.000009061076     0.000062773578    -0.000117553818
       4        0.000040129898     0.000031949120     0.000005900471
       5       -0.000032113518    -0.000030256847     0.000086098233
       6       -0.000002910021    -0.000000701577     0.000000598696
       7        0.000040599997    -0.004600818453     0.004885320526
       8        0.000005919016    -0.000002855784    -0.000006705483
       9        0.000001640721     0.000096466334    -0.000110761664
      10       -0.000009163069     0.000061848979    -0.000031860994
      11       -0.000281029447     0.006288759780    -0.003401659948
      12       -0.000000359567    -0.000022004306     0.000037431433
      13        0.000578535859    -0.001389988237    -0.009345236892
      14       -0.000360604696    -0.000461347110     0.007975372570
      15        0.000017995608     0.000001345372    -0.000005778990

  **** Optimization is complete! (in 7 steps) ****
    Final optimized geometry and variables:
    Molecular point group: c1

    Geometry (in Angstrom), charge = 0, multiplicity = 1:

    H           -3.547575238455     0.341998404060     0.569281325993
    O           -3.102927634520    -0.272092502354     0.001403074475
    C           -1.772494687582    -0.067699574299     0.016012203004
    C           -1.181372895504     0.930097264893     0.775121078509
    C           -0.990144184997    -0.911472928512    -0.768941010467
    H           -1.786060534122     1.571507730710     1.393080508849
    C            0.193305549129     1.093942011453     0.732908376636
    H           -1.471606426372    -1.682480269502    -1.340397960219
    C            0.376085808517    -0.752196272141    -0.781890379128
    H            0.646716356461     1.874523020274     1.319684619247
    C            0.982994890183     0.271788335769    -0.053827894051
    H            0.990650879876    -1.417699017644    -1.359371528340
    C            2.460395810285     0.373278499059     0.019354475790
    O            3.197035072917    -0.561899303886    -0.003039602574
    H            2.855485561228     1.382727497373     0.173145751190

  Mulliken Charges: (a.u.)
   Center  Symbol    Alpha    Beta     Spin     Total
       1     H     0.26927  0.26927  0.00000  0.46146
       2     O     4.37353  4.37353  0.00000 -0.74706
       3     C     2.78708  2.78708  0.00000  0.42584
       4     C     3.14680  3.14680  0.00000 -0.29360
       5     C     3.12579  3.12579  0.00000 -0.25158
       6     H     0.39937  0.39937  0.00000  0.20127
       7     C     3.09342  3.09342  0.00000 -0.18684
       8     H     0.38589  0.38589  0.00000  0.22822
       9     C     3.08052  3.08052  0.00000 -0.16104
      10     H     0.39114  0.39114  0.00000  0.21772
      11     C     3.05721  3.05721  0.00000 -0.11442
      12     H     0.37994  0.37994  0.00000  0.24013
      13     C     2.84266  2.84266  0.00000  0.31468
      14     O     4.24075  4.24075  0.00000 -0.48149
      15     H     0.42664  0.42664  0.00000  0.14672

   Total alpha = 32.00000, Total beta = 32.00000, Total charge =  0.00000
