  ==> Input File <==

--------------------------------------------------------------------------
set {
	reference rhf
	basis 6-31G*
}

set_num_threads( 4 )
memory 2 gb

molecule MOL {
0 1

O	 -2.042549	 -1.228399	 -0.269030
C	 -1.653912	 -0.146171	 0.050137
C	 -0.332303	 0.024011	 0.778412
C	 -2.438579	 1.106236	 -0.272369
C	 0.544965	 1.078355	 0.085136
H	 -0.501332	 0.306447	 1.813807
H	 0.175194	 -0.934240	 0.767308
C	 1.900424	 1.259223	 0.770007
H	 0.024003	 2.033977	 0.063492
H	 0.692048	 0.780695	 -0.948744
C	 2.778418	 2.300674	 0.077394
H	 1.745771	 1.548223	 1.807305
H	 2.420352	 0.304361	 0.791929
H	 2.299471	 3.275662	 0.069676
H	 2.977373	 2.022041	 -0.953248
H	 3.733428	 2.405552	 0.582352
H	 -3.277823	 0.863061	 -0.908988
H	 -1.806773	 1.843019	 -0.759671
H	 -2.802853	 1.554979	 0.648059

	symmetry c1
}
set optking {
	frozen_dihedral = ("
		5 3 2 4
	")
}

ee = optimize('scf')
oeprop('DIPOLE', 'QUADRUPOLE', 'MULLIKEN_CHARGES')
f=open( 'psi4out.xyz', 'w' )
f.write( "19  " )
f.write( str(ee) + "\n" )
f.write( MOL.save_string_xyz() )
f.close()
--------------------------------------------------------------------------

    Molecular point group: c1
  Charge       = 0
  Multiplicity = 1
  Basis Set: 6-31G*
  Basis Set:
  @DF-RHF Final Energy:  -309.06178545603910
    Total Energy =                       -309.0617854560393880
    Molecular point group: c1
  Basis Set: 6-31G*
  Basis Set:
  Basis Set: 6-31G*
  Basis Set:
  @DF-RHF Final Energy:  -309.06337210453495
    Total Energy =                       -309.0633721045352900
  Basis Set: 6-31G*
  Basis Set:
  Basis Set: 6-31G*
  Basis Set:
  @DF-RHF Final Energy:  -309.06412711505482
    Total Energy =                       -309.0641271150548164
  Basis Set: 6-31G*
  Basis Set:
  Basis Set: 6-31G*
  Basis Set:
  @DF-RHF Final Energy:  -309.06428644463620
    Total Energy =                       -309.0642864446359681
  Basis Set: 6-31G*
  Basis Set:
  @DF-RHF Final Energy:  -309.06435171383924
    Total Energy =                       -309.0643517138393577
  @DF-RHF Final Energy:  -309.06444149590743
    Total Energy =                       -309.0644414959069763
  @DF-RHF Final Energy:  -309.06451480605136
    Total Energy =                       -309.0645148060515908
  @DF-RHF Final Energy:  -309.06441724492328
    Total Energy =                       -309.0644172449234475
  Basis Set: 6-31G*
  Basis Set:
  @DF-RHF Final Energy:  -309.06454212598311
    Total Energy =                       -309.0645421259831664
  Basis Set: 6-31G*
  Basis Set:
  Basis Set: 6-31G*
  Basis Set:
  @DF-RHF Final Energy:  -309.06454516377880
    Total Energy =                       -309.0645451637788597
  Basis Set: 6-31G*
  Basis Set:
  Basis Set: 6-31G*
  Basis Set:
  @DF-RHF Final Energy:  -309.06454791349955
    Total Energy =                       -309.0645479134998936
  Basis Set: 6-31G*
  Basis Set:
  Charge       = 0
  Multiplicity = 1
  Basis Set: 6-31G*
  Basis Set:

    Orbital Energies (a.u.)
    -----------------------

    Doubly Occupied:

       1A    -20.547695     2A    -11.324724     3A    -11.233094
       4A    -11.230247     5A    -11.227576     6A    -11.227019
       7A    -11.217172     8A     -1.393148     9A     -1.094592
      10A     -1.029160    11A     -0.982038    12A     -0.894634
      13A     -0.810085    14A     -0.732671    15A     -0.663934
      16A     -0.646252    17A     -0.626382    18A     -0.613163
      19A     -0.583175    20A     -0.574736    21A     -0.554614
      22A     -0.532788    23A     -0.513146    24A     -0.499600
      25A     -0.485830    26A     -0.478566    27A     -0.471619
      28A     -0.397173

  @DF-RHF Final Energy:  -309.06454787726852

   => Energetics <=

    Nuclear Repulsion Energy =            301.1020896585253013
    One-Electron Energy =               -1015.1636102589784514
    Two-Electron Energy =                 404.9969727231846264
    DFT Exchange-Correlation Energy =       0.0000000000000000
    Empirical Dispersion Energy =           0.0000000000000000
    PCM Polarization Energy =               0.0000000000000000
    EFP Energy =                            0.0000000000000000
    Total Energy =                       -309.0645478772685237
    Molecular point group: c1
  Basis Set: 6-31G*
  Basis Set:

  -Total Gradient:
     Atom            X                  Y                   Z
    ------   -----------------  -----------------  -----------------
       1       -0.000002959245    -0.000000256894    -0.000003934642
       2       -0.000473011181     0.000079895824     0.000889960410
       3        0.000456784963    -0.000514460317    -0.000704055221
       4        0.000263465951     0.000051216383    -0.000504047084
       5       -0.000228276312     0.000374641613     0.000318338581
       6       -0.000006153769    -0.000001951906    -0.000003743357
       7       -0.000008536845    -0.000005532867     0.000003649939
       8       -0.000008490327     0.000015282084     0.000011328221
       9       -0.000003281510    -0.000001633300     0.000007119734
      10        0.000007918404     0.000011284450    -0.000010317215
      11        0.000007176537    -0.000010993030    -0.000010294197
      12       -0.000000942264     0.000006983452     0.000001071413
      13       -0.000008086916     0.000000509567     0.000006042090
      14        0.000000918972    -0.000002531683     0.000005462205
      15       -0.000001212084     0.000004695777    -0.000004524631
      16        0.000002485438    -0.000004121032    -0.000004146426
      17       -0.000000078638    -0.000004207843     0.000000507884
      18        0.000000499672     0.000001202308     0.000000731587
      19        0.000001779155    -0.000000022579     0.000000850710

  **** Optimization is complete! (in 12 steps) ****
    Final optimized geometry and variables:
    Molecular point group: c1

    Geometry (in Angstrom), charge = 0, multiplicity = 1:

    O           -1.863862343508    -1.889571248286    -0.424162322168
    C           -1.491687144495    -0.792696960692    -0.136815837513
    C           -0.158764469666    -0.574812364661     0.557079745647
    C           -2.340674005094     0.423321784057    -0.447050949885
    C            0.736756499445     0.491892860924    -0.085893661757
    H           -0.370021560647    -0.290221653020     1.587513932386
    H            0.344387756821    -1.533791122832     0.583701128453
    C            2.094481670783     0.605702807635     0.610016809097
    H            0.242653859487     1.459599988281    -0.060474441058
    H            0.892102393114     0.250546523797    -1.135646757145
    C            2.997780790629     1.663950999790    -0.021593211985
    H            1.940644712343     0.841101259613     1.660896907661
    H            2.593752808828    -0.359707806801     0.582575354197
    H            2.540528967040     2.648351927653     0.022921027582
    H            3.195691770053     1.438216775754    -1.065459968025
    H            3.952656976227     1.719711485455     0.491200795780
    H           -3.342156167805     0.104410857054    -0.700533883371
    H           -1.920305055007     0.960973179023    -1.291916577412
    H           -2.372569654763     1.110691741839     0.392397209151

  Mulliken Charges: (a.u.)
   Center  Symbol    Alpha    Beta     Spin     Total
       1     O     4.26164  4.26164  0.00000 -0.52329
       2     C     2.73158  2.73158  0.00000  0.53684
       3     C     3.20667  3.20667  0.00000 -0.41334
       4     C     3.29113  3.29113  0.00000 -0.58225
       5     C     3.16343  3.16343  0.00000 -0.32687
       6     H     0.41061  0.41061  0.00000  0.17877
       7     H     0.39889  0.39889  0.00000  0.20223
       8     C     3.15183  3.15183  0.00000 -0.30366
       9     H     0.41893  0.41893  0.00000  0.16215
      10     H     0.41582  0.41582  0.00000  0.16836
      11     C     3.24025  3.24025  0.00000 -0.48051
      12     H     0.42122  0.42122  0.00000  0.15757
      13     H     0.41835  0.41835  0.00000  0.16331
      14     H     0.42118  0.42118  0.00000  0.15765
      15     H     0.41981  0.41981  0.00000  0.16038
      16     H     0.41665  0.41665  0.00000  0.16669
      17     H     0.39599  0.39599  0.00000  0.20802
      18     H     0.40428  0.40428  0.00000  0.19145
      19     H     0.41175  0.41175  0.00000  0.17650

   Total alpha = 28.00000, Total beta = 28.00000, Total charge = -0.00000
