  ==> Input File <==

--------------------------------------------------------------------------
set {
	reference rhf
	basis 6-31G*
}

set_num_threads( 1 )
memory 2 gb

molecule MOL {
0 1

O	 -1.276010	 1.052711	 -0.768302
C	 -1.204840	 0.067374	 -0.106123
C	 -2.388195	 -0.672128	 0.458071
O	 -0.067104	 -0.527208	 0.221609
H	 -2.388023	 -1.694060	 0.097175
H	 -3.300579	 -0.174919	 0.164318
H	 -2.315377	 -0.706351	 1.539059
C	 -0.092672	 -1.900882	 0.634276
C	 1.132669	 -2.096159	 1.509486
C	 -0.101206	 -2.804646	 -0.588746
H	 -0.992618	 -2.057459	 1.210548
H	 1.107381	 -1.423500	 2.359273
H	 1.168779	 -3.115360	 1.879968
H	 2.040091	 -1.903006	 0.947408
H	 -0.097300	 -3.846091	 -0.283143
H	 -0.986335	 -2.631887	 -1.187642
H	 0.777652	 -2.624321	 -1.199565

	symmetry c1
}
set optking {
	frozen_dihedral = ("
		11 8 4 2
	")
}

ee = energy('scf')
oeprop('DIPOLE', 'QUADRUPOLE', 'MULLIKEN_CHARGES')
f=open( 'psi4out.xyz', 'w' )
f.write( "17  " )
f.write( str(ee) + "\n" )
f.write( MOL.save_string_xyz() )
f.close()
--------------------------------------------------------------------------

    Molecular point group: c1

    Geometry (in Angstrom), charge = 0, multiplicity = 1:

       Center              X                  Y                   Z               Mass
    ------------   -----------------  -----------------  -----------------  -----------------
           O         -0.704241929215     2.040353327842    -0.961407536043    15.994914619560
           C         -0.633071929215     1.055016327842    -0.299228536043    12.000000000000
           C         -1.816426929215     0.315514327842     0.264965463957    12.000000000000
           O          0.504664070785     0.460434327842     0.028503463957    15.994914619560
           H         -1.816254929215    -0.706417672158    -0.095930536043     1.007825032070
           H         -2.728810929215     0.812723327842    -0.028787536043     1.007825032070
           H         -1.743608929215     0.281291327842     1.345953463957     1.007825032070
           C          0.479096070785    -0.913239672158     0.441170463957    12.000000000000
           C          1.704437070785    -1.108516672158     1.316380463957    12.000000000000
           C          0.470562070785    -1.817003672158    -0.781851536043    12.000000000000
           H         -0.420849929215    -1.069816672158     1.017442463957     1.007825032070
           H          1.679149070785    -0.435857672158     2.166167463957     1.007825032070
           H          1.740547070785    -2.127717672158     1.686862463957     1.007825032070
           H          2.611859070785    -0.915363672158     0.754302463957     1.007825032070
           H          0.474468070785    -2.858448672158    -0.476248536043     1.007825032070
           H         -0.414566929215    -1.644244672158    -1.380747536043     1.007825032070
           H          1.349420070785    -1.636678672158    -1.392670536043     1.007825032070

  Charge       = 0
  Multiplicity = 1
  Basis Set: 6-31G*
  Basis Set:

    Orbital Energies (a.u.)
    -----------------------

    Doubly Occupied:

       1A    -20.599864     2A    -20.542541     3A    -11.376116
       4A    -11.304263     5A    -11.237818     6A    -11.232381
       7A    -11.227757     8A     -1.463485     9A     -1.366808
      10A     -1.081128    11A     -1.024481    12A     -0.960777
      13A     -0.861863    14A     -0.774905    15A     -0.704940
      16A     -0.672391    17A     -0.666883    18A     -0.630448
      19A     -0.598308    20A     -0.576948    21A     -0.568040
      22A     -0.557872    23A     -0.548526    24A     -0.529076
      25A     -0.510722    26A     -0.496526    27A     -0.444131
      28A     -0.430703

  @DF-RHF Final Energy:  -344.88599473315736

   => Energetics <=

    Nuclear Repulsion Energy =            326.3525612648855372
    One-Electron Energy =               -1116.4977496490425892
    Two-Electron Energy =                 445.2591936510004302
    DFT Exchange-Correlation Energy =       0.0000000000000000
    Empirical Dispersion Energy =           0.0000000000000000
    PCM Polarization Energy =               0.0000000000000000
    EFP Energy =                            0.0000000000000000
    Total Energy =                       -344.8859947331566786

  Mulliken Charges: (a.u.)
   Center  Symbol    Alpha    Beta     Spin     Total
       1     O     4.27159  4.27159  0.00000 -0.54319
       2     C     2.60161  2.60161  0.00000  0.79678
       3     C     3.32553  3.32553  0.00000 -0.65106
       4     O     4.30659  4.30659  0.00000 -0.61317
       5     H     0.40120  0.40120  0.00000  0.19761
       6     H     0.38934  0.38934  0.00000  0.22132
       7     H     0.39824  0.39824  0.00000  0.20352
       8     C     2.94270  2.94270  0.00000  0.11461
       9     C     3.23831  3.23831  0.00000 -0.47662
      10     C     3.24460  3.24460  0.00000 -0.48920
      11     H     0.40903  0.40903  0.00000  0.18195
      12     H     0.40965  0.40965  0.00000  0.18070
      13     H     0.41862  0.41862  0.00000  0.16276
      14     H     0.40816  0.40816  0.00000  0.18369
      15     H     0.41554  0.41554  0.00000  0.16891
      16     H     0.41484  0.41484  0.00000  0.17032
      17     H     0.40445  0.40445  0.00000  0.19110

   Total alpha = 28.00000, Total beta = 28.00000, Total charge =  0.00000
