  ==> Input File <==

--------------------------------------------------------------------------
set {
	reference rhf
	basis 6-31G*
}

set_num_threads( 1 )
memory 2 gb

molecule MOL {
0 1

O	 -1.028570	 -0.329247	 2.377651
C	 -1.171982	 0.386528	 1.439903
C	 -1.982480	 1.654375	 1.437971
O	 -0.632575	 0.154573	 0.251549
H	 -2.771647	 1.583428	 0.698289
H	 -2.407076	 1.814738	 2.417685
H	 -1.351164	 2.492056	 1.165046
C	 0.160891	 -1.019931	 0.106212
C	 1.589627	 -0.672828	 0.480843
H	 0.089836	 -1.367806	 -0.916050
H	 -0.238459	 -1.792301	 0.749618
C	 2.246377	 0.346236	 -0.452210
H	 2.163194	 -1.597435	 0.473358
H	 1.604769	 -0.303424	 1.502885
C	 3.691736	 0.652107	 -0.061850
H	 2.219579	 -0.032311	 -1.472055
H	 1.666466	 1.263317	 -0.447249
H	 4.134505	 1.377213	 -0.737283
H	 4.305508	 -0.243868	 -0.089969
H	 3.748266	 1.059562	 0.943567

	symmetry c1
}
set optking {
	frozen_dihedral = ("
		16 12 9 8,
		12 9 8 10,
		1 2 4 8
	")
}

ee = energy('scf')
oeprop('DIPOLE', 'QUADRUPOLE', 'MULLIKEN_CHARGES')
f=open( 'psi4out.xyz', 'w' )
f.write( "20  " )
f.write( str(ee) + "\n" )
f.write( MOL.save_string_xyz() )
f.close()
--------------------------------------------------------------------------

    Molecular point group: c1

    Geometry (in Angstrom), charge = 0, multiplicity = 1:

       Center              X                  Y                   Z               Mass
    ------------   -----------------  -----------------  -----------------  -----------------
           O         -1.382684565966    -0.481295857534     1.673110817807    15.994914619560
           C         -1.526096565966     0.234479142466     0.735362817807    12.000000000000
           C         -2.336594565966     1.502326142466     0.733430817807    12.000000000000
           O         -0.986689565966     0.002524142466    -0.452991182193    15.994914619560
           H         -3.125761565966     1.431379142466    -0.006251182193     1.007825032070
           H         -2.761190565966     1.662689142466     1.713144817807     1.007825032070
           H         -1.705278565966     2.340007142466     0.460505817807     1.007825032070
           C         -0.193223565966    -1.171979857534    -0.598328182193    12.000000000000
           C          1.235512434034    -0.824876857534    -0.223697182193    12.000000000000
           H         -0.264278565966    -1.519854857534    -1.620590182193     1.007825032070
           H         -0.592573565966    -1.944349857534     0.045077817807     1.007825032070
           C          1.892262434034     0.194187142466    -1.156750182193    12.000000000000
           H          1.809079434034    -1.749483857534    -0.231182182193     1.007825032070
           H          1.250654434034    -0.455472857534     0.798344817807     1.007825032070
           C          3.337621434034     0.500058142466    -0.766390182193    12.000000000000
           H          1.865464434034    -0.184359857534    -2.176595182193     1.007825032070
           H          1.312351434034     1.111268142466    -1.151789182193     1.007825032070
           H          3.780390434034     1.225164142466    -1.441823182193     1.007825032070
           H          3.951393434034    -0.395916857534    -0.794509182193     1.007825032070
           H          3.394151434034     0.907513142466     0.239026817807     1.007825032070

  Charge       = 0
  Multiplicity = 1
  Basis Set: 6-31G*
  Basis Set:

    Orbital Energies (a.u.)
    -----------------------

    Doubly Occupied:

       1A    -20.601491     2A    -20.544658     3A    -11.376383
       4A    -11.281165     5A    -11.234289     6A    -11.219751
       7A    -11.218704     8A    -11.211701     9A     -1.469189
      10A     -1.363142    11A     -1.082745    12A     -1.028601
      13A     -0.979058    14A     -0.884905    15A     -0.816479
      16A     -0.757101    17A     -0.698684    18A     -0.686714
      19A     -0.661388    20A     -0.629573    21A     -0.595664
      22A     -0.595160    23A     -0.570157    24A     -0.566065
      25A     -0.537307    26A     -0.525313    27A     -0.515420
      28A     -0.490465    29A     -0.472997    30A     -0.463805
      31A     -0.443957    32A     -0.438885

  @DF-RHF Final Energy:  -383.94319286193610

   => Energetics <=

    Nuclear Repulsion Energy =            392.3349008306711880
    One-Electron Energy =               -1300.6342914930553434
    Two-Electron Energy =                 524.3561978004472621
    DFT Exchange-Correlation Energy =       0.0000000000000000
    Empirical Dispersion Energy =           0.0000000000000000
    PCM Polarization Energy =               0.0000000000000000
    EFP Energy =                            0.0000000000000000
    Total Energy =                       -383.9431928619369501

  Mulliken Charges: (a.u.)
   Center  Symbol    Alpha    Beta     Spin     Total
       1     O     4.28438  4.28438  0.00000 -0.56876
       2     C     2.61965  2.61965  0.00000  0.76071
       3     C     3.28184  3.28184  0.00000 -0.56369
       4     O     4.30680  4.30680  0.00000 -0.61360
       5     H     0.39973  0.39973  0.00000  0.20054
       6     H     0.39684  0.39684  0.00000  0.20633
       7     H     0.40079  0.40079  0.00000  0.19843
       8     C     3.01459  3.01459  0.00000 -0.02918
       9     C     3.16747  3.16747  0.00000 -0.33494
      10     H     0.41003  0.41003  0.00000  0.17994
      11     H     0.39701  0.39701  0.00000  0.20598
      12     C     3.15369  3.15369  0.00000 -0.30739
      13     H     0.42106  0.42106  0.00000  0.15788
      14     H     0.40727  0.40727  0.00000  0.18546
      15     C     3.23985  3.23985  0.00000 -0.47969
      16     H     0.42399  0.42399  0.00000  0.15201
      17     H     0.41495  0.41495  0.00000  0.17011
      18     H     0.41827  0.41827  0.00000  0.16345
      19     H     0.42140  0.42140  0.00000  0.15720
      20     H     0.42040  0.42040  0.00000  0.15921

   Total alpha = 32.00000, Total beta = 32.00000, Total charge =  0.00000
