  ==> Input File <==

--------------------------------------------------------------------------
set {
	reference rhf
	basis cc-pvtz
}

set_num_threads( 4 )
memory 2 gb

molecule MOL {
0 1

H	 -2.445658	 0.112595	 0.935950
O	 -2.041679	 -0.058866	 0.103463
C	 -0.959304	 0.780994	 -0.094939
C	 0.354905	 0.037902	 -0.006215
H	 -0.985899	 1.279578	 -1.057596
H	 -0.969809	 1.529522	 0.682889
F	 0.412060	 -0.931028	 -0.902708
F	 1.359641	 0.856111	 -0.239961
F	 0.545380	 -0.506387	 1.171682

	symmetry c1
}
set optking {
	frozen_dihedral = ("
		1 2 3 5
	")
}

ee = optimize('scf')
oeprop('DIPOLE', 'QUADRUPOLE', 'MULLIKEN_CHARGES')
f=open( 'psi4out.xyz', 'w' )
f.write( "9  " )
f.write( str(ee) + "\n" )
f.write( MOL.save_string_xyz() )
f.close()
--------------------------------------------------------------------------

    Molecular point group: c1
  Charge       = 0
  Multiplicity = 1
  Basis Set: CC-PVTZ
  Basis Set:
  @DF-RHF Final Energy:  -450.84390480358320
    Total Energy =                       -450.8439048035834276
    Molecular point group: c1
  Basis Set: CC-PVTZ
  Basis Set:
  Basis Set: CC-PVTZ
  Basis Set:
  @DF-RHF Final Energy:  -450.84506371898544
    Total Energy =                       -450.8450637189853865
  Basis Set: CC-PVTZ
  Basis Set:
  Basis Set: CC-PVTZ
  Basis Set:
  @DF-RHF Final Energy:  -450.84528842394121
    Total Energy =                       -450.8452884239409855
  Basis Set: CC-PVTZ
  Basis Set:
  Basis Set: CC-PVTZ
  Basis Set:
  @DF-RHF Final Energy:  -450.84529767725991
    Total Energy =                       -450.8452976772601346
  Basis Set: CC-PVTZ
  Basis Set:
  Basis Set: CC-PVTZ
  Basis Set:
  @DF-RHF Final Energy:  -450.84529901421058
    Total Energy =                       -450.8452990142105818
  Basis Set: CC-PVTZ
  Basis Set:
  Charge       = 0
  Multiplicity = 1
  Basis Set: CC-PVTZ
  Basis Set:

    Orbital Energies (a.u.)
    -----------------------

    Doubly Occupied:

       1A    -26.334807     2A    -26.332876     3A    -26.331059
       4A    -20.582886     5A    -11.489610     6A    -11.310279
       7A     -1.742831     8A     -1.639412     9A     -1.637991
      10A     -1.406189    11A     -1.049983    12A     -0.925556
      13A     -0.833534    14A     -0.832105    15A     -0.797195
      16A     -0.741292    17A     -0.714073    18A     -0.704311
      19A     -0.669184    20A     -0.659778    21A     -0.643973
      22A     -0.636706    23A     -0.603864    24A     -0.535680
      25A     -0.483669

  @DF-RHF Final Energy:  -450.84529914639825

   => Energetics <=

    Nuclear Repulsion Energy =            277.4430230597486116
    One-Electron Energy =               -1177.2989616591744380
    Two-Electron Energy =                 449.0106394530275224
    DFT Exchange-Correlation Energy =       0.0000000000000000
    Empirical Dispersion Energy =           0.0000000000000000
    PCM Polarization Energy =               0.0000000000000000
    EFP Energy =                            0.0000000000000000
    Total Energy =                       -450.8452991463983039
    Molecular point group: c1
  Basis Set: CC-PVTZ
  Basis Set:

  -Total Gradient:
     Atom            X                  Y                   Z
    ------   -----------------  -----------------  -----------------
       1       -0.001157769920     0.001240303635    -0.000836845186
       2        0.001191121652    -0.001235419077     0.001235293586
       3        0.000819334386    -0.001241039084    -0.001049913749
       4       -0.000004037153    -0.000028950418     0.000006152112
       5       -0.000855286285     0.001236867989     0.000643279009
       6        0.000008179798    -0.000007027183     0.000000380335
       7       -0.000011022200     0.000002486492    -0.000006644357
       8        0.000007116384     0.000009070281     0.000013995354
       9        0.000002363343     0.000023707368    -0.000005697104

  **** Optimization is complete! (in 6 steps) ****
    Final optimized geometry and variables:
    Molecular point group: c1

    Geometry (in Angstrom), charge = 0, multiplicity = 1:

    H           -2.446266458498     0.087263318337     0.909393183654
    O           -2.025027980851    -0.076429763920     0.087109366189
    C           -0.952717042852     0.783274390313    -0.101745607570
    C            0.353381508758     0.026147570615    -0.030072681119
    H           -1.020491604808     1.248183445585    -1.075972840098
    H           -0.907993559767     1.567665730766     0.643569166715
    F            0.425933591403    -0.924662235351    -0.930788815919
    F            1.361566823554     0.851899352671    -0.235609080625
    F            0.528018407399    -0.528151062103     1.151017162935

  Mulliken Charges: (a.u.)
   Center  Symbol    Alpha    Beta     Spin     Total
       1     H     0.38554  0.38554  0.00000  0.22892
       2     O     4.19213  4.19213  0.00000 -0.38426
       3     C     2.99301  2.99301  0.00000  0.01399
       4     C     2.67776  2.67776  0.00000  0.64449
       5     H     0.45362  0.45362  0.00000  0.09276
       6     H     0.46213  0.46213  0.00000  0.07573
       7     F     4.60776  4.60776  0.00000 -0.21553
       8     F     4.61447  4.61447  0.00000 -0.22894
       9     F     4.61358  4.61358  0.00000 -0.22715

   Total alpha = 25.00000, Total beta = 25.00000, Total charge = -0.00000
