  ==> Input File <==

--------------------------------------------------------------------------
set {
	reference rhf
	basis 6-31G*
}

set_num_threads( 4 )
memory 2 gb

molecule MOL {
0 1

O	 -0.291628	 1.323815	 -0.000732
C	 -0.449655	 0.146360	 0.000961
C	 -1.783294	 -0.549321	 -0.000296
O	 0.550821	 -0.724572	 0.000672
H	 -1.863538	 -1.185371	 -0.874187
H	 -2.574672	 0.185258	 -0.002793
H	 -1.866414	 -1.182381	 0.875436
C	 0.316008	 -1.971535	 -0.628793
H	 -0.497598	 -2.493207	 -0.145824
H	 1.232698	 -2.530877	 -0.526011
H	 0.077978	 -1.830417	 -1.673192

	symmetry c1
}
set optking {
	frozen_dihedral = ("
		8 4 2 1
	")
}

ee = optimize('scf')
oeprop('DIPOLE', 'QUADRUPOLE', 'MULLIKEN_CHARGES')
f=open( 'psi4out.xyz', 'w' )
f.write( "11  " )
f.write( str(ee) + "\n" )
f.write( MOL.save_string_xyz() )
f.close()
--------------------------------------------------------------------------

    Molecular point group: c1
  Charge       = 0
  Multiplicity = 1
  Basis Set: 6-31G*
  Basis Set:
  @DF-RHF Final Energy:  -266.81173963256197
    Total Energy =                       -266.8117396325618529
    Molecular point group: c1
  Basis Set: 6-31G*
  Basis Set:
  Basis Set: 6-31G*
  Basis Set:
  @DF-RHF Final Energy:  -266.81198411520683
    Total Energy =                       -266.8119841152068830
  Basis Set: 6-31G*
  Basis Set:
  Basis Set: 6-31G*
  Basis Set:
  @DF-RHF Final Energy:  -266.81784691435382
    Total Energy =                       -266.8178469143539360
  Basis Set: 6-31G*
  Basis Set:
  Basis Set: 6-31G*
  Basis Set:
  @DF-RHF Final Energy:  -266.81912361335822
    Total Energy =                       -266.8191236133583288
  Basis Set: 6-31G*
  Basis Set:
  @DF-RHF Final Energy:  -266.81873160266269
    Total Energy =                       -266.8187316026628082
  Basis Set: 6-31G*
  Basis Set:
  @DF-RHF Final Energy:  -266.81976820288276
    Total Energy =                       -266.8197682028825284
  Basis Set: 6-31G*
  Basis Set:
  Basis Set: 6-31G*
  Basis Set:
  @DF-RHF Final Energy:  -266.81979059542584
    Total Energy =                       -266.8197905954257294
  Basis Set: 6-31G*
  Basis Set:
  Basis Set: 6-31G*
  Basis Set:
  @DF-RHF Final Energy:  -266.81979243576404
    Total Energy =                       -266.8197924357639295
  Basis Set: 6-31G*
  Basis Set:
  Charge       = 0
  Multiplicity = 1
  Basis Set: 6-31G*
  Basis Set:

    Orbital Energies (a.u.)
    -----------------------

    Doubly Occupied:

       1A    -20.601030     2A    -20.545137     3A    -11.378507
       4A    -11.298229     5A    -11.244028     6A     -1.464357
       7A     -1.368462     8A     -1.022842     9A     -0.982950
      10A     -0.783762    11A     -0.698010    12A     -0.685286
      13A     -0.678246    14A     -0.607910    15A     -0.593096
      16A     -0.578617    17A     -0.546665    18A     -0.509340
      19A     -0.452579    20A     -0.437293

  @DF-RHF Final Energy:  -266.81979299496038

   => Energetics <=

    Nuclear Repulsion Energy =            182.7961332362712881
    One-Electron Energy =                -726.2791562459992747
    Two-Electron Energy =                 276.6632300147675210
    DFT Exchange-Correlation Energy =       0.0000000000000000
    Empirical Dispersion Energy =           0.0000000000000000
    PCM Polarization Energy =               0.0000000000000000
    EFP Energy =                            0.0000000000000000
    Total Energy =                       -266.8197929949604372
    Molecular point group: c1
  Basis Set: 6-31G*
  Basis Set:

  -Total Gradient:
     Atom            X                  Y                   Z
    ------   -----------------  -----------------  -----------------
       1       -0.000020765438     0.000003215329    -0.003195537104
       2        0.000459133051     0.000620082250     0.003298701490
       3        0.000001373998     0.000004191104    -0.000030862120
       4       -0.001314148468    -0.001635201591     0.002302515623
       5        0.000014388339    -0.000004568986     0.000017126540
       6       -0.000001606396    -0.000001481452     0.000006076491
       7        0.000004968033     0.000000586844     0.000008896338
       8        0.000854933976     0.001022449860    -0.002401082470
       9        0.000014810922     0.000006542122    -0.000008211797
      10       -0.000008160196     0.000000633348     0.000009358093
      11       -0.000004927818    -0.000016448834    -0.000006981085

  **** Optimization is complete! (in 9 steps) ****
    Final optimized geometry and variables:
    Molecular point group: c1

    Geometry (in Angstrom), charge = 0, multiplicity = 1:

    O            0.058782111794     1.667769311723     0.124312154576
    C           -0.154562656288     0.504796607824     0.123373112947
    C           -1.549844283052    -0.075904213497     0.150675095435
    O            0.868496259406    -0.358475142712     0.121503325997
    H           -1.778846566523    -0.586950479079    -0.778196123343
    H           -2.250970502943     0.732999343383     0.287852908098
    H           -1.652905856931    -0.791034276680     0.959174395192
    C            0.756161241113    -1.626659357436    -0.481093080325
    H            0.046450261235    -2.260000270192     0.036744417414
    H            1.736392498322    -2.072233796108    -0.417953859295
    H            0.473898585398    -1.540623082175    -1.523643978604

  Mulliken Charges: (a.u.)
   Center  Symbol    Alpha    Beta     Spin     Total
       1     O     4.25905  4.25905  0.00000 -0.51810
       2     C     2.61840  2.61840  0.00000  0.76320
       3     C     3.30658  3.30658  0.00000 -0.61315
       4     O     4.29745  4.29745  0.00000 -0.59490
       5     H     0.40341  0.40341  0.00000  0.19318
       6     H     0.38810  0.38810  0.00000  0.22381
       7     H     0.40175  0.40175  0.00000  0.19649
       8     C     3.09414  3.09414  0.00000 -0.18827
       9     H     0.41779  0.41779  0.00000  0.16442
      10     H     0.39799  0.39799  0.00000  0.20402
      11     H     0.41535  0.41535  0.00000  0.16930

   Total alpha = 20.00000, Total beta = 20.00000, Total charge =  0.00000
