  ==> Input File <==

--------------------------------------------------------------------------
set {
	reference rhf
	basis 6-31G*
}

set_num_threads( 4 )
memory 2 gb

molecule MOL {
0 1

H	 2.332609	 0.878551	 -1.051851
C	 2.357710	 0.000000	 -0.417167
C	 1.175432	 0.000000	 0.532082
H	 3.291263	 0.000000	 0.136880
H	 2.332609	 -0.878551	 -1.051851
O	 0.000000	 0.000000	 -0.221444
H	 1.206604	 0.877321	 1.177902
H	 1.206604	 -0.877321	 1.177902
C	 -1.175432	 0.000000	 0.532082
C	 -2.343494	 -0.273903	 -0.394991
H	 -1.302052	 0.961652	 1.029012
H	 -1.121579	 -0.760830	 1.310532
H	 -2.403604	 0.489297	 -1.162597
H	 -3.276677	 -0.281030	 0.159633
H	 -2.222879	 -1.235600	 -0.880682

	symmetry c1
}
set optking {
	frozen_dihedral = ("
		11 9 6 3
	")
}

ee = optimize('scf')
oeprop('DIPOLE', 'QUADRUPOLE', 'MULLIKEN_CHARGES')
f=open( 'psi4out.xyz', 'w' )
f.write( "15  " )
f.write( str(ee) + "\n" )
f.write( MOL.save_string_xyz() )
f.close()
--------------------------------------------------------------------------

    Molecular point group: c1
  Charge       = 0
  Multiplicity = 1
  Basis Set: 6-31G*
  Basis Set:
  @DF-RHF Final Energy:  -232.14445019587191
    Total Energy =                       -232.1444501958720252
    Molecular point group: c1
  Basis Set: 6-31G*
  Basis Set:
  Basis Set: 6-31G*
  Basis Set:
  @DF-RHF Final Energy:  -232.14446575157493
    Total Energy =                       -232.1444657515747849
  Basis Set: 6-31G*
  Basis Set:
  Basis Set: 6-31G*
  Basis Set:
  @DF-RHF Final Energy:  -232.14446914078647
    Total Energy =                       -232.1444691407864411
  Basis Set: 6-31G*
  Basis Set:
  Charge       = 0
  Multiplicity = 1
  Basis Set: 6-31G*
  Basis Set:

    Orbital Energies (a.u.)
    -----------------------

    Doubly Occupied:

       1A    -20.551066     2A    -11.268162     3A    -11.268035
       4A    -11.208863     5A    -11.208692     6A     -1.377488
       7A     -1.043975     8A     -0.982222     9A     -0.846021
      10A     -0.826285    11A     -0.677337    12A     -0.667409
      13A     -0.608654    14A     -0.595873    15A     -0.549076
      16A     -0.530629    17A     -0.522638    18A     -0.492632
      19A     -0.487629    20A     -0.464690    21A     -0.410946

  @DF-RHF Final Energy:  -232.14446921119182

   => Energetics <=

    Nuclear Repulsion Energy =            191.0894367913199119
    One-Electron Energy =                -693.2911671782765097
    Two-Electron Energy =                 270.0572611757648929
    DFT Exchange-Correlation Energy =       0.0000000000000000
    Empirical Dispersion Energy =           0.0000000000000000
    PCM Polarization Energy =               0.0000000000000000
    EFP Energy =                            0.0000000000000000
    Total Energy =                       -232.1444692111916765
    Molecular point group: c1
  Basis Set: 6-31G*
  Basis Set:

  -Total Gradient:
     Atom            X                  Y                   Z
    ------   -----------------  -----------------  -----------------
       1       -0.000003444376    -0.000001190894     0.000004173782
       2       -0.000000380735    -0.000007419065    -0.000001675442
       3       -0.000002158973    -0.001253309701     0.000008345014
       4        0.000002378509    -0.000001249999     0.000000412848
       5        0.000003012604     0.000000619608    -0.000003147313
       6       -0.000220658678     0.001944878494    -0.000332350869
       7       -0.000002180770    -0.000000270892     0.000001697299
       8       -0.000001817832     0.000000756366    -0.000002796624
       9        0.001022141200    -0.001211041105     0.001581539607
      10       -0.000004824556     0.000003180330    -0.000001531274
      11       -0.000785515079     0.000519942462    -0.001251340863
      12        0.000001120223     0.000004087681     0.000002295717
      13       -0.000003973349     0.000000031450    -0.000004878553
      14       -0.000004210380     0.000000249921    -0.000001134252
      15        0.000000512190     0.000000735343     0.000000390923

  **** Optimization is complete! (in 4 steps) ****
    Final optimized geometry and variables:
    Molecular point group: c1

    Geometry (in Angstrom), charge = 0, multiplicity = 1:

    H            2.326214674782     0.943988345095    -1.054818989028
    C            2.355053834076     0.062884274129    -0.423812567334
    C            1.174472807006     0.054993126627     0.527531656229
    H            3.289804102076     0.063353150175     0.128403278748
    H            2.331217739640    -0.813166382834    -1.062102045777
    O           -0.002626035418     0.047886748071    -0.223784957459
    H            1.203117429125     0.931599535732     1.174639385930
    H            1.210991096608    -0.822889095081     1.171908439005
    C           -1.179084013244     0.052774735188     0.529126143368
    C           -2.347594831902    -0.215178937676    -0.400232055680
    H           -1.305220055664     1.018752012368     1.017364260966
    H           -1.132483232860    -0.706928448894     1.308239581137
    H           -2.392472108927     0.540178580367    -1.176701415507
    H           -3.283640563396    -0.200674675051     0.149714602082
    H           -2.239760211975    -1.184037464258    -0.874702669085

  Mulliken Charges: (a.u.)
   Center  Symbol    Alpha    Beta     Spin     Total
       1     H     0.41342  0.41342  0.00000  0.17317
       2     C     3.24426  3.24426  0.00000 -0.48851
       3     C     2.98743  2.98743  0.00000  0.02515
       4     H     0.42254  0.42254  0.00000  0.15492
       5     H     0.41342  0.41342  0.00000  0.17316
       6     O     4.30918  4.30918  0.00000 -0.61835
       7     H     0.43261  0.43261  0.00000  0.13478
       8     H     0.43194  0.43194  0.00000  0.13612
       9     C     2.98726  2.98726  0.00000  0.02547
      10     C     3.24403  3.24403  0.00000 -0.48806
      11     H     0.43130  0.43130  0.00000  0.13739
      12     H     0.43264  0.43264  0.00000  0.13472
      13     H     0.41298  0.41298  0.00000  0.17403
      14     H     0.42276  0.42276  0.00000  0.15448
      15     H     0.41423  0.41423  0.00000  0.17154

   Total alpha = 21.00000, Total beta = 21.00000, Total charge =  0.00000
