  ==> Input File <==

--------------------------------------------------------------------------
set {
	reference rhf
	basis 6-31G*
}

set_num_threads( 4 )
memory 2 gb

molecule MOL {
0 1

H	 2.747983	 0.049849	 -0.898917
N	 2.332695	 -0.069570	 0.000000
C	 0.936681	 -0.007078	 0.000000
H	 2.706632	 -0.873911	 0.456052
C	 0.227108	 -0.002120	 -1.198267
C	 0.227108	 -0.002120	 1.198267
H	 0.761569	 -0.014657	 -2.132680
C	 -1.156334	 0.010459	 -1.192360
H	 0.761569	 -0.014657	 2.132680
C	 -1.156334	 0.010459	 1.192360
H	 -1.684791	 0.014915	 -2.129421
C	 -1.862085	 0.017996	 0.000000
H	 -1.684791	 0.014915	 2.129421
H	 -2.936703	 0.028387	 0.000000

	symmetry c1
}
set optking {
	frozen_dihedral = ("
		1 2 3 5
	")
}

ee = optimize('scf')
oeprop('DIPOLE', 'QUADRUPOLE', 'MULLIKEN_CHARGES')
f=open( 'psi4out.xyz', 'w' )
f.write( "14  " )
f.write( str(ee) + "\n" )
f.write( MOL.save_string_xyz() )
f.close()
--------------------------------------------------------------------------

    Molecular point group: c1
  Charge       = 0
  Multiplicity = 1
  Basis Set: 6-31G*
  Basis Set:
  @DF-RHF Final Energy:  -285.72766696101263
    Total Energy =                       -285.7276669610125737
    Molecular point group: c1
  Basis Set: 6-31G*
  Basis Set:
  Basis Set: 6-31G*
  Basis Set:
  @DF-RHF Final Energy:  -285.72803906743468
    Total Energy =                       -285.7280390674347927
  Basis Set: 6-31G*
  Basis Set:
  Basis Set: 6-31G*
  Basis Set:
  @DF-RHF Final Energy:  -285.72810890609918
    Total Energy =                       -285.7281089060993509
  Basis Set: 6-31G*
  Basis Set:
  Basis Set: 6-31G*
  Basis Set:
  @DF-RHF Final Energy:  -285.72811435159349
    Total Energy =                       -285.7281143515936037
  Basis Set: 6-31G*
  Basis Set:
  Basis Set: 6-31G*
  Basis Set:
  @DF-RHF Final Energy:  -285.72811652094015
    Total Energy =                       -285.7281165209402047
  Basis Set: 6-31G*
  Basis Set:
  Charge       = 0
  Multiplicity = 1
  Basis Set: 6-31G*
  Basis Set:

    Orbital Energies (a.u.)
    -----------------------

    Doubly Occupied:

       1A    -15.554225     2A    -11.266587     3A    -11.228519
       4A    -11.227784     5A    -11.220200     6A    -11.217500
       7A    -11.217384     8A     -1.214899     9A     -1.125118
      10A     -1.009511    11A     -0.983933    12A     -0.827214
      13A     -0.807885    14A     -0.702073    15A     -0.678709
      16A     -0.649553    17A     -0.605716    18A     -0.591285
      19A     -0.579761    20A     -0.513895    21A     -0.501889
      22A     -0.486413    23A     -0.431242    24A     -0.330438
      25A     -0.298135

  @DF-RHF Final Energy:  -285.72811681709197

   => Energetics <=

    Nuclear Repulsion Energy =            272.8342929392439373
    One-Electron Energy =                -926.5850812793185014
    Two-Electron Energy =                 368.0226715229824777
    DFT Exchange-Correlation Energy =       0.0000000000000000
    Empirical Dispersion Energy =           0.0000000000000000
    PCM Polarization Energy =               0.0000000000000000
    EFP Energy =                            0.0000000000000000
    Total Energy =                       -285.7281168170920864
    Molecular point group: c1
  Basis Set: 6-31G*
  Basis Set:

  -Total Gradient:
     Atom            X                  Y                   Z
    ------   -----------------  -----------------  -----------------
       1        0.000046276906     0.003624777580     0.000639088565
       2       -0.000126807785    -0.006179296890    -0.000823437741
       3        0.000131247082     0.005362434705     0.000081293111
       4       -0.000000743836     0.000026371759     0.000012658560
       5        0.000031288298    -0.002828982226     0.000027870532
       6       -0.000082268051    -0.000017387306     0.000059900665
       7       -0.000005408984    -0.000003383384     0.000005329207
       8       -0.000064772971     0.000017092130     0.000039986389
       9        0.000007376575    -0.000004372281    -0.000007909555
      10        0.000078916364     0.000040262981     0.000040728092
      11       -0.000005789036    -0.000002604164     0.000000396807
      12       -0.000000766458    -0.000023879548    -0.000073527287
      13       -0.000008080616    -0.000005218176    -0.000002772226
      14       -0.000000467484    -0.000005815178     0.000000394880

  **** Optimization is complete! (in 6 steps) ****
    Final optimized geometry and variables:
    Molecular point group: c1

    Geometry (in Angstrom), charge = 0, multiplicity = 1:

    H            2.764188629470     0.107395304305    -0.868521246310
    N            2.340359331289    -0.038263636072     0.022494781744
    C            0.933604371053    -0.012368223780    -0.005267323330
    H            2.727235769356    -0.837437303970     0.478227190122
    C            0.221768417867    -0.005770377326    -1.198566397007
    C            0.230091220434     0.000863918805     1.196514800962
    H            0.751904456108    -0.032667022243    -2.135348406276
    C           -1.163860195200     0.041604880136    -1.190132573905
    H            0.777015490886     0.008158008889     2.122614909098
    C           -1.151885089632     0.021530500751     1.198070712780
    H           -1.696958612451     0.057136840094    -2.124431011348
    C           -1.860313278167     0.048542958988     0.005166180126
    H           -1.679083395810     0.029817649073     2.135800703248
    H           -2.934943364356     0.075196708134     0.010221722486

  Mulliken Charges: (a.u.)
   Center  Symbol    Alpha    Beta     Spin     Total
       1     H     0.32138  0.32138  0.00000  0.35724
       2     N     3.95059  3.95059  0.00000 -0.90118
       3     C     2.86388  2.86388  0.00000  0.27224
       4     H     0.31899  0.31899  0.00000  0.36201
       5     C     3.12489  3.12489  0.00000 -0.24979
       6     C     3.11551  3.11551  0.00000 -0.23101
       7     H     0.40502  0.40502  0.00000  0.18996
       8     C     3.09290  3.09290  0.00000 -0.18579
       9     H     0.39876  0.39876  0.00000  0.20247
      10     C     3.09361  3.09361  0.00000 -0.18722
      11     H     0.40073  0.40073  0.00000  0.19854
      12     C     3.11116  3.11116  0.00000 -0.22232
      13     H     0.40051  0.40051  0.00000  0.19898
      14     H     0.40207  0.40207  0.00000  0.19587

   Total alpha = 25.00000, Total beta = 25.00000, Total charge =  0.00000
