                              Psi4 1.0.54 Driver

  ==> Input File <==

--------------------------------------------------------------------------
set {
	reference rhf
	basis cc-pvtz
}

set_num_threads( 4 )
memory 2 gb

molecule MOL {
0 1

H	 -4.230259	 0.539112	 0.036360
O	 -3.515113	 -0.019339	 -0.206321
C	 -2.302264	 0.528872	 0.237390
C	 -1.175688	 -0.398187	 -0.171891
H	 -2.148018	 1.514076	 -0.197759
H	 -2.310727	 0.646384	 1.319032
C	 0.196029	 0.106276	 0.266738
H	 -1.201873	 -0.515469	 -1.250677
H	 -1.365975	 -1.378728	 0.252664
C	 1.330220	 -0.826136	 -0.155230
H	 0.359542	 1.097229	 -0.145561
H	 0.212134	 0.218135	 1.348778
C	 2.719700	 -0.407669	 0.328325
H	 1.339388	 -0.911200	 -1.239363
H	 1.119001	 -1.821953	 0.224128
C	 2.803397	 1.014563	 0.877512
H	 3.413261	 -0.500703	 -0.501750
H	 3.061080	 -1.107425	 1.086768
H	 2.461367	 1.736372	 0.142618
H	 2.202342	 1.141471	 1.769877
H	 3.825458	 1.267106	 1.135943

	symmetry c1
}
set optking {
	frozen_dihedral = ("
		16 13 10 14
	")
}

ee,wfn = optimize('scf', return_wfn=True)
oeprop( wfn, 'DIPOLE', 'QUADRUPOLE', 'MULLIKEN_CHARGES')
f=open( 'psi4out.xyz', 'w' )
f.write( "21  " )
f.write( str(ee) + "\n" )
f.write( MOL.save_string_xyz() )
f.close()
--------------------------------------------------------------------------

    Molecular point group: c1
  Charge       = 0
  Multiplicity = 1
  Basis Set: CC-PVTZ
  Basis Set:
  @DF-RHF Final Energy:  -310.32376613492755
    Total Energy =                       -310.3237661349273253
    Molecular point group: c1
  Basis Set: CC-PVTZ
  Basis Set:
  Basis Set: CC-PVTZ
  Basis Set:
  @DF-RHF Final Energy:  -310.32386402403080
    Total Energy =                       -310.3238640240306836
  Basis Set: CC-PVTZ
  Basis Set:
  Basis Set: CC-PVTZ
  Basis Set:
  @DF-RHF Final Energy:  -310.32551702553479
    Total Energy =                       -310.3255170255350208
  Basis Set: CC-PVTZ
  Basis Set:
  Basis Set: CC-PVTZ
  Basis Set:
  @DF-RHF Final Energy:  -310.32558612877841
    Total Energy =                       -310.3255861287781272
  Basis Set: CC-PVTZ
  Basis Set:
  Basis Set: CC-PVTZ
  Basis Set:
  @DF-RHF Final Energy:  -310.32558999646517
    Total Energy =                       -310.3255899964651690
  Basis Set: CC-PVTZ
  Basis Set:
  Basis Set: CC-PVTZ
  Basis Set:
  @DF-RHF Final Energy:  -310.32559581832913
    Total Energy =                       -310.3255958183290204
  Basis Set: CC-PVTZ
  Basis Set:
  Basis Set: CC-PVTZ
  Basis Set:
  @DF-RHF Final Energy:  -310.32559685525973
    Total Energy =                       -310.3255968552597324
  Basis Set: CC-PVTZ
  Basis Set:
  Charge       = 0
  Multiplicity = 1
  Basis Set: CC-PVTZ
  Basis Set:

    Orbital Energies (a.u.)
    -----------------------

    Doubly Occupied:

       1A    -20.545341     2A    -11.264892     3A    -11.213400
       4A    -11.213289     5A    -11.211261     6A    -11.208769
       7A    -11.206161     8A     -1.363169     9A     -1.085027
      10A     -1.032278    11A     -0.955043    12A     -0.879953
      13A     -0.809868    14A     -0.772255    15A     -0.695541
      16A     -0.664194    17A     -0.629644    18A     -0.598081
      19A     -0.584285    20A     -0.577548    21A     -0.533815
      22A     -0.527180    23A     -0.507227    24A     -0.487236
      25A     -0.486273    26A     -0.458435    27A     -0.446169
      28A     -0.444892    29A     -0.437055

  @DF-RHF Final Energy:  -310.32559686981426

   => Energetics <=

    Nuclear Repulsion Energy =            313.5319595314183516
    One-Electron Energy =               -1042.0385487524854398
    Two-Electron Energy =                 418.1809923512532237
    DFT Exchange-Correlation Energy =       0.0000000000000000
    Empirical Dispersion Energy =           0.0000000000000000
    PCM Polarization Energy =               0.0000000000000000
    EFP Energy =                            0.0000000000000000
    Total Energy =                       -310.3255968698138645
    Molecular point group: c1
  Basis Set: CC-PVTZ
  Basis Set:

  -Total Gradient:
     Atom            X                  Y                   Z
    ------   -----------------  -----------------  -----------------
       1       -0.000000896894     0.000000930721     0.000001550820
       2        0.000000682583    -0.000004020839     0.000003204557
       3        0.000006906165     0.000009543908    -0.000004220901
       4        0.000001250308     0.000004112481    -0.000008870415
       5       -0.000001531779    -0.000003488743     0.000002494039
       6       -0.000002506776    -0.000001431587    -0.000004181762
       7       -0.000006940646    -0.000001318944     0.000019598472
       8       -0.000005856082     0.000000767127     0.000001665174
       9        0.000007746905     0.000002892861    -0.000001984531
      10       -0.001598403448     0.004824964529     0.000842672976
      11       -0.000006452745    -0.000013539078    -0.000000910169
      12        0.000001107477     0.000005894080    -0.000000832948
      13        0.001260500255     0.000492653204    -0.004404709692
      14        0.001051078985    -0.004296626217     0.000449441965
      15       -0.000000954930     0.000003085994     0.000001550571
      16       -0.000709793057    -0.001025689848     0.003099688171
      17        0.000000455111    -0.000001660906    -0.000002230546
      18       -0.000000373986    -0.000000197955    -0.000004764876
      19        0.000006844309    -0.000000405299    -0.000000586855
      20       -0.000011019490     0.000004404760     0.000005586680
      21        0.000008157729    -0.000000870250     0.000005839273

  **** Optimization is complete! (in 8 steps) ****
    Final optimized geometry and variables:
    Molecular point group: c1

    Geometry (in Angstrom), charge = 0, multiplicity = 1:

    H           -4.204974775417     0.461788816214    -0.177377335989
    O           -3.474051717396    -0.074095429063    -0.423755010034
    C           -2.282142647053     0.478901502104     0.068194471379
    C           -1.129152455797    -0.411405108045    -0.349295631057
    H           -2.137053803282     1.482503816121    -0.326085724099
    H           -2.317398260673     0.555253650101     1.152959660785
    C            0.222221889444     0.102987015538     0.138411217737
    H           -1.129652189151    -0.489363622413    -1.431844696040
    H           -1.309669892089    -1.410229978843     0.034938425022
    C            1.372002465619    -0.806840255222    -0.288564292008
    H            0.380118857600     1.107446155032    -0.241340185999
    H            0.203400339808     0.184206799285     1.221869110120
    C            2.799560617154    -0.412800399641     0.166927220331
    H            1.359403998559    -0.922387496292    -1.368071791194
    H            1.163885367771    -1.803207478518     0.090115367267
    C            2.995095762701     1.011745291529     0.684818467287
    H            3.488287490194    -0.584507806036    -0.652515287343
    H            3.109522124773    -1.089700639881     0.956573559593
    H            2.754656851924     1.755609479484    -0.066887555200
    H            2.384526852427     1.212173438205     1.556285528451
    H            4.030238154077     1.161820820370     0.969960743517

  Mulliken Charges: (a.u.)
   Center  Symbol    Alpha    Beta     Spin     Total
       1     H     0.39767  0.39767  0.00000  0.20465
       2     O     4.19405  4.19405  0.00000 -0.38810
       3     C     2.96335  2.96335  0.00000  0.07330
       4     C     3.08434  3.08434  0.00000 -0.16867
       5     H     0.47496  0.47496  0.00000  0.05007
       6     H     0.47510  0.47510  0.00000  0.04981
       7     C     3.10290  3.10290  0.00000 -0.20581
       8     H     0.45102  0.45102  0.00000  0.09796
       9     H     0.45075  0.45075  0.00000  0.09850
      10     C     3.09754  3.09754  0.00000 -0.19508
      11     H     0.45239  0.45239  0.00000  0.09522
      12     H     0.45395  0.45395  0.00000  0.09209
      13     C     3.08756  3.08756  0.00000 -0.17513
      14     H     0.45109  0.45109  0.00000  0.09781
      15     H     0.45158  0.45158  0.00000  0.09684
      16     C     3.15715  3.15715  0.00000 -0.31429
      17     H     0.45019  0.45019  0.00000  0.09962
      18     H     0.45318  0.45318  0.00000  0.09365
      19     H     0.45371  0.45371  0.00000  0.09258
      20     H     0.45284  0.45284  0.00000  0.09431
      21     H     0.44468  0.44468  0.00000  0.11065

   Total alpha = 29.00000, Total beta = 29.00000, Total charge =  0.00000

*** Psi4 exiting successfully. Buy a developer a beer!
