  ==> Input File <==

--------------------------------------------------------------------------
set {
	reference rhf
	basis 6-31G*
}

set_num_threads( 4 )
memory 2 gb

molecule MOL {
0 1

H	 -2.698709	 -0.000305	 0.034435
C	 -1.693833	 0.000034	 0.434417
O	 -0.828952	 -0.000968	 -0.659236
H	 -1.574200	 0.882896	 1.055746
H	 -1.574147	 -0.881698	 1.057355
C	 0.544714	 0.213995	 -0.432663
C	 0.834523	 1.603972	 0.130268
C	 1.180827	 -0.895015	 0.403050
H	 0.969296	 0.164150	 -1.428292
H	 0.326872	 2.361208	 -0.457468
H	 1.900877	 1.803668	 0.094986
H	 0.518365	 1.702903	 1.163913
H	 0.912291	 -1.867422	 0.004590
H	 2.262305	 -0.803993	 0.378857
H	 0.873454	 -0.853655	 1.443075

	symmetry c1
}
set optking {
	frozen_dihedral = ("
		6 3 2 1
	")
}

ee = optimize('scf')
oeprop('DIPOLE', 'QUADRUPOLE', 'MULLIKEN_CHARGES')
f=open( 'psi4out.xyz', 'w' )
f.write( "15  " )
f.write( str(ee) + "\n" )
f.write( MOL.save_string_xyz() )
f.close()
--------------------------------------------------------------------------

    Molecular point group: c1
  Charge       = 0
  Multiplicity = 1
  Basis Set: 6-31G*
  Basis Set:
  @DF-RHF Final Energy:  -232.13757349528467
    Total Energy =                       -232.1375734952846415
    Molecular point group: c1
  Basis Set: 6-31G*
  Basis Set:
  Basis Set: 6-31G*
  Basis Set:
  @DF-RHF Final Energy:  -232.13750492027151
    Total Energy =                       -232.1375049202715104
  Basis Set: 6-31G*
  Basis Set:
  Basis Set: 6-31G*
  Basis Set:
  @DF-RHF Final Energy:  -232.13767417354174
    Total Energy =                       -232.1376741735419955
  Basis Set: 6-31G*
  Basis Set:
  Basis Set: 6-31G*
  Basis Set:
  @DF-RHF Final Energy:  -232.13767407810926
    Total Energy =                       -232.1376740781093417
  Basis Set: 6-31G*
  Basis Set:
  Basis Set: 6-31G*
  Basis Set:
  @DF-RHF Final Energy:  -232.13767820081424
    Total Energy =                       -232.1376782008143778
  Basis Set: 6-31G*
  Basis Set:
  Charge       = 0
  Multiplicity = 1
  Basis Set: 6-31G*
  Basis Set:

    Orbital Energies (a.u.)
    -----------------------

    Doubly Occupied:

       1A    -20.548265     2A    -11.274342     3A    -11.261137
       4A    -11.211273     5A    -11.209822     6A     -1.370352
       7A     -1.050428     8A     -0.939927     9A     -0.930981
      10A     -0.781286    11A     -0.674407    12A     -0.640438
      13A     -0.633243    14A     -0.572521    15A     -0.564952
      16A     -0.552769    17A     -0.534341    18A     -0.498133
      19A     -0.496707    20A     -0.443137    21A     -0.406305

  @DF-RHF Final Energy:  -232.13767834809423

   => Energetics <=

    Nuclear Repulsion Energy =            198.7947085917395782
    One-Electron Energy =                -708.6752403817351933
    Two-Electron Energy =                 277.7428534419016160
    DFT Exchange-Correlation Energy =       0.0000000000000000
    Empirical Dispersion Energy =           0.0000000000000000
    PCM Polarization Energy =               0.0000000000000000
    EFP Energy =                            0.0000000000000000
    Total Energy =                       -232.1376783480940276
    Molecular point group: c1
  Basis Set: 6-31G*
  Basis Set:

  -Total Gradient:
     Atom            X                  Y                   Z
    ------   -----------------  -----------------  -----------------
       1       -0.000000608625     0.000600074652     0.000060872804
       2       -0.000062923141    -0.000499486954    -0.000073549249
       3        0.000095848411    -0.000603565367     0.000038747566
       4        0.000003140094     0.000001335417     0.000007808073
       5       -0.000006481591     0.000011519436    -0.000008193217
       6       -0.000070410104     0.000482330494    -0.000030352617
       7        0.000002782782    -0.000006444264    -0.000000166438
       8        0.000017519570     0.000006969675     0.000002300784
       9        0.000027305431     0.000004360194     0.000003702638
      10       -0.000005528194    -0.000001176098     0.000003397616
      11       -0.000000879278     0.000001415676    -0.000001387554
      12        0.000000336392     0.000001006580    -0.000002174527
      13       -0.000000085266     0.000002668530    -0.000002079500
      14       -0.000005966814    -0.000001682678     0.000000203501
      15        0.000005950337     0.000000674708     0.000000870123

  **** Optimization is complete! (in 6 steps) ****
    Final optimized geometry and variables:
    Molecular point group: c1

    Geometry (in Angstrom), charge = 0, multiplicity = 1:

    H           -2.683772084853    -0.188442121215     0.068163776900
    C           -1.673033437447    -0.230069327912     0.451218154703
    O           -0.822043546818    -0.148037855388    -0.650625437409
    H           -1.540025878531     0.596218963869     1.143369309799
    H           -1.548073454859    -1.161594550713     0.995887744030
    C            0.556263084425     0.035175850855    -0.423993540292
    C            0.871623679377     1.427009563398     0.120897476364
    C            1.166827131638    -1.075295617105     0.428126425348
    H            0.982457248411    -0.035212613875    -1.417686627995
    H            0.387432201478     2.184386376428    -0.485681461917
    H            1.942699838499     1.602746389849     0.095663824987
    H            0.545480268366     1.551039137031     1.148488143145
    H            0.889915615071    -2.048205480206     0.036338947988
    H            2.249591097675    -0.999817992121     0.416259054135
    H            0.846431464606    -1.018884376906     1.463802767143

  Mulliken Charges: (a.u.)
   Center  Symbol    Alpha    Beta     Spin     Total
       1     H     0.41273  0.41273  0.00000  0.17453
       2     C     3.08168  3.08168  0.00000 -0.16337
       3     O     4.31202  4.31202  0.00000 -0.62403
       4     H     0.43043  0.43043  0.00000  0.13914
       5     H     0.42810  0.42810  0.00000  0.14380
       6     C     2.90904  2.90904  0.00000  0.18191
       7     C     3.25127  3.25127  0.00000 -0.50254
       8     C     3.25487  3.25487  0.00000 -0.50973
       9     H     0.41527  0.41527  0.00000  0.16947
      10     H     0.41131  0.41131  0.00000  0.17738
      11     H     0.42020  0.42020  0.00000  0.15960
      12     H     0.42173  0.42173  0.00000  0.15654
      13     H     0.41164  0.41164  0.00000  0.17672
      14     H     0.41863  0.41863  0.00000  0.16273
      15     H     0.42108  0.42108  0.00000  0.15785

   Total alpha = 21.00000, Total beta = 21.00000, Total charge =  0.00000
