  ==> Input File <==

--------------------------------------------------------------------------
set {
	reference rhf
	basis 6-31G*
}

set_num_threads( 4 )
memory 2 gb

molecule MOL {
0 1

O	 -1.422664	 1.209624	 -0.289627
C	 -1.083277	 0.139568	 0.115197
C	 0.323299	 -0.082943	 0.642902
C	 -2.019250	 -1.048534	 0.101166
C	 1.355627	 -0.005344	 -0.493127
H	 0.396251	 -1.044647	 1.143147
H	 0.528637	 0.693580	 1.371677
C	 2.786168	 -0.195604	 0.007473
H	 1.132807	 -0.760304	 -1.243899
H	 1.259610	 0.958506	 -0.981915
H	 3.495561	 -0.130713	 -0.811210
H	 2.912696	 -1.165395	 0.480041
H	 3.049284	 0.565503	 0.735850
H	 -1.549512	 -1.903393	 -0.376569
H	 -2.932749	 -0.793654	 -0.417767
H	 -2.253557	 -1.340499	 1.121490

	symmetry c1
}
set optking {
	frozen_dihedral = ("
		4 2 3 5
	")
}

ee = optimize('scf')
oeprop('DIPOLE', 'QUADRUPOLE', 'MULLIKEN_CHARGES')
f=open( 'psi4out.xyz', 'w' )
f.write( "16  " )
f.write( str(ee) + "\n" )
f.write( MOL.save_string_xyz() )
f.close()
--------------------------------------------------------------------------

    Molecular point group: c1
  Charge       = 0
  Multiplicity = 1
  Basis Set: 6-31G*
  Basis Set:
  @DF-RHF Final Energy:  -270.03032446017266
    Total Energy =                       -270.0303244601726078
    Molecular point group: c1
  Basis Set: 6-31G*
  Basis Set:
  Basis Set: 6-31G*
  Basis Set:
  @DF-RHF Final Energy:  -270.02994562323369
    Total Energy =                       -270.0299456232338002
  Basis Set: 6-31G*
  Basis Set:
  Basis Set: 6-31G*
  Basis Set:
  @DF-RHF Final Energy:  -270.03033195352987
    Total Energy =                       -270.0303319535299238
  Basis Set: 6-31G*
  Basis Set:
  Basis Set: 6-31G*
  Basis Set:
  @DF-RHF Final Energy:  -270.02995354698015
    Total Energy =                       -270.0299535469799821
  Basis Set: 6-31G*
  Basis Set:
  Basis Set: 6-31G*
  Basis Set:
  @DF-RHF Final Energy:  -270.03035672628363
    Total Energy =                       -270.0303567262835145
  Basis Set: 6-31G*
  Basis Set:
  Basis Set: 6-31G*
  Basis Set:
  @DF-RHF Final Energy:  -270.03036591081764
    Total Energy =                       -270.0303659108176362
  Basis Set: 6-31G*
  Basis Set:
  Charge       = 0
  Multiplicity = 1
  Basis Set: 6-31G*
  Basis Set:

    Orbital Energies (a.u.)
    -----------------------

    Doubly Occupied:

       1A    -20.548085     2A    -11.325449     3A    -11.230697
       4A    -11.229978     5A    -11.228910     6A    -11.217996
       7A     -1.394035     8A     -1.080590     9A     -1.013965
      10A     -0.948899    11A     -0.827405    12A     -0.734810
      13A     -0.658949    14A     -0.648106    15A     -0.612869
      16A     -0.605443    17A     -0.574489    18A     -0.559620
      19A     -0.540819    20A     -0.514552    21A     -0.500567
      22A     -0.482895    23A     -0.470865    24A     -0.398419

  @DF-RHF Final Energy:  -270.03036627597282

   => Energetics <=

    Nuclear Repulsion Energy =            236.9376966691386031
    One-Electron Energy =                -835.2393038728780539
    Two-Electron Energy =                 328.2712409277667120
    DFT Exchange-Correlation Energy =       0.0000000000000000
    Empirical Dispersion Energy =           0.0000000000000000
    PCM Polarization Energy =               0.0000000000000000
    EFP Energy =                            0.0000000000000000
    Total Energy =                       -270.0303662759727104
    Molecular point group: c1
  Basis Set: 6-31G*
  Basis Set:

  -Total Gradient:
     Atom            X                  Y                   Z
    ------   -----------------  -----------------  -----------------
       1       -0.000012445689     0.000015018364    -0.000007216894
       2       -0.000033467692     0.000000637125     0.000086040988
       3        0.000022446763    -0.000012994549    -0.000058736635
       4        0.000041432006    -0.000023928460    -0.000118412268
       5        0.000003972180    -0.000003204980     0.000008404127
       6        0.000006147499     0.000003319459     0.000024779467
       7        0.000000734136     0.000002349516    -0.000000668928
       8       -0.000002020184     0.000002860216     0.000002834048
       9       -0.000013125664     0.000001421529     0.000003963584
      10       -0.000005632552    -0.000008845753    -0.000000965614
      11        0.000001754987    -0.000001076832     0.000001176719
      12        0.000001138984     0.000001614017     0.000000150669
      13        0.000007826834     0.000000644505     0.000002877039
      14       -0.000010682549    -0.000006013298     0.000020077941
      15       -0.000007616252     0.000006560953     0.000019427957
      16       -0.000000462809     0.000021638187     0.000016267800

  **** Optimization is complete! (in 7 steps) ****
    Final optimized geometry and variables:
    Molecular point group: c1

    Geometry (in Angstrom), charge = 0, multiplicity = 1:

    O           -1.416249829445     1.209914731164    -0.302163870539
    C           -1.081151524114     0.137987820853     0.101428751777
    C            0.326609286799    -0.085834046318     0.629566726400
    C           -2.021859135337    -1.045390218833     0.090240600866
    C            1.362182790649    -0.015124636228    -0.502307513947
    H            0.397863593096    -1.040797940734     1.142055119564
    H            0.531252442057     0.695874441970     1.354585095782
    C            2.792115786641    -0.191085157950     0.004874465308
    H            1.144623522986    -0.781307719806    -1.243357080444
    H            1.259715898572     0.940999450852    -1.003320965013
    H            3.503423525400    -0.134294490522    -0.812769992961
    H            2.923105879559    -1.153274950926     0.491714779737
    H            3.049887531500     0.581765582027     0.722948239501
    H           -1.574361394494    -1.879869406302    -0.442588023389
    H           -2.957336482067    -0.771112087090    -0.377001623524
    H           -2.207647935519    -1.378606799696     1.107827140813

  Mulliken Charges: (a.u.)
   Center  Symbol    Alpha    Beta     Spin     Total
       1     O     4.26278  4.26278  0.00000 -0.52556
       2     C     2.73690  2.73690  0.00000  0.52620
       3     C     3.19984  3.19984  0.00000 -0.39969
       4     C     3.28943  3.28943  0.00000 -0.57885
       5     C     3.15948  3.15948  0.00000 -0.31897
       6     H     0.41704  0.41704  0.00000  0.16593
       7     H     0.40187  0.40187  0.00000  0.19627
       8     C     3.24018  3.24018  0.00000 -0.48036
       9     H     0.42026  0.42026  0.00000  0.15948
      10     H     0.40349  0.40349  0.00000  0.19302
      11     H     0.41550  0.41550  0.00000  0.16900
      12     H     0.42131  0.42131  0.00000  0.15738
      13     H     0.41831  0.41831  0.00000  0.16337
      14     H     0.40925  0.40925  0.00000  0.18150
      15     H     0.39707  0.39707  0.00000  0.20586
      16     H     0.40729  0.40729  0.00000  0.18541

   Total alpha = 24.00000, Total beta = 24.00000, Total charge = -0.00000
