                              Psi4 1.0.54 Driver

  ==> Input File <==

--------------------------------------------------------------------------
set {
	reference rhf
	basis cc-pvtz
}

set_num_threads( 4 )
memory 2 gb

molecule MOL {
0 1

H	 -3.436473	 1.252944	 -1.023892
O	 -3.458596	 0.315260	 -0.960865
C	 -3.176635	 -0.080824	 0.355601
C	 -1.763371	 0.265266	 0.799691
H	 -3.321825	 -1.153438	 0.379502
H	 -3.895468	 0.357385	 1.043382
C	 -0.673390	 -0.426948	 -0.013392
H	 -1.631049	 1.344913	 0.747560
H	 -1.664587	 -0.001624	 1.849167
C	 -1.224206	 -1.284177	 -1.149936
H	 -0.070759	 -1.041112	 0.646572
H	 -0.004909	 0.326991	 -0.422311
C	 -0.127999	 -1.970133	 -1.962858
H	 -1.898581	 -2.027367	 -0.735478
H	 -1.824108	 -0.663542	 -1.812346
C	 -0.625981	 -2.776745	 -3.163374
H	 0.448744	 -2.620757	 -1.309478
H	 0.563614	 -1.212419	 -2.320854
C	 -1.459672	 -4.004842	 -2.805772
H	 0.235050	 -3.098176	 -3.741374
H	 -1.203121	 -2.127630	 -3.816812
H	 -0.909879	 -4.670080	 -2.147545
H	 -1.720676	 -4.564912	 -3.696525
H	 -2.383986	 -3.737171	 -2.308176

	symmetry c1
}
set optking {
	frozen_dihedral = ("
		11 7 4 3
	")
}

ee,wfn = optimize('scf', return_wfn=True)
oeprop( wfn, 'DIPOLE', 'QUADRUPOLE', 'MULLIKEN_CHARGES')
f=open( 'psi4out.xyz', 'w' )
f.write( "24  " )
f.write( str(ee) + "\n" )
f.write( MOL.save_string_xyz() )
f.close()
--------------------------------------------------------------------------

    Molecular point group: c1
  Charge       = 0
  Multiplicity = 1
  Basis Set: CC-PVTZ
  Basis Set:
  @DF-RHF Final Energy:  -349.36214646751137
    Total Energy =                       -349.3621464675114794
    Molecular point group: c1
  Basis Set: CC-PVTZ
  Basis Set:
  Basis Set: CC-PVTZ
  Basis Set:
  @DF-RHF Final Energy:  -349.36720667207157
    Total Energy =                       -349.3672066720712905
  Basis Set: CC-PVTZ
  Basis Set:
  Basis Set: CC-PVTZ
  Basis Set:
  @DF-RHF Final Energy:  -349.36971014427104
    Total Energy =                       -349.3697101442712665
  Basis Set: CC-PVTZ
  Basis Set:
  Basis Set: CC-PVTZ
  Basis Set:
  @DF-RHF Final Energy:  -349.37006147461915
    Total Energy =                       -349.3700614746193196
  Basis Set: CC-PVTZ
  Basis Set:
  Basis Set: CC-PVTZ
  Basis Set:
  @DF-RHF Final Energy:  -349.37012902194465
    Total Energy =                       -349.3701290219446491
  Basis Set: CC-PVTZ
  Basis Set:
  Basis Set: CC-PVTZ
  Basis Set:
  @DF-RHF Final Energy:  -349.37013421579894
    Total Energy =                       -349.3701342157983163
  Basis Set: CC-PVTZ
  Basis Set:
  Basis Set: CC-PVTZ
  Basis Set:
  @DF-RHF Final Energy:  -349.37014326581539
    Total Energy =                       -349.3701432658152726
  Basis Set: CC-PVTZ
  Basis Set:
  Charge       = 0
  Multiplicity = 1
  Basis Set: CC-PVTZ
  Basis Set:

    Orbital Energies (a.u.)
    -----------------------

    Doubly Occupied:

       1A    -20.546369     2A    -11.266073     3A    -11.216777
       4A    -11.211629     5A    -11.208139     6A    -11.205853
       7A    -11.202155     8A    -11.201542     9A     -1.364408
      10A     -1.084432    11A     -1.044151    12A     -0.983169
      13A     -0.914154    14A     -0.860621    15A     -0.792984
      16A     -0.769456    17A     -0.683423    18A     -0.651215
      19A     -0.622309    20A     -0.617289    21A     -0.595846
      22A     -0.586061    23A     -0.553899    24A     -0.540085
      25A     -0.515878    26A     -0.511543    27A     -0.496518
      28A     -0.481664    29A     -0.465814    30A     -0.457794
      31A     -0.445754    32A     -0.433571    33A     -0.423814

  @DF-RHF Final Energy:  -349.37014653416713

   => Energetics <=

    Nuclear Repulsion Energy =            395.1768430767992868
    One-Electron Energy =               -1257.1852075016131494
    Two-Electron Energy =                 512.6382178906460467
    DFT Exchange-Correlation Energy =       0.0000000000000000
    Empirical Dispersion Energy =           0.0000000000000000
    PCM Polarization Energy =               0.0000000000000000
    EFP Energy =                            0.0000000000000000
    Total Energy =                       -349.3701465341678158
    Molecular point group: c1
  Basis Set: CC-PVTZ
  Basis Set:

  -Total Gradient:
     Atom            X                  Y                   Z
    ------   -----------------  -----------------  -----------------
       1        0.000000231047    -0.000021344214     0.000008646429
       2        0.000019051637     0.000021607402    -0.000018013176
       3        0.000011808785    -0.000546245491     0.000461097064
       4       -0.000169650004     0.000588096248    -0.000701528910
       5        0.000000448035     0.000020482208    -0.000008416705
       6        0.000016742580     0.000006733116     0.000002310912
       7        0.000731173833     0.000585682200     0.000260988177
       8       -0.000002289314     0.000000786590     0.000005910647
       9        0.000001927855    -0.000000653098     0.000005827825
      10       -0.000036893306    -0.000006005470    -0.000041992424
      11       -0.000566288050    -0.000662543054    -0.000036764088
      12       -0.000015616631     0.000007247280     0.000014790788
      13       -0.000016984209     0.000033592417     0.000010144948
      14       -0.000011298987    -0.000001098447     0.000031613449
      15        0.000034874416    -0.000018055545     0.000014619679
      16       -0.000005587937    -0.000001284869    -0.000002223962
      17        0.000002774298     0.000005213451    -0.000011147789
      18        0.000008086628    -0.000008068733     0.000002721695
      19        0.000004826944    -0.000000442686     0.000002316535
      20       -0.000011703608    -0.000002492310     0.000007705843
      21        0.000008210997    -0.000008442249     0.000006036511
      22       -0.000007113974     0.000013927507    -0.000010611857
      23        0.000000424491    -0.000001787221    -0.000000072332
      24        0.000002844471    -0.000004905036    -0.000003959258

  **** Optimization is complete! (in 8 steps) ****
    Final optimized geometry and variables:
    Molecular point group: c1

    Geometry (in Angstrom), charge = 0, multiplicity = 1:

    H           -1.994325419010     2.700982081984     0.417326630007
    O           -2.065636719975     1.764392390585     0.452792071430
    C           -1.520713127291     1.293319276547     1.658003513594
    C           -0.030561398923     1.571433622538     1.810635229623
    H           -1.726997827362     0.233086866836     1.685278074847
    H           -2.043334503309     1.739547052827     2.500473636953
    C            0.961657135250     0.808323035633     0.893116889135
    H            0.115361998059     2.641547821943     1.687834140671
    H            0.220285981712     1.364342494566     2.846535000059
    C            0.375763451196    -0.144833678797    -0.151228579688
    H            1.633563395008     0.233221863479     1.522403346182
    H            1.586684015552     1.531389134869     0.380249642382
    C            1.469507850394    -0.808019501073    -0.987186169021
    H           -0.212486209769    -0.908736886247     0.344892887947
    H           -0.303627702996     0.389823519855    -0.803068562305
    C            0.957051733567    -1.718825161538    -2.104462486070
    H            2.128986941502    -1.378611275199    -0.336439819539
    H            2.085014756048    -0.031725858465    -1.434026698604
    C            0.228016453355    -2.971295371755    -1.623899128697
    H            1.802509292034    -2.022193795962    -2.714670196530
    H            0.301078763921    -1.149391965555    -2.757287819347
    H            0.855441597475    -3.555878216027    -0.958319861498
    H           -0.041838661277    -3.604116221419    -2.461799564972
    H           -0.684422555953    -2.730238871755    -1.092324265753

  Mulliken Charges: (a.u.)
   Center  Symbol    Alpha    Beta     Spin     Total
       1     H     0.39608  0.39608  0.00000  0.20785
       2     O     4.20515  4.20515  0.00000 -0.41030
       3     C     2.98305  2.98305  0.00000  0.03391
       4     C     3.10147  3.10147  0.00000 -0.20294
       5     H     0.45654  0.45654  0.00000  0.08691
       6     H     0.45469  0.45469  0.00000  0.09062
       7     C     3.09893  3.09893  0.00000 -0.19786
       8     H     0.45655  0.45655  0.00000  0.08690
       9     H     0.45062  0.45062  0.00000  0.09876
      10     C     3.09394  3.09394  0.00000 -0.18788
      11     H     0.45130  0.45130  0.00000  0.09740
      12     H     0.45117  0.45117  0.00000  0.09765
      13     C     3.09474  3.09474  0.00000 -0.18948
      14     H     0.45495  0.45495  0.00000  0.09010
      15     H     0.44121  0.44121  0.00000  0.11759
      16     C     3.08901  3.08901  0.00000 -0.17802
      17     H     0.45627  0.45627  0.00000  0.08746
      18     H     0.45121  0.45121  0.00000  0.09758
      19     C     3.15355  3.15355  0.00000 -0.30710
      20     H     0.44987  0.44987  0.00000  0.10026
      21     H     0.45433  0.45433  0.00000  0.09134
      22     H     0.45604  0.45604  0.00000  0.08793
      23     H     0.44670  0.44670  0.00000  0.10659
      24     H     0.45264  0.45264  0.00000  0.09472

   Total alpha = 33.00000, Total beta = 33.00000, Total charge = -0.00000

*** Psi4 exiting successfully. Buy a developer a beer!
