  ==> Input File <==

--------------------------------------------------------------------------
set {
	reference rhf
	basis cc-pvtz
}

set_num_threads( 4 )
memory 2 gb

molecule MOL {
0 1

H	 -3.144994	 -1.202467	 -0.018751
O	 -2.321472	 -0.864941	 -0.318626
C	 -2.021813	 0.336996	 0.342658
C	 -0.669613	 0.837286	 -0.127252
H	 -2.780861	 1.084746	 0.127159
H	 -2.006390	 0.184138	 1.420053
C	 0.490865	 -0.082543	 0.241244
H	 -0.708709	 0.967192	 -1.204587
H	 -0.507562	 1.822272	 0.303070
C	 0.145224	 -1.061225	 1.359869
H	 1.342852	 0.519333	 0.536068
H	 0.798054	 -0.641099	 -0.640669
C	 1.302012	 -1.986110	 1.723481
H	 -0.159699	 -0.503809	 2.241352
H	 -0.713996	 -1.658634	 1.065705
H	 2.165281	 -1.419238	 2.055652
H	 1.026141	 -2.666698	 2.520976
H	 1.608815	 -2.583093	 0.870880

	symmetry c1
}
set optking {
	frozen_dihedral = ("
		10 7 4 8
	")
}

ee = optimize('scf')
oeprop('DIPOLE', 'QUADRUPOLE', 'MULLIKEN_CHARGES')
f=open( 'psi4out.xyz', 'w' )
f.write( "18  " )
f.write( str(ee) + "\n" )
f.write( MOL.save_string_xyz() )
f.close()
--------------------------------------------------------------------------

    Molecular point group: c1
  Charge       = 0
  Multiplicity = 1
  Basis Set: CC-PVTZ
  Basis Set:
  @DF-RHF Final Energy:  -271.27530497018040
    Total Energy =                       -271.2753049701804571
    Molecular point group: c1
  Basis Set: CC-PVTZ
  Basis Set:
  Basis Set: CC-PVTZ
  Basis Set:
  @DF-RHF Final Energy:  -271.27819345535545
    Total Energy =                       -271.2781934553554493
  Basis Set: CC-PVTZ
  Basis Set:
  Basis Set: CC-PVTZ
  Basis Set:
  @DF-RHF Final Energy:  -271.27918225811288
    Total Energy =                       -271.2791822581128827
  Basis Set: CC-PVTZ
  Basis Set:
  Basis Set: CC-PVTZ
  Basis Set:
  @DF-RHF Final Energy:  -271.27930666679953
    Total Energy =                       -271.2793066667998119
  Basis Set: CC-PVTZ
  Basis Set:
  Basis Set: CC-PVTZ
  Basis Set:
  @DF-RHF Final Energy:  -271.27931349376689
    Total Energy =                       -271.2793134937671766
  Basis Set: CC-PVTZ
  Basis Set:
  Basis Set: CC-PVTZ
  Basis Set:
  @DF-RHF Final Energy:  -271.27932025154632
    Total Energy =                       -271.2793202515461530
  Basis Set: CC-PVTZ
  Basis Set:
  Charge       = 0
  Multiplicity = 1
  Basis Set: CC-PVTZ
  Basis Set:

    Orbital Energies (a.u.)
    -----------------------

    Doubly Occupied:

       1A    -20.547136     2A    -11.265428     3A    -11.211438
       4A    -11.207287     5A    -11.205623     6A    -11.201495
       7A     -1.364584     8A     -1.072792     9A     -1.007286
      10A     -0.913895    11A     -0.834364    12A     -0.765788
      13A     -0.709134    14A     -0.645009    15A     -0.628511
      16A     -0.584358    17A     -0.562718    18A     -0.554982
      19A     -0.537254    20A     -0.495522    21A     -0.494054
      22A     -0.466400    23A     -0.454107    24A     -0.445229
      25A     -0.430806

  @DF-RHF Final Energy:  -271.27932120280025

   => Energetics <=

    Nuclear Repulsion Energy =            255.3601925318420456
    One-Electron Energy =                -874.0686213918634166
    Two-Electron Energy =                 347.4291076572210955
    DFT Exchange-Correlation Energy =       0.0000000000000000
    Empirical Dispersion Energy =           0.0000000000000000
    PCM Polarization Energy =               0.0000000000000000
    EFP Energy =                            0.0000000000000000
    Total Energy =                       -271.2793212028003040
    Molecular point group: c1
  Basis Set: CC-PVTZ
  Basis Set:

  -Total Gradient:
     Atom            X                  Y                   Z
    ------   -----------------  -----------------  -----------------
       1       -0.000003676735     0.000003739480    -0.000008636543
       2        0.000012568321    -0.000004610155    -0.000004975496
       3       -0.000021324277    -0.000026720631     0.000029526795
       4        0.003844804213     0.004268028838    -0.000979694459
       5        0.000016306599    -0.000004410896    -0.000002388092
       6        0.000005201260     0.000013840865     0.000011666755
       7        0.001293044794     0.003312158850     0.004181521740
       8       -0.003663809982    -0.004573400022    -0.000287892974
       9        0.000006270384    -0.000008386384     0.000000235271
      10       -0.001452573746    -0.002987435399    -0.002899889617
      11       -0.000010763477     0.000002457232    -0.000002939994
      12       -0.000000261793    -0.000001520154    -0.000007120006
      13        0.000009365994    -0.000003908567    -0.000007706724
      14       -0.000006512367     0.000003441817    -0.000010076292
      15       -0.000027694552    -0.000005009755    -0.000008693703
      16        0.000005458230     0.000002495522     0.000004884342
      17       -0.000006904073     0.000010879400    -0.000009422989
      18        0.000000501203    -0.000001640041     0.000001601985

  **** Optimization is complete! (in 7 steps) ****
    Final optimized geometry and variables:
    Molecular point group: c1

    Geometry (in Angstrom), charge = 0, multiplicity = 1:

    H           -2.729727661683    -0.564828959315    -0.710315454970
    O           -1.862949067203    -0.286774819887    -0.942051210697
    C           -1.522040391382     0.877726475004    -0.232625350642
    C           -0.118648440272     1.303666866095    -0.629809888378
    H           -2.210994441612     1.680988610528    -0.481415923481
    H           -1.594243927615     0.707560203557     0.837202038175
    C            1.035169247658     0.353509278691    -0.235420359421
    H           -0.144776820805     1.392635746056    -1.709881022424
    H            0.051303571437     2.292251754329    -0.216876736846
    C            0.771396327837    -0.628571142441     0.905629922318
    H            1.908703019273     0.951540629927     0.004994898134
    H            1.309018008112    -0.232127185851    -1.106806050695
    C            1.988106054742    -1.499510371654     1.203274208988
    H            0.496996115938    -0.088593103246     1.808653157886
    H           -0.069183824450    -1.260545592580     0.650845908996
    H            2.842818326049    -0.897384887745     1.493898066866
    H            1.784299419600    -2.194595720570     2.009947421194
    H            2.275037650736    -2.079526206552     0.332408368930

  Mulliken Charges: (a.u.)
   Center  Symbol    Alpha    Beta     Spin     Total
       1     H     0.39445  0.39445  0.00000  0.21110
       2     O     4.20284  4.20284  0.00000 -0.40568
       3     C     2.98454  2.98454  0.00000  0.03093
       4     C     3.09848  3.09848  0.00000 -0.19695
       5     H     0.45739  0.45739  0.00000  0.08523
       6     H     0.46538  0.46538  0.00000  0.06924
       7     C     3.08437  3.08437  0.00000 -0.16873
       8     H     0.44996  0.44996  0.00000  0.10008
       9     H     0.45110  0.45110  0.00000  0.09779
      10     C     3.09045  3.09045  0.00000 -0.18091
      11     H     0.45260  0.45260  0.00000  0.09481
      12     H     0.45242  0.45242  0.00000  0.09517
      13     C     3.15177  3.15177  0.00000 -0.30355
      14     H     0.45743  0.45743  0.00000  0.08514
      15     H     0.44612  0.44612  0.00000  0.10775
      16     H     0.45653  0.45653  0.00000  0.08695
      17     H     0.44961  0.44961  0.00000  0.10079
      18     H     0.45457  0.45457  0.00000  0.09086

   Total alpha = 25.00000, Total beta = 25.00000, Total charge =  0.00000
