  ==> Input File <==

--------------------------------------------------------------------------
set {
	reference rhf
	basis 6-31G*
}

set_num_threads( 1 )
memory 2 gb

molecule MOL {
0 1

H	 -2.499100	 -0.730091	 -0.745082
O	 -2.347518	 -0.290803	 0.079804
C	 -1.184022	 0.487508	 -0.006784
C	 0.062599	 -0.378592	 0.031606
H	 -1.176523	 1.099369	 -0.904519
H	 -1.187323	 1.153111	 0.844927
O	 1.171513	 0.459272	 -0.058250
H	 0.050699	 -1.089204	 -0.797170
H	 0.078739	 -0.954914	 0.954740
C	 1.121387	 1.372699	 -1.108146
H	 0.266882	 2.040262	 -1.014281
H	 2.029211	 1.958912	 -1.074801
H	 1.061571	 0.868702	 -2.070539

	symmetry c1
}
set optking {
	frozen_dihedral = ("
		8 4 3 5,
		1 2 3 5,
		4 7 10 13
	")
}

ee = energy('scf')
oeprop('DIPOLE', 'QUADRUPOLE', 'MULLIKEN_CHARGES')
f=open( 'psi4out.xyz', 'w' )
f.write( "13  " )
f.write( str(ee) + "\n" )
f.write( MOL.save_string_xyz() )
f.close()
--------------------------------------------------------------------------

    Molecular point group: c1

    Geometry (in Angstrom), charge = 0, multiplicity = 1:

       Center              X                  Y                   Z               Mass
    ------------   -----------------  -----------------  -----------------  -----------------
           H         -2.233531342634    -1.056894274734    -0.514984532981     1.007825032070
           O         -2.081949342634    -0.617606274734     0.309901467019    15.994914619560
           C         -0.918453342634     0.160704725266     0.223313467019    12.000000000000
           C          0.328167657366    -0.705395274734     0.261703467019    12.000000000000
           H         -0.910954342634     0.772565725266    -0.674421532981     1.007825032070
           H         -0.921754342634     0.826307725266     1.075024467019     1.007825032070
           O          1.437081657366     0.132468725266     0.171847467019    15.994914619560
           H          0.316267657366    -1.416007274734    -0.567072532981     1.007825032070
           H          0.344307657366    -1.281717274734     1.184837467019     1.007825032070
           C          1.386955657366     1.045895725266    -0.878048532981    12.000000000000
           H          0.532450657366     1.713458725266    -0.784183532981     1.007825032070
           H          2.294779657366     1.632108725266    -0.844703532981     1.007825032070
           H          1.327139657366     0.541898725266    -1.840441532981     1.007825032070

  Charge       = 0
  Multiplicity = 1
  Basis Set: 6-31G*
  Basis Set:

    Orbital Energies (a.u.)
    -----------------------

    Doubly Occupied:

       1A    -20.561709     2A    -20.561506     3A    -11.272254
       4A    -11.271312     5A    -11.270222     6A     -1.391739
       7A     -1.366539     8A     -1.011756     9A     -0.942529
      10A     -0.830587    11A     -0.719691    12A     -0.677616
      13A     -0.663018    14A     -0.631841    15A     -0.596713
      16A     -0.577989    17A     -0.540169    18A     -0.506751
      19A     -0.490145    20A     -0.445902    21A     -0.404372

  @DF-RHF Final Energy:  -267.93512026039167

   => Energetics <=

    Nuclear Repulsion Energy =            195.5136133614241771
    One-Electron Energy =                -753.4287596867254706
    Two-Electron Energy =                 289.9800260649096799
    DFT Exchange-Correlation Energy =       0.0000000000000000
    Empirical Dispersion Energy =           0.0000000000000000
    PCM Polarization Energy =               0.0000000000000000
    EFP Energy =                            0.0000000000000000
    Total Energy =                       -267.9351202603916136

  Mulliken Charges: (a.u.)
   Center  Symbol    Alpha    Beta     Spin     Total
       1     H     0.28159  0.28159  0.00000  0.43683
       2     O     4.37321  4.37321  0.00000 -0.74641
       3     C     3.01488  3.01488  0.00000 -0.02975
       4     C     2.99909  2.99909  0.00000  0.00182
       5     H     0.42585  0.42585  0.00000  0.14830
       6     H     0.40773  0.40773  0.00000  0.18454
       7     O     4.30302  4.30302  0.00000 -0.60604
       8     H     0.43572  0.43572  0.00000  0.12855
       9     H     0.40545  0.40545  0.00000  0.18910
      10     C     3.09103  3.09103  0.00000 -0.18206
      11     H     0.42488  0.42488  0.00000  0.15023
      12     H     0.40787  0.40787  0.00000  0.18426
      13     H     0.42968  0.42968  0.00000  0.14063

   Total alpha = 21.00000, Total beta = 21.00000, Total charge = -0.00000
