  ==> Input File <==

--------------------------------------------------------------------------
set {
	reference rhf
	basis 6-31G*
}

set_num_threads( 4 )
memory 2 gb

molecule MOL {
0 1

H	 -2.459596	 -0.844464	 0.596843
O	 -2.315789	 -0.143634	 -0.024262
C	 -0.945151	 -0.064130	 -0.333158
H	 -0.813375	 -0.223047	 -1.403232
C	 -0.232801	 -1.184051	 0.407206
C	 -0.355424	 1.302939	 0.054523
H	 -0.318824	 -0.992899	 1.473524
H	 -0.742411	 -2.122033	 0.217954
C	 1.248522	 -1.270719	 -0.013048
H	 -0.546144	 2.018388	 -0.742941
H	 -0.890929	 1.656788	 0.930149
C	 1.156425	 1.235120	 0.355905
H	 1.825384	 -1.683246	 0.809111
H	 1.357782	 -1.965923	 -0.840362
C	 1.828244	 0.099899	 -0.419275
H	 1.626109	 2.185622	 0.123525
H	 1.309438	 1.071213	 1.419539
H	 2.901447	 0.112642	 -0.255830
H	 1.681817	 0.263413	 -1.484607

	symmetry c1
}
set optking {
	frozen_dihedral = ("
		1 2 3 4
	")
}

ee = optimize('scf')
oeprop('DIPOLE', 'QUADRUPOLE', 'MULLIKEN_CHARGES')
f=open( 'psi4out.xyz', 'w' )
f.write( "19  " )
f.write( str(ee) + "\n" )
f.write( MOL.save_string_xyz() )
f.close()
--------------------------------------------------------------------------

    Molecular point group: c1
  Charge       = 0
  Multiplicity = 1
  Basis Set: 6-31G*
  Basis Set:
  @DF-RHF Final Energy:  -309.04427431403195
    Total Energy =                       -309.0442743140320658
    Molecular point group: c1
  Basis Set: 6-31G*
  Basis Set:
  Basis Set: 6-31G*
  Basis Set:
  @DF-RHF Final Energy:  -309.04563244927033
    Total Energy =                       -309.0456324492703857
  Basis Set: 6-31G*
  Basis Set:
  Basis Set: 6-31G*
  Basis Set:
  @DF-RHF Final Energy:  -309.04596439040125
    Total Energy =                       -309.0459643904011955
  Basis Set: 6-31G*
  Basis Set:
  Basis Set: 6-31G*
  Basis Set:
  @DF-RHF Final Energy:  -309.04597161389268
    Total Energy =                       -309.0459716138925046
  Basis Set: 6-31G*
  Basis Set:
  Charge       = 0
  Multiplicity = 1
  Basis Set: 6-31G*
  Basis Set:

    Orbital Energies (a.u.)
    -----------------------

    Doubly Occupied:

       1A    -20.546981     2A    -11.268655     3A    -11.222110
       4A    -11.221465     5A    -11.217702     6A    -11.215820
       7A    -11.207826     8A     -1.356340     9A     -1.110678
      10A     -1.004950    11A     -0.988993    12A     -0.852159
      13A     -0.833851    14A     -0.745184    15A     -0.679627
      16A     -0.665679    17A     -0.621619    18A     -0.602447
      19A     -0.577257    20A     -0.550312    21A     -0.531540
      22A     -0.522126    23A     -0.500480    24A     -0.490695
      25A     -0.465128    26A     -0.449149    27A     -0.427270
      28A     -0.411291

  @DF-RHF Final Energy:  -309.04597242549391

   => Energetics <=

    Nuclear Repulsion Energy =            331.2620323980926287
    One-Electron Energy =               -1076.0413455333796264
    Two-Electron Energy =                 435.7333407097931968
    DFT Exchange-Correlation Energy =       0.0000000000000000
    Empirical Dispersion Energy =           0.0000000000000000
    PCM Polarization Energy =               0.0000000000000000
    EFP Energy =                            0.0000000000000000
    Total Energy =                       -309.0459724254938010
    Molecular point group: c1
  Basis Set: 6-31G*
  Basis Set:

  -Total Gradient:
     Atom            X                  Y                   Z
    ------   -----------------  -----------------  -----------------
       1       -0.000001510896    -0.000058143618    -0.000064006961
       2        0.000001412872     0.000035900205     0.000086347695
       3       -0.000005191916     0.000047252656     0.000002695272
       4        0.000014850248    -0.000063089332     0.000012442871
       5       -0.000028471407     0.000024851138    -0.000037797256
       6        0.000054470083     0.000010601778     0.000014436289
       7        0.000010216626    -0.000012066651    -0.000012384564
       8        0.000012118690    -0.000003366099     0.000006713852
       9       -0.000010122073    -0.000011035476     0.000051826944
      10        0.000022873192     0.000013490609    -0.000021124495
      11       -0.000003148293    -0.000004332680    -0.000012010990
      12       -0.000029716122     0.000023092158    -0.000016394932
      13        0.000021651686    -0.000021522728     0.000001542604
      14       -0.000016595396     0.000002424908    -0.000001225896
      15       -0.000018399350     0.000020229768    -0.000025612866
      16       -0.000018404175     0.000014359555     0.000016843548
      17        0.000001640174    -0.000001815805     0.000004437689
      18       -0.000011945613    -0.000025815023    -0.000000252839
      19        0.000004271669     0.000008984640    -0.000006475966

  **** Optimization is complete! (in 5 steps) ****
    Final optimized geometry and variables:
    Molecular point group: c1

    Geometry (in Angstrom), charge = 0, multiplicity = 1:

    H           -2.560350208297    -0.764624271403     0.526691013700
    O           -2.336918772749    -0.071598610210    -0.076865899213
    C           -0.948302158564    -0.069003223406    -0.323913565144
    H           -0.819261320621    -0.226097678050    -1.391277245994
    C           -0.217676777465    -1.187305008395     0.410966935041
    C           -0.364245443943     1.298706501128     0.062176884494
    H           -0.290994149949    -1.002262676782     1.481493549560
    H           -0.709804262830    -2.138289837546     0.221919818966
    C            1.262110289169    -1.263441346713    -0.018206846749
    H           -0.576805640112     2.009021664401    -0.731024461552
    H           -0.896240918032     1.647990237707     0.940754204829
    C            1.151399973648     1.241549473428     0.345401186004
    H            1.847741375003    -1.666299213651     0.802387652986
    H            1.369105076562    -1.962161802075    -0.842331261394
    C            1.823645580646     0.110859069908    -0.435809092858
    H            1.612017369598     2.194591861074     0.105623697274
    H            1.322013347937     1.080953535393     1.407473431296
    H            2.898665812047     0.130384321476    -0.286098941045
    H            1.661541108088     0.268969663291    -1.499295667707

  Mulliken Charges: (a.u.)
   Center  Symbol    Alpha    Beta     Spin     Total
       1     H     0.27967  0.27967  0.00000  0.44067
       2     O     4.38683  4.38683  0.00000 -0.77366
       3     C     2.89329  2.89329  0.00000  0.21343
       4     H     0.42378  0.42378  0.00000  0.15244
       5     C     3.19389  3.19389  0.00000 -0.38778
       6     C     3.16197  3.16197  0.00000 -0.32394
       7     H     0.41955  0.41955  0.00000  0.16090
       8     H     0.41671  0.41671  0.00000  0.16658
       9     C     3.15742  3.15742  0.00000 -0.31484
      10     H     0.41574  0.41574  0.00000  0.16852
      11     H     0.41391  0.41391  0.00000  0.17219
      12     C     3.16584  3.16584  0.00000 -0.33169
      13     H     0.41727  0.41727  0.00000  0.16546
      14     H     0.41675  0.41675  0.00000  0.16650
      15     C     3.16439  3.16439  0.00000 -0.32877
      16     H     0.41585  0.41585  0.00000  0.16829
      17     H     0.42123  0.42123  0.00000  0.15753
      18     H     0.41624  0.41624  0.00000  0.16753
      19     H     0.41967  0.41967  0.00000  0.16066

   Total alpha = 28.00000, Total beta = 28.00000, Total charge =  0.00000
