  ==> Input File <==

--------------------------------------------------------------------------
set {
	reference rhf
	basis cc-pvtz
}

set_num_threads( 4 )
memory 2 gb

molecule MOL {
0 1

H	 1.651007	 1.615294	 -0.099499
C	 1.804780	 0.544219	 -0.033838
N	 0.526300	 -0.128137	 0.000000
H	 2.348222	 0.346066	 0.881283
H	 2.433919	 0.248133	 -0.875912
C	 -0.247113	 0.037112	 -1.209233
H	 0.657032	 -1.097883	 0.190162
H	 -0.996493	 -0.743733	 -1.271440
H	 0.397975	 -0.057351	 -2.073512
H	 -0.763794	 0.997171	 -1.271673

	symmetry c1
}
set optking {
	frozen_dihedral = ("
		2 3 6 8
	")
}

ee = optimize('scf')
oeprop('DIPOLE', 'QUADRUPOLE', 'MULLIKEN_CHARGES')
f=open( 'psi4out.xyz', 'w' )
f.write( "10  " )
f.write( str(ee) + "\n" )
f.write( MOL.save_string_xyz() )
f.close()
--------------------------------------------------------------------------

    Molecular point group: c1
  Charge       = 0
  Multiplicity = 1
  Basis Set: CC-PVTZ
  Basis Set:
  @DF-RHF Final Energy:  -134.29136788887672
    Total Energy =                       -134.2913678888766924
    Molecular point group: c1
  Basis Set: CC-PVTZ
  Basis Set:
  Basis Set: CC-PVTZ
  Basis Set:
  @DF-RHF Final Energy:  -134.29208336949756
    Total Energy =                       -134.2920833694975613
  Basis Set: CC-PVTZ
  Basis Set:
  Basis Set: CC-PVTZ
  Basis Set:
  @DF-RHF Final Energy:  -134.29218548484988
    Total Energy =                       -134.2921854848499379
  Basis Set: CC-PVTZ
  Basis Set:
  Basis Set: CC-PVTZ
  Basis Set:
  @DF-RHF Final Energy:  -134.29218669972644
    Total Energy =                       -134.2921866997263862
  Basis Set: CC-PVTZ
  Basis Set:
  Charge       = 0
  Multiplicity = 1
  Basis Set: CC-PVTZ
  Basis Set:

    Orbital Energies (a.u.)
    -----------------------

    Doubly Occupied:

       1A    -15.532659     2A    -11.234414     3A    -11.234333
       4A     -1.200704     5A     -0.948430     6A     -0.854474
       7A     -0.662462     8A     -0.613835     9A     -0.591935
      10A     -0.541589    11A     -0.509504    12A     -0.505585
      13A     -0.364963

  @DF-RHF Final Energy:  -134.29218684833498

   => Energetics <=

    Nuclear Repulsion Energy =             84.7055426060277625
    One-Electron Energy =                -348.4056853049136180
    Two-Electron Energy =                 129.4079558505508203
    DFT Exchange-Correlation Energy =       0.0000000000000000
    Empirical Dispersion Energy =           0.0000000000000000
    PCM Polarization Energy =               0.0000000000000000
    EFP Energy =                            0.0000000000000000
    Total Energy =                       -134.2921868483350636
    Molecular point group: c1
  Basis Set: CC-PVTZ
  Basis Set:

  -Total Gradient:
     Atom            X                  Y                   Z
    ------   -----------------  -----------------  -----------------
       1        0.000000836649     0.000001808972    -0.000000153913
       2        0.000906139199    -0.001847626759    -0.000789693447
       3       -0.000829756002     0.002144062790     0.000732552128
       4        0.000012820489     0.000003413362     0.000004135608
       5       -0.000004561333     0.000000425261    -0.000007388184
       6       -0.001971466841     0.001377670331     0.001445129199
       7       -0.000001548723     0.000012172355     0.000002632676
       8        0.001874293345    -0.001688061314    -0.001380600776
       9        0.000007545389    -0.000005184390    -0.000008604629
      10        0.000005697829     0.000001319394     0.000001991336

  **** Optimization is complete! (in 5 steps) ****
    Final optimized geometry and variables:
    Molecular point group: c1

    Geometry (in Angstrom), charge = 0, multiplicity = 1:

    H            0.949635697535     1.472253224097     0.317260684051
    C            1.097619271411     0.401488151542     0.402827405004
    N           -0.183114081358    -0.267512939033     0.434211994947
    H            1.631024406949     0.217818008522     1.326878458550
    H            1.731910948146     0.088386537563    -0.428644683266
    C           -0.949449305047    -0.115234189673    -0.784236071450
    H           -0.045669774620    -1.236000006543     0.623911766225
    H           -1.699998662481    -0.892897689911    -0.845158032590
    H           -0.337324126267    -0.187275471349    -1.685410462593
    H           -1.449561709374     0.846256989840    -0.800563629029

  Mulliken Charges: (a.u.)
   Center  Symbol    Alpha    Beta     Spin     Total
       1     H     0.45711  0.45711  0.00000  0.08578
       2     C     3.08215  3.08215  0.00000 -0.16429
       3     N     3.62767  3.62767  0.00000 -0.25534
       4     H     0.45261  0.45261  0.00000  0.09478
       5     H     0.47389  0.47389  0.00000  0.05222
       6     C     3.07805  3.07805  0.00000 -0.15610
       7     H     0.44112  0.44112  0.00000  0.11775
       8     H     0.45488  0.45488  0.00000  0.09024
       9     H     0.47695  0.47695  0.00000  0.04610
      10     H     0.45557  0.45557  0.00000  0.08886

   Total alpha = 13.00000, Total beta = 13.00000, Total charge =  0.00000
