                              Psi4 1.0.54 Driver

  ==> Input File <==

--------------------------------------------------------------------------
set {
	reference rhf
	basis cc-pvtz
}

set_num_threads( 4 )
memory 2 gb

molecule MOL {
0 1

O	 -2.817697	 1.304178	 0.001046
C	 -2.664672	 0.129869	 0.003507
C	 -3.797908	 -0.860100	 -0.001145
O	 -1.481217	 -0.452708	 0.001092
H	 -4.408836	 -0.679689	 -0.875387
H	 -3.443486	 -1.878443	 -0.002770
H	 -4.412123	 -0.683688	 0.871605
C	 -0.332055	 0.384012	 -0.000250
C	 0.892252	 -0.506059	 -0.000295
H	 -0.360822	 1.020205	 -0.874146
H	 -0.359817	 1.021310	 0.872861
C	 2.188199	 0.299473	 -0.001416
H	 0.857046	 -1.152781	 -0.871031
H	 0.857910	 -1.151798	 0.871202
C	 2.783200	 0.476428	 1.392781
H	 2.918319	 -0.189224	 -0.641788
H	 2.006416	 1.278043	 -0.438830
C	 4.077613	 1.282345	 1.392242
H	 2.966934	 -0.500778	 1.830236
H	 2.054546	 0.964831	 2.033571
H	 4.838200	 0.800935	 0.786769
H	 4.473064	 1.389536	 2.395554
H	 3.918801	 2.277802	 0.991371

	symmetry c1
}
set optking {
	frozen_dihedral = ("
		16 12 9 13
	")
}

ee,wfn = optimize('scf', return_wfn=True)
oeprop( wfn, 'DIPOLE', 'QUADRUPOLE', 'MULLIKEN_CHARGES')
f=open( 'psi4out.xyz', 'w' )
f.write( "23  " )
f.write( str(ee) + "\n" )
f.write( MOL.save_string_xyz() )
f.close()
--------------------------------------------------------------------------

    Molecular point group: c1
  Charge       = 0
  Multiplicity = 1
  Basis Set: CC-PVTZ
  Basis Set:
  @DF-RHF Final Energy:  -423.13100320586415
    Total Energy =                       -423.1310032058647721
    Molecular point group: c1
  Basis Set: CC-PVTZ
  Basis Set:
  Basis Set: CC-PVTZ
  Basis Set:
  @DF-RHF Final Energy:  -423.13111612638488
    Total Energy =                       -423.1311161263852227
  Basis Set: CC-PVTZ
  Basis Set:
  Basis Set: CC-PVTZ
  Basis Set:
  @DF-RHF Final Energy:  -423.13119217100001
    Total Energy =                       -423.1311921710000661
  Basis Set: CC-PVTZ
  Basis Set:
  Basis Set: CC-PVTZ
  Basis Set:
  @DF-RHF Final Energy:  -423.13130749540949
    Total Energy =                       -423.1313074954098283
  Basis Set: CC-PVTZ
  Basis Set:
  Basis Set: CC-PVTZ
  Basis Set:
  @DF-RHF Final Energy:  -423.13133401041989
    Total Energy =                       -423.1313340104202325
  Basis Set: CC-PVTZ
  Basis Set:
  Basis Set: CC-PVTZ
  Basis Set:
  @DF-RHF Final Energy:  -423.13133532458500
    Total Energy =                       -423.1313353245853932
  Basis Set: CC-PVTZ
  Basis Set:
  Charge       = 0
  Multiplicity = 1
  Basis Set: CC-PVTZ
  Basis Set:

    Orbital Energies (a.u.)
    -----------------------

    Doubly Occupied:

       1A    -20.596034     2A    -20.529711     3A    -11.366586
       4A    -11.279794     5A    -11.230763     6A    -11.222072
       7A    -11.221254     8A    -11.219591     9A    -11.210678
      10A     -1.471372    11A     -1.364192    12A     -1.094322
      13A     -1.042270    14A     -1.003612    15A     -0.931462
      16A     -0.846751    17A     -0.798388    18A     -0.780575
      19A     -0.691199    20A     -0.688239    21A     -0.675693
      22A     -0.634299    23A     -0.616862    24A     -0.587510
      25A     -0.580516    26A     -0.572668    27A     -0.561645
      28A     -0.531981    29A     -0.527615    30A     -0.505117
      31A     -0.497109    32A     -0.478232    33A     -0.468933
      34A     -0.464757    35A     -0.452106    36A     -0.439397

  @DF-RHF Final Energy:  -423.13133602440621

   => Energetics <=

    Nuclear Repulsion Energy =            454.7099389032705403
    One-Electron Energy =               -1477.3159431500052960
    Two-Electron Energy =                 599.4746682223288872
    DFT Exchange-Correlation Energy =       0.0000000000000000
    Empirical Dispersion Energy =           0.0000000000000000
    PCM Polarization Energy =               0.0000000000000000
    EFP Energy =                            0.0000000000000000
    Total Energy =                       -423.1313360244058686
    Molecular point group: c1
  Basis Set: CC-PVTZ
  Basis Set:

  -Total Gradient:
     Atom            X                  Y                   Z
    ------   -----------------  -----------------  -----------------
       1       -0.000002027135    -0.000011677152     0.000004578931
       2        0.000007089475    -0.000001612383    -0.000011238356
       3       -0.000001838743     0.000006811840    -0.000001252639
       4       -0.000012828230    -0.000004502702     0.000004200654
       5        0.000008248564    -0.000000199061     0.000007072519
       6        0.000003423120     0.000003913476    -0.000001397947
       7        0.000000607350     0.000001399354    -0.000000135407
       8        0.000002098286     0.000004124552    -0.000003522944
       9       -0.001606016319     0.002971593134    -0.002260399110
      10        0.000002965871    -0.000004158024     0.000003738785
      11       -0.000005157627     0.000004184624     0.000005322706
      12        0.001278489642    -0.002443667657     0.002960608739
      13        0.001140736312    -0.002083094432     0.001400125649
      14       -0.000000691733     0.000008592237     0.000000089131
      15       -0.000012081927     0.000023139338    -0.000005629492
      16       -0.000796794095     0.001534586705    -0.002126218248
      17       -0.000005247485    -0.000005209189     0.000013472717
      18        0.000004301093    -0.000005731221     0.000004701457
      19        0.000003422339     0.000009180562    -0.000005400456
      20        0.000004611365     0.000002404554     0.000010903160
      21       -0.000005975136    -0.000000183520    -0.000000186975
      22       -0.000001119775    -0.000001691902    -0.000001119304
      23       -0.000006215220    -0.000008203132     0.000001686430

  **** Optimization is complete! (in 7 steps) ****
    Final optimized geometry and variables:
    Molecular point group: c1

    Geometry (in Angstrom), charge = 0, multiplicity = 1:

    O           -2.631060344803     1.140067111935    -0.288751278015
    C           -2.513047361087    -0.038326681554    -0.292147946390
    C           -3.674863234797    -0.994300926550    -0.263296473623
    O           -1.347550351862    -0.655345022829    -0.321320852684
    H           -4.303778335577    -0.797169050085    -1.121065636597
    H           -3.350842180818    -2.022710551062    -0.272207657835
    H           -4.259492681529    -0.798328783246     0.625528183680
    C           -0.175393499699     0.147068965984    -0.352508841680
    C            1.023633031542    -0.776859642672    -0.378367997173
    H           -0.204162655674     0.779368460463    -1.229114325281
    H           -0.165163843513     0.789930671848     0.516974444405
    C            2.353477397662    -0.009754593927    -0.324455547903
    H            0.978423709526    -1.400741165315    -1.263273075762
    H            0.956190295515    -1.456166758824     0.465224319101
    C            2.920592692167     0.150152786106     1.083968605426
    H            3.082401448362    -0.502614205943    -0.958822460012
    H            2.218129633525     0.976023177732    -0.764486491741
    C            4.205953129883     0.969148253038     1.120461384013
    H            3.107030430153    -0.833744252575     1.504628597354
    H            2.177813695332     0.618282724224     1.724013717437
    H            4.978235942115     0.511372594519     0.511198472089
    H            4.588645587908     1.053294362685     2.130907874357
    H            4.041544109653     1.973261745179     0.744254727835

  Mulliken Charges: (a.u.)
   Center  Symbol    Alpha    Beta     Spin     Total
       1     O     4.20240  4.20240  0.00000 -0.40479
       2     C     2.81473  2.81473  0.00000  0.37054
       3     C     3.13964  3.13964  0.00000 -0.27928
       4     O     4.14530  4.14530  0.00000 -0.29061
       5     H     0.44211  0.44211  0.00000  0.11578
       6     H     0.44182  0.44182  0.00000  0.11635
       7     H     0.44218  0.44218  0.00000  0.11564
       8     C     2.97551  2.97551  0.00000  0.04899
       9     C     3.09107  3.09107  0.00000 -0.18214
      10     H     0.45365  0.45365  0.00000  0.09269
      11     H     0.45390  0.45390  0.00000  0.09220
      12     C     3.10687  3.10687  0.00000 -0.21373
      13     H     0.44420  0.44420  0.00000  0.11161
      14     H     0.45220  0.45220  0.00000  0.09559
      15     C     3.08205  3.08205  0.00000 -0.16411
      16     H     0.44449  0.44449  0.00000  0.11102
      17     H     0.45509  0.45509  0.00000  0.08982
      18     C     3.15003  3.15003  0.00000 -0.30005
      19     H     0.45303  0.45303  0.00000  0.09394
      20     H     0.45360  0.45360  0.00000  0.09280
      21     H     0.45466  0.45466  0.00000  0.09068
      22     H     0.44756  0.44756  0.00000  0.10489
      23     H     0.45391  0.45391  0.00000  0.09217

   Total alpha = 36.00000, Total beta = 36.00000, Total charge = -0.00000

*** Psi4 exiting successfully. Buy a developer a beer!
