  ==> Input File <==

--------------------------------------------------------------------------
set {
	reference rhf
	basis 6-31G*
}

set_num_threads( 1 )
memory 2 gb

molecule MOL {
0 1

H	 -3.085097	 0.173137	 3.119037
C	 -2.210974	 0.203806	 2.493134
C	 -1.923639	 1.346993	 1.762580
C	 -1.375493	 -0.899591	 2.419528
H	 -2.572421	 2.202028	 1.820568
C	 -0.799511	 1.385673	 0.958016
H	 -1.599840	 -1.784889	 2.986558
C	 -0.249671	 -0.863143	 1.614811
H	 -0.561543	 2.261757	 0.385722
C	 0.041074	 0.281107	 0.881379
H	 0.399633	 -1.714688	 1.554840
C	 1.239129	 0.373821	 0.000060
O	 1.970282	 -0.730723	 0.000018
O	 1.519838	 1.336790	 -0.642399
C	 3.377318	 -0.566646	 -0.000065
H	 3.695437	 -0.028981	 -0.881264
H	 3.789299	 -1.563704	 0.000236
H	 3.695516	 -0.028316	 0.880770

	symmetry c1
}
set optking {
	frozen_dihedral = ("
		12 13 15 16,
		13 12 10 6
	")
}

ee = energy('scf')
oeprop('DIPOLE', 'QUADRUPOLE', 'MULLIKEN_CHARGES')
f=open( 'psi4out.xyz', 'w' )
f.write( "18  " )
f.write( str(ee) + "\n" )
f.write( MOL.save_string_xyz() )
f.close()
--------------------------------------------------------------------------

    Molecular point group: c1

    Geometry (in Angstrom), charge = 0, multiplicity = 1:

       Center              X                  Y                   Z               Mass
    ------------   -----------------  -----------------  -----------------  -----------------
           H         -3.355532312099    -0.005843922173     2.228041083045     1.007825032070
           C         -2.481409312099     0.024825077827     1.602138083045    12.000000000000
           C         -2.194074312099     1.168012077827     0.871584083045    12.000000000000
           C         -1.645928312099    -1.078571922173     1.528532083045    12.000000000000
           H         -2.842856312099     2.023047077827     0.929572083045     1.007825032070
           C         -1.069946312099     1.206692077827     0.067020083045    12.000000000000
           H         -1.870275312099    -1.963869922173     2.095562083045     1.007825032070
           C         -0.520106312099    -1.042123922173     0.723815083045    12.000000000000
           H         -0.831978312099     2.082776077827    -0.505273916955     1.007825032070
           C         -0.229361312099     0.102126077827    -0.009616916955    12.000000000000
           H          0.129197687901    -1.893668922173     0.663844083045     1.007825032070
           C          0.968693687901     0.194840077827    -0.890935916955    12.000000000000
           O          1.699846687901    -0.909703922173    -0.890977916955    15.994914619560
           O          1.249402687901     1.157809077827    -1.533394916955    15.994914619560
           C          3.106882687901    -0.745626922173    -0.891060916955    12.000000000000
           H          3.425001687901    -0.207961922173    -1.772259916955     1.007825032070
           H          3.518863687901    -1.742684922173    -0.890759916955     1.007825032070
           H          3.425080687901    -0.207296922173    -0.010225916955     1.007825032070

  Charge       = 0
  Multiplicity = 1
  Basis Set: 6-31G*
  Basis Set:

    Orbital Energies (a.u.)
    -----------------------

    Doubly Occupied:

       1A    -20.599508     2A    -20.546916     3A    -11.377971
       4A    -11.286207     5A    -11.246362     6A    -11.245763
       7A    -11.244538     8A    -11.242313     9A    -11.238172
      10A    -11.237379    11A     -1.469859    12A     -1.364270
      13A     -1.165841    14A     -1.047186    15A     -1.025523
      16A     -0.978608    17A     -0.862949    18A     -0.835165
      19A     -0.778245    20A     -0.739493    21A     -0.682975
      22A     -0.675760    23A     -0.669977    24A     -0.632819
      25A     -0.624601    26A     -0.599676    27A     -0.592143
      28A     -0.560391    29A     -0.527383    30A     -0.517482
      31A     -0.502083    32A     -0.498814    33A     -0.457952
      34A     -0.442498    35A     -0.345750    36A     -0.341681

  @DF-RHF Final Energy:  -457.34256933527450

   => Energetics <=

    Nuclear Repulsion Energy =            493.7225704855351864
    One-Electron Energy =               -1601.7216142724805650
    Two-Electron Energy =                 650.6564744516691690
    DFT Exchange-Correlation Energy =       0.0000000000000000
    Empirical Dispersion Energy =           0.0000000000000000
    PCM Polarization Energy =               0.0000000000000000
    EFP Energy =                            0.0000000000000000
    Total Energy =                       -457.3425693352761527

  Mulliken Charges: (a.u.)
   Center  Symbol    Alpha    Beta     Spin     Total
       1     H     0.39513  0.39513  0.00000  0.20974
       2     C     3.08969  3.08969  0.00000 -0.17939
       3     C     3.10706  3.10706  0.00000 -0.21411
       4     C     3.10701  3.10701  0.00000 -0.21401
       5     H     0.39524  0.39524  0.00000  0.20951
       6     C     3.08627  3.08627  0.00000 -0.17255
       7     H     0.39620  0.39620  0.00000  0.20761
       8     C     3.08745  3.08745  0.00000 -0.17489
       9     H     0.37592  0.37592  0.00000  0.24816
      10     C     3.07941  3.07941  0.00000 -0.15883
      11     H     0.38144  0.38144  0.00000  0.23712
      12     C     2.58143  2.58143  0.00000  0.83715
      13     O     4.31638  4.31638  0.00000 -0.63276
      14     O     4.28336  4.28336  0.00000 -0.56672
      15     C     3.09577  3.09577  0.00000 -0.19155
      16     H     0.40131  0.40131  0.00000  0.19738
      17     H     0.40659  0.40659  0.00000  0.18682
      18     H     0.41435  0.41435  0.00000  0.17131

   Total alpha = 36.00000, Total beta = 36.00000, Total charge = -0.00000
