                              Psi4 1.0.54 Driver

  ==> Input File <==

--------------------------------------------------------------------------
set {
	reference rhf
	basis cc-pvtz
}

set_num_threads( 4 )
memory 2 gb

molecule MOL {
0 1

H	 -3.081017	 -0.645049	 -0.844255
O	 -2.658848	 -0.704215	 -0.000460
C	 -1.605397	 0.107680	 0.001145
C	 -0.310616	 -0.658853	 0.000791
O	 -1.718351	 1.284629	 -0.000627
C	 0.926581	 0.227233	 0.000178
H	 -0.327628	 -1.313681	 -0.864448
H	 -0.327041	 -1.313334	 0.866298
C	 2.220156	 -0.582071	 -0.000088
H	 0.899945	 0.878221	 -0.866390
H	 0.900542	 0.878581	 0.866486
C	 3.466689	 0.296012	 -0.000457
H	 2.239073	 -1.234095	 -0.869382
H	 2.239505	 -1.233985	 0.869270
H	 3.493549	 0.935857	 -0.875887
H	 4.368821	 -0.304526	 -0.001199
H	 3.494559	 0.935166	 0.875458

	symmetry c1
}
set optking {
	frozen_dihedral = ("
		1 2 3 5
	")
}

ee,wfn = optimize('scf', return_wfn=True)
oeprop( wfn, 'DIPOLE', 'QUADRUPOLE', 'MULLIKEN_CHARGES')
f=open( 'psi4out.xyz', 'w' )
f.write( "17  " )
f.write( str(ee) + "\n" )
f.write( MOL.save_string_xyz() )
f.close()
--------------------------------------------------------------------------

    Molecular point group: c1
  Charge       = 0
  Multiplicity = 1
  Basis Set: CC-PVTZ
  Basis Set:
  @DF-RHF Final Energy:  -345.03076205123131
    Total Energy =                       -345.0307620512313633
    Molecular point group: c1
  Basis Set: CC-PVTZ
  Basis Set:
  Basis Set: CC-PVTZ
  Basis Set:
  @DF-RHF Final Energy:  -345.02908023544990
    Total Energy =                       -345.0290802354502944
  Basis Set: CC-PVTZ
  Basis Set:
  Basis Set: CC-PVTZ
  Basis Set:
  @DF-RHF Final Energy:  -345.03204539639034
    Total Energy =                       -345.0320453963901173
  Basis Set: CC-PVTZ
  Basis Set:
  Basis Set: CC-PVTZ
  Basis Set:
  @DF-RHF Final Energy:  -345.03232167419634
    Total Energy =                       -345.0323216741961687
  Basis Set: CC-PVTZ
  Basis Set:
  Basis Set: CC-PVTZ
  Basis Set:
  @DF-RHF Final Energy:  -345.03232823490049
    Total Energy =                       -345.0323282349005467
  Basis Set: CC-PVTZ
  Basis Set:
  Basis Set: CC-PVTZ
  Basis Set:
  @DF-RHF Final Energy:  -345.03232964967316
    Total Energy =                       -345.0323296496731018
  Basis Set: CC-PVTZ
  Basis Set:
  Charge       = 0
  Multiplicity = 1
  Basis Set: CC-PVTZ
  Basis Set:

    Orbital Energies (a.u.)
    -----------------------

    Doubly Occupied:

       1A    -20.588351     2A    -20.549402     3A    -11.374303
       4A    -11.239984     5A    -11.222015     6A    -11.221383
       7A    -11.211371     8A     -1.464830     9A     -1.370213
      10A     -1.092940    11A     -1.018591    12A     -0.911237
      13A     -0.824154    14A     -0.793770    15A     -0.709010
      16A     -0.679268    17A     -0.667004    18A     -0.639888
      19A     -0.592952    20A     -0.587387    21A     -0.544102
      22A     -0.536173    23A     -0.515765    24A     -0.498968
      25A     -0.481258    26A     -0.474745    27A     -0.473808
      28A     -0.445756

  @DF-RHF Final Energy:  -345.03232969467234

   => Energetics <=

    Nuclear Repulsion Energy =            304.0674314468870421
    One-Electron Energy =               -1072.7422682473329587
    Two-Electron Energy =                 423.6425071057734613
    DFT Exchange-Correlation Energy =       0.0000000000000000
    Empirical Dispersion Energy =           0.0000000000000000
    PCM Polarization Energy =               0.0000000000000000
    EFP Energy =                            0.0000000000000000
    Total Energy =                       -345.0323296946725122
    Molecular point group: c1
  Basis Set: CC-PVTZ
  Basis Set:

  -Total Gradient:
     Atom            X                  Y                   Z
    ------   -----------------  -----------------  -----------------
       1        0.004385989937    -0.006181285800    -0.003212441125
       2       -0.005209081365     0.007713252512     0.007349344500
       3        0.000116112975    -0.001736599114    -0.011368391865
       4        0.000047684982     0.000014108262    -0.000061953620
       5        0.000759097645     0.000215407702     0.007237004860
       6       -0.000019236416     0.000034859092     0.000035412740
       7        0.000013569116    -0.000023777020     0.000016576447
       8       -0.000011792550    -0.000015112113     0.000027118039
       9       -0.000025520338    -0.000044593435    -0.000008994736
      10       -0.000003879989     0.000007340659    -0.000015705422
      11       -0.000005899223     0.000003236041    -0.000000144255
      12       -0.000033864395     0.000025298134     0.000003614197
      13        0.000001193327    -0.000004734045    -0.000002263299
      14       -0.000001389844    -0.000003366855     0.000001951721
      15        0.000003777860     0.000002556942    -0.000002737887
      16       -0.000019890689    -0.000009992335     0.000000190823
      17        0.000003128971     0.000003401372     0.000001418883

  **** Optimization is complete! (in 7 steps) ****
    Final optimized geometry and variables:
    Molecular point group: c1

    Geometry (in Angstrom), charge = 0, multiplicity = 1:

    H           -3.218349848972    -0.695743690165    -0.663409586669
    O           -2.679895233754    -0.718817417904     0.110459105544
    C           -1.608647537863     0.105715842198    -0.003573070233
    C           -0.306264878219    -0.647305269439    -0.016795917140
    O           -1.720717358303     1.275828754854     0.000980974336
    C            0.928712116900     0.240823217911    -0.014191310601
    H           -0.322670752051    -1.298995767187    -0.886079417816
    H           -0.321288371058    -1.311260352371     0.841827596334
    C            2.224862820547    -0.564325249225    -0.023554146034
    H            0.898809969609     0.899136974245    -0.875396688361
    H            0.902384546661     0.885091090868     0.857508197224
    C            3.468665647308     0.317520746481    -0.019919263112
    H            2.243991896998    -1.209730990652    -0.897885488348
    H            2.247953466243    -1.222672618690     0.840758454419
    H            3.492082896301     0.963749064873    -0.890787862188
    H            4.372552166476    -0.280311828307    -0.026541144687
    H            3.496099249286     0.950394647687     0.860504984538

  Mulliken Charges: (a.u.)
   Center  Symbol    Alpha    Beta     Spin     Total
       1     H     0.38446  0.38446  0.00000  0.23109
       2     O     4.17668  4.17668  0.00000 -0.35337
       3     C     2.80156  2.80156  0.00000  0.39687
       4     C     3.11232  3.11232  0.00000 -0.22464
       5     O     4.16662  4.16662  0.00000 -0.33323
       6     C     3.08401  3.08401  0.00000 -0.16801
       7     H     0.44545  0.44545  0.00000  0.10910
       8     H     0.43680  0.43680  0.00000  0.12640
       9     C     3.08590  3.08590  0.00000 -0.17180
      10     H     0.44698  0.44698  0.00000  0.10604
      11     H     0.44527  0.44527  0.00000  0.10945
      12     C     3.14913  3.14913  0.00000 -0.29825
      13     H     0.45536  0.45536  0.00000  0.08927
      14     H     0.45431  0.45431  0.00000  0.09138
      15     H     0.45389  0.45389  0.00000  0.09222
      16     H     0.44794  0.44794  0.00000  0.10412
      17     H     0.45331  0.45331  0.00000  0.09337

   Total alpha = 28.00000, Total beta = 28.00000, Total charge = -0.00000

*** Psi4 exiting successfully. Buy a developer a beer!
