  ==> Input File <==

--------------------------------------------------------------------------
set {
	reference rhf
	basis 6-31G*
}

set_num_threads( 4 )
memory 2 gb

molecule MOL {
0 1

H	 -3.161837	 0.500524	 -0.000234
C	 -2.367097	 -0.232926	 -0.000000
O	 -1.158440	 0.455814	 -0.000122
H	 -2.468853	 -0.861886	 -0.882833
H	 -2.468942	 -0.861421	 0.883154
C	 -0.968020	 1.281547	 1.108832
C	 0.380594	 1.968555	 0.982645
H	 -1.008827	 0.693120	 2.026431
H	 -1.766472	 2.022521	 1.166639
C	 0.675672	 2.897427	 2.159508
H	 1.149440	 1.205990	 0.904971
H	 0.397138	 2.526151	 0.051242
H	 0.687865	 2.353902	 3.100176
H	 1.643123	 3.374273	 2.043312
H	 -0.070263	 3.683154	 2.240857

	symmetry c1
}
set optking {
	frozen_dihedral = ("
		6 3 2 4
	")
}

ee = optimize('scf')
oeprop('DIPOLE', 'QUADRUPOLE', 'MULLIKEN_CHARGES')
f=open( 'psi4out.xyz', 'w' )
f.write( "15  " )
f.write( str(ee) + "\n" )
f.write( MOL.save_string_xyz() )
f.close()
--------------------------------------------------------------------------

    Molecular point group: c1
  Charge       = 0
  Multiplicity = 1
  Basis Set: 6-31G*
  Basis Set:
  @DF-RHF Final Energy:  -232.13826623108395
    Total Energy =                       -232.1382662310838896
    Molecular point group: c1
  Basis Set: 6-31G*
  Basis Set:
  Basis Set: 6-31G*
  Basis Set:
  @DF-RHF Final Energy:  -232.13917950440012
    Total Energy =                       -232.1391795044001469
  Basis Set: 6-31G*
  Basis Set:
  Basis Set: 6-31G*
  Basis Set:
  @DF-RHF Final Energy:  -232.13945366181463
    Total Energy =                       -232.1394536618147981
  Basis Set: 6-31G*
  Basis Set:
  Charge       = 0
  Multiplicity = 1
  Basis Set: 6-31G*
  Basis Set:

    Orbital Energies (a.u.)
    -----------------------

    Doubly Occupied:

       1A    -20.553441     2A    -11.266257     3A    -11.263982
       4A    -11.214272     5A    -11.212930     6A     -1.378436
       7A     -1.057309     8A     -0.955307     9A     -0.877243
      10A     -0.809128    11A     -0.674970    12A     -0.654002
      13A     -0.630274    14A     -0.607636    15A     -0.565528
      16A     -0.541221    17A     -0.502819    18A     -0.489026
      19A     -0.478053    20A     -0.461503    21A     -0.413889

  @DF-RHF Final Energy:  -232.13945466353420

   => Energetics <=

    Nuclear Repulsion Energy =            189.7474137387295059
    One-Electron Energy =                -690.5592817639444547
    Two-Electron Energy =                 268.6724133616809240
    DFT Exchange-Correlation Energy =       0.0000000000000000
    Empirical Dispersion Energy =           0.0000000000000000
    PCM Polarization Energy =               0.0000000000000000
    EFP Energy =                            0.0000000000000000
    Total Energy =                       -232.1394546635340248
    Molecular point group: c1
  Basis Set: 6-31G*
  Basis Set:

  -Total Gradient:
     Atom            X                  Y                   Z
    ------   -----------------  -----------------  -----------------
       1        0.000034999972     0.000041424319     0.000002633535
       2       -0.000033340854     0.000018152278     0.000069193666
       3        0.000012237507     0.000030854357    -0.000035628319
       4        0.000074168677     0.000039032197    -0.000010709675
       5        0.000053921355     0.000030386820     0.000012840966
       6       -0.000093139124    -0.000063923404     0.000127244319
       7        0.000011463831    -0.000043832800    -0.000095472514
       8       -0.000004738847    -0.000007700917     0.000015394808
       9       -0.000003568696    -0.000009957098    -0.000041234700
      10       -0.000075145716    -0.000027772606    -0.000003978818
      11        0.000007489591    -0.000004815564    -0.000003778510
      12        0.000028533802     0.000018396605    -0.000013588851
      13        0.000002087763    -0.000003715320     0.000001035682
      14       -0.000012476940    -0.000023786622    -0.000030954722
      15       -0.000002492321     0.000007257757     0.000007003136

  **** Optimization is complete! (in 4 steps) ****
    Final optimized geometry and variables:
    Molecular point group: c1

    Geometry (in Angstrom), charge = 0, multiplicity = 1:

    H           -2.503700274114    -0.794769286029    -0.843191818242
    C           -1.659071454277    -1.481733059182    -0.840814018686
    O           -0.446813119188    -0.799637427264    -0.842807952539
    H           -1.696685026308    -2.085151468055    -1.737507344389
    H           -1.748758243979    -2.133875177714     0.026335319202
    C           -0.252918504479     0.028328034657     0.264011058795
    C            1.099207645526     0.707853755273     0.135593612944
    H           -0.297031089070    -0.557289921842     1.183237531812
    H           -1.047677888274     0.773439131013     0.318684732192
    C            1.398198755491     1.639613489649     1.309142962224
    H            1.864219561200    -0.058894627244     0.060995031295
    H            1.118953021711     1.262031540177    -0.797803992891
    H            1.407307463236     1.099440206409     2.251778279222
    H            2.368092374797     2.111174303381     1.191687980231
    H            0.656075259990     2.429275862337     1.387421233110

  Mulliken Charges: (a.u.)
   Center  Symbol    Alpha    Beta     Spin     Total
       1     H     0.43043  0.43043  0.00000  0.13913
       2     C     3.07932  3.07932  0.00000 -0.15864
       3     O     4.30578  4.30578  0.00000 -0.61156
       4     H     0.41216  0.41216  0.00000  0.17568
       5     H     0.43043  0.43043  0.00000  0.13914
       6     C     2.98156  2.98156  0.00000  0.03688
       7     C     3.15982  3.15982  0.00000 -0.31964
       8     H     0.43340  0.43340  0.00000  0.13320
       9     H     0.43341  0.43341  0.00000  0.13317
      10     C     3.24792  3.24792  0.00000 -0.49583
      11     H     0.41432  0.41432  0.00000  0.17135
      12     H     0.41431  0.41431  0.00000  0.17137
      13     H     0.42086  0.42086  0.00000  0.15829
      14     H     0.41542  0.41542  0.00000  0.16916
      15     H     0.42085  0.42085  0.00000  0.15829

   Total alpha = 21.00000, Total beta = 21.00000, Total charge =  0.00000
