  ==> Input File <==

--------------------------------------------------------------------------
set {
	reference rhf
	basis cc-pvtz
}

set_num_threads( 4 )
memory 2 gb

molecule MOL {
0 1

H	 -2.491538	 0.873787	 -1.004225
C	 -1.656252	 1.514099	 -1.254263
C	 -0.358444	 0.722990	 -1.305802
H	 -1.606821	 2.292611	 -0.504803
H	 -1.853631	 1.975218	 -2.214635
C	 0.000000	 0.039916	 0.000014
H	 0.474329	 1.364491	 -1.581233
H	 -0.402660	 -0.041997	 -2.076342
C	 1.286532	 -0.763243	 0.000268
O	 -0.686138	 0.128734	 0.965262
C	 2.547023	 0.087626	 -0.000114
H	 1.264245	 -1.421103	 -0.864380
H	 1.264290	 -1.420353	 0.865489
H	 2.584452	 0.725630	 -0.872909
H	 3.427035	 -0.544422	 0.000125
H	 2.584484	 0.726356	 0.872143

	symmetry c1
}
set optking {
	frozen_dihedral = ("
		3 6 9 12
	")
}

ee = optimize('scf')
oeprop('DIPOLE', 'QUADRUPOLE', 'MULLIKEN_CHARGES')
f=open( 'psi4out.xyz', 'w' )
f.write( "16  " )
f.write( str(ee) + "\n" )
f.write( MOL.save_string_xyz() )
f.close()
--------------------------------------------------------------------------

    Molecular point group: c1
  Charge       = 0
  Multiplicity = 1
  Basis Set: CC-PVTZ
  Basis Set:
  @DF-RHF Final Energy:  -270.12879701994211
    Total Energy =                       -270.1287970199419419
    Molecular point group: c1
  Basis Set: CC-PVTZ
  Basis Set:
  Basis Set: CC-PVTZ
  Basis Set:
  @DF-RHF Final Energy:  -270.12930672340349
    Total Energy =                       -270.1293067234034879
  Basis Set: CC-PVTZ
  Basis Set:
  Basis Set: CC-PVTZ
  Basis Set:
  @DF-RHF Final Energy:  -270.12932916118712
    Total Energy =                       -270.1293291611870586
  Basis Set: CC-PVTZ
  Basis Set:
  Basis Set: CC-PVTZ
  Basis Set:
  @DF-RHF Final Energy:  -270.12925262949523
    Total Energy =                       -270.1292526294954541
  Basis Set: CC-PVTZ
  Basis Set:
  Basis Set: CC-PVTZ
  Basis Set:
  @DF-RHF Final Energy:  -270.12933295141426
    Total Energy =                       -270.1293329514143124
  Basis Set: CC-PVTZ
  Basis Set:
  Charge       = 0
  Multiplicity = 1
  Basis Set: CC-PVTZ
  Basis Set:

    Orbital Energies (a.u.)
    -----------------------

    Doubly Occupied:

       1A    -20.538233     2A    -11.317065     3A    -11.231941
       4A    -11.230700     5A    -11.227332     6A    -11.211374
       7A     -1.397896     8A     -1.073035     9A     -1.036742
      10A     -0.911300    11A     -0.860416    12A     -0.726871
      13A     -0.664916    14A     -0.640999    15A     -0.630741
      16A     -0.607291    17A     -0.562099    18A     -0.542643
      19A     -0.534669    20A     -0.510733    21A     -0.505168
      22A     -0.497015    23A     -0.483289    24A     -0.398814

  @DF-RHF Final Energy:  -270.12933306492243

   => Energetics <=

    Nuclear Repulsion Energy =            240.8706239639907380
    One-Electron Energy =                -843.3173460923354696
    Two-Electron Energy =                 332.3173890634222971
    DFT Exchange-Correlation Energy =       0.0000000000000000
    Empirical Dispersion Energy =           0.0000000000000000
    PCM Polarization Energy =               0.0000000000000000
    EFP Energy =                            0.0000000000000000
    Total Energy =                       -270.1293330649224345
    Molecular point group: c1
  Basis Set: CC-PVTZ
  Basis Set:

  -Total Gradient:
     Atom            X                  Y                   Z
    ------   -----------------  -----------------  -----------------
       1        0.000001081671    -0.000002185788    -0.000001018444
       2        0.000007683084     0.000008868095     0.000001509663
       3        0.000331628220     0.000535158391     0.000189500296
       4       -0.000000136677    -0.000003273826    -0.000001752337
       5       -0.000004263170     0.000000653331    -0.000001281590
       6       -0.000608736766    -0.000954153935    -0.000170111831
       7        0.000002633473     0.000005218808     0.000008507389
       8        0.000002931929     0.000010012298    -0.000000260138
       9        0.000673029030     0.001030290393    -0.000505810241
      10        0.000004215921    -0.000001062389    -0.000002986660
      11       -0.000014938185    -0.000001467275    -0.000001157960
      12       -0.000408266630    -0.000638490661     0.000491122587
      13       -0.000003541176     0.000003863358    -0.000003809989
      14        0.000004333163     0.000003817171    -0.000002268248
      15        0.000005964282    -0.000000491844     0.000000955291
      16        0.000006381828     0.000003243872    -0.000001137792

  **** Optimization is complete! (in 6 steps) ****
    Final optimized geometry and variables:
    Molecular point group: c1

    Geometry (in Angstrom), charge = 0, multiplicity = 1:

    H           -2.678554740354     0.604322638572    -0.706326182547
    C           -1.840624887092     1.237195367087    -0.965577599151
    C           -0.552838887321     0.432137624612    -1.045801489103
    H           -1.769446416851     2.008694017930    -0.210522246028
    H           -2.048852036460     1.708939170428    -1.918524998273
    C           -0.186345974604    -0.272578945709     0.246080973364
    H            0.279508748077     1.066964400653    -1.332674863573
    H           -0.619547171113    -0.326967777105    -1.821164583447
    C            1.101932109971    -1.074885695154     0.262581614261
    O           -0.872648501740    -0.201504510254     1.213520937633
    C            2.355814631423    -0.195857551938     0.271463935577
    H            1.121289867024    -1.736293094550    -0.598013003093
    H            1.077466827989    -1.688655998747     1.152205601161
    H            2.451115379532     0.387736488213    -0.635610652562
    H            3.240849836791    -0.813301797448     0.358214568388
    H            2.342289330083     0.486195763235     1.113271807743

  Mulliken Charges: (a.u.)
   Center  Symbol    Alpha    Beta     Spin     Total
       1     H     0.44714  0.44714  0.00000  0.10571
       2     C     3.14097  3.14097  0.00000 -0.28193
       3     C     3.10658  3.10658  0.00000 -0.21316
       4     H     0.44815  0.44815  0.00000  0.10370
       5     H     0.45094  0.45094  0.00000  0.09812
       6     C     2.86311  2.86311  0.00000  0.27377
       7     H     0.44506  0.44506  0.00000  0.10989
       8     H     0.44590  0.44590  0.00000  0.10821
       9     C     3.09422  3.09422  0.00000 -0.18844
      10     O     4.17363  4.17363  0.00000 -0.34725
      11     C     3.15393  3.15393  0.00000 -0.30786
      12     H     0.45070  0.45070  0.00000  0.09861
      13     H     0.43713  0.43713  0.00000  0.12573
      14     H     0.45317  0.45317  0.00000  0.09366
      15     H     0.44364  0.44364  0.00000  0.11273
      16     H     0.44574  0.44574  0.00000  0.10852

   Total alpha = 24.00000, Total beta = 24.00000, Total charge =  0.00000
