  ==> Input File <==

--------------------------------------------------------------------------
set {
	reference rhf
	basis 6-31G*
}

set_num_threads( 4 )
memory 2 gb

molecule MOL {
0 1

H	 1.885453	 2.371502	 -0.484549
N	 1.062768	 1.807169	 -0.575273
C	 1.267428	 0.496480	 0.024474
H	 0.878821	 1.719347	 -1.556785
C	 -0.016086	 -0.325158	 -0.029487
H	 1.552043	 0.649038	 1.061178
H	 2.078446	 -0.067487	 -0.443042
C	 -1.282277	 0.529072	 0.046735
H	 -0.012495	 -0.908639	 -0.945788
H	 -0.015903	 -1.041248	 0.791956
C	 -2.563920	 -0.301775	 -0.006060
H	 -1.284084	 1.244622	 -0.773004
H	 -1.271387	 1.115393	 0.963286
H	 -2.621848	 -0.873522	 -0.927727
H	 -3.445135	 0.329952	 0.047812
H	 -2.609542	 -1.004582	 0.821105

	symmetry c1
}
set optking {
	frozen_dihedral = ("
		6 3 5 9
	")
}

ee = optimize('scf')
oeprop('DIPOLE', 'QUADRUPOLE', 'MULLIKEN_CHARGES')
f=open( 'psi4out.xyz', 'w' )
f.write( "16  " )
f.write( str(ee) + "\n" )
f.write( MOL.save_string_xyz() )
f.close()
--------------------------------------------------------------------------

    Molecular point group: c1
  Charge       = 0
  Multiplicity = 1
  Basis Set: 6-31G*
  Basis Set:
  @DF-RHF Final Energy:  -212.31101749850819
    Total Energy =                       -212.3110174985081358
    Molecular point group: c1
  Basis Set: 6-31G*
  Basis Set:
  Basis Set: 6-31G*
  Basis Set:
  @DF-RHF Final Energy:  -212.31211729747054
    Total Energy =                       -212.3121172974706496
  Basis Set: 6-31G*
  Basis Set:
  Basis Set: 6-31G*
  Basis Set:
  @DF-RHF Final Energy:  -212.31300398823507
    Total Energy =                       -212.3130039882352094
  Basis Set: 6-31G*
  Basis Set:
  Basis Set: 6-31G*
  Basis Set:
  @DF-RHF Final Energy:  -212.31306214121699
    Total Energy =                       -212.3130621412168466
  Basis Set: 6-31G*
  Basis Set:
  Basis Set: 6-31G*
  Basis Set:
  @DF-RHF Final Energy:  -212.31306210498664
    Total Energy =                       -212.3130621049866136
  Basis Set: 6-31G*
  Basis Set:
  Basis Set: 6-31G*
  Basis Set:
  @DF-RHF Final Energy:  -212.31307070268048
    Total Energy =                       -212.3130707026804771
  Basis Set: 6-31G*
  Basis Set:
  Charge       = 0
  Multiplicity = 1
  Basis Set: 6-31G*
  Basis Set:

    Orbital Energies (a.u.)
    -----------------------

    Doubly Occupied:

       1A    -15.534016     2A    -11.241051     3A    -11.210637
       4A    -11.205201     5A    -11.202587     6A     -1.177743
       7A     -1.051689     8A     -0.957941     9A     -0.848428
      10A     -0.778637    11A     -0.667230    12A     -0.621520
      13A     -0.614441    14A     -0.574324    15A     -0.560858
      16A     -0.521435    17A     -0.497917    18A     -0.468129
      19A     -0.461047    20A     -0.453644    21A     -0.379248

  @DF-RHF Final Energy:  -212.31307083789514

   => Energetics <=

    Nuclear Repulsion Energy =            189.0450916461514055
    One-Electron Energy =                -660.6608810978950714
    Two-Electron Energy =                 259.3027186138484694
    DFT Exchange-Correlation Energy =       0.0000000000000000
    Empirical Dispersion Energy =           0.0000000000000000
    PCM Polarization Energy =               0.0000000000000000
    EFP Energy =                            0.0000000000000000
    Total Energy =                       -212.3130708378952249
    Molecular point group: c1
  Basis Set: 6-31G*
  Basis Set:

  -Total Gradient:
     Atom            X                  Y                   Z
    ------   -----------------  -----------------  -----------------
       1        0.000000698819    -0.000000973751     0.000002953381
       2       -0.000000680795     0.000012106211     0.000015512855
       3       -0.003370872858     0.005320871175     0.000795758767
       4        0.000000306612    -0.000015062488     0.000010106166
       5       -0.002497647535     0.004582908004    -0.003741250008
       6        0.003246645977    -0.005211936149    -0.000082947874
       7       -0.000002757498    -0.000003003777     0.000006458678
       8        0.000002484586     0.000002013081    -0.000007564988
       9        0.002617311982    -0.004679512161     0.003002984558
      10        0.000002263078     0.000000242806    -0.000001945555
      11       -0.000002195070    -0.000007241819    -0.000000293926
      12        0.000001489848    -0.000000011495    -0.000001116769
      13        0.000005130968     0.000000222683     0.000001255724
      14       -0.000002614072    -0.000000705432     0.000000091127
      15        0.000000069457     0.000000537935     0.000001974861
      16        0.000000366506    -0.000000454820    -0.000001976996

  **** Optimization is complete! (in 7 steps) ****
    Final optimized geometry and variables:
    Molecular point group: c1

    Geometry (in Angstrom), charge = 0, multiplicity = 1:

    H            2.316612128687     1.871239230060    -0.332761585280
    N            1.465134622346     1.363241330251    -0.475787114616
    C            1.539913210046     0.059427302035     0.164691366168
    H            1.353544525064     1.261030826571    -1.466979548582
    C            0.238274363874    -0.745928454900     0.047849592814
    H            1.785197253224     0.196826876059     1.213072317393
    H            2.349433861849    -0.557573952743    -0.233816246601
    C           -1.050926403588     0.065433400573     0.169122051925
    H            0.247198384497    -1.330471455298    -0.871211595367
    H            0.255665291986    -1.495150251647     0.838326091822
    C           -2.296173013830    -0.821204452703     0.166247164015
    H           -1.113587191356     0.785041703934    -0.639149486543
    H           -1.018988033283     0.649435081152     1.085144239157
    H           -2.364751674903    -1.400975606213    -0.750563105282
    H           -3.200913330048    -0.226432761533     0.247628350203
    H           -2.285740308511    -1.521434172995     0.997190805860

  Mulliken Charges: (a.u.)
   Center  Symbol    Alpha    Beta     Spin     Total
       1     H     0.33141  0.33141  0.00000  0.33718
       2     N     3.92022  3.92022  0.00000 -0.84045
       3     C     3.06132  3.06132  0.00000 -0.12264
       4     H     0.33523  0.33523  0.00000  0.32954
       5     C     3.16327  3.16327  0.00000 -0.32654
       6     H     0.42035  0.42035  0.00000  0.15930
       7     H     0.43314  0.43314  0.00000  0.13372
       8     C     3.14191  3.14191  0.00000 -0.28381
       9     H     0.42546  0.42546  0.00000  0.14908
      10     H     0.42271  0.42271  0.00000  0.15457
      11     C     3.24085  3.24085  0.00000 -0.48170
      12     H     0.41624  0.41624  0.00000  0.16752
      13     H     0.42026  0.42026  0.00000  0.15948
      14     H     0.42413  0.42413  0.00000  0.15174
      15     H     0.41973  0.41973  0.00000  0.16053
      16     H     0.42375  0.42375  0.00000  0.15250

   Total alpha = 21.00000, Total beta = 21.00000, Total charge = -0.00000
