                              Psi4 1.0.54 Driver

  ==> Input File <==

--------------------------------------------------------------------------
set {
	reference rhf
	basis cc-pvtz
}

set_num_threads( 4 )
memory 2 gb

molecule MOL {
0 1

H	 1.576880	 -4.135771	 -3.529156
C	 1.499269	 -3.631619	 -2.573167
C	 0.291385	 -2.701804	 -2.539818
H	 1.428410	 -4.393279	 -1.803823
H	 2.422823	 -3.085518	 -2.412423
C	 0.144482	 -1.971457	 -1.213175
H	 -0.616726	 -3.263241	 -2.729260
H	 0.376690	 -1.972224	 -3.341699
N	 -1.022553	 -1.116065	 -1.204982
H	 0.034293	 -2.698527	 -0.414178
H	 1.063757	 -1.417425	 -1.000887
C	 -1.215959	 -0.382435	 0.027143
H	 -0.979043	 -0.479286	 -1.973057
C	 -2.451944	 0.502410	 -0.038737
H	 -1.332780	 -1.101767	 0.832185
H	 -0.345911	 0.229084	 0.284315
C	 -3.752217	 -0.292550	 0.005776
H	 -2.407325	 1.093801	 -0.946480
H	 -2.431979	 1.206234	 0.790023
H	 -3.817783	 -0.982946	 -0.828547
H	 -4.612613	 0.364348	 -0.042306
H	 -3.830160	 -0.871666	 0.919868

	symmetry c1
}
set optking {
	frozen_dihedral = ("
		15 12 14 18
	")
}

ee,wfn = optimize('scf', return_wfn=True)
oeprop( wfn, 'DIPOLE', 'QUADRUPOLE', 'MULLIKEN_CHARGES')
f=open( 'psi4out.xyz', 'w' )
f.write( "22  " )
f.write( str(ee) + "\n" )
f.write( MOL.save_string_xyz() )
f.close()
--------------------------------------------------------------------------

    Molecular point group: c1
  Charge       = 0
  Multiplicity = 1
  Basis Set: CC-PVTZ
  Basis Set:
  @DF-RHF Final Energy:  -290.48920059365463
    Total Energy =                       -290.4892005936548003
    Molecular point group: c1
  Basis Set: CC-PVTZ
  Basis Set:
  Basis Set: CC-PVTZ
  Basis Set:
  @DF-RHF Final Energy:  -290.48935249455650
    Total Energy =                       -290.4893524945564991
  Basis Set: CC-PVTZ
  Basis Set:
  Basis Set: CC-PVTZ
  Basis Set:
  @DF-RHF Final Energy:  -290.48937657280220
    Total Energy =                       -290.4893765728020867
  Basis Set: CC-PVTZ
  Basis Set:
  Charge       = 0
  Multiplicity = 1
  Basis Set: CC-PVTZ
  Basis Set:

    Orbital Energies (a.u.)
    -----------------------

    Doubly Occupied:

       1A    -15.528729     2A    -11.236706     3A    -11.236664
       4A    -11.212313     5A    -11.212254     6A    -11.207903
       7A    -11.199372     8A     -1.207960     9A     -1.059401
      10A     -1.023568    11A     -0.926887    12A     -0.874428
      13A     -0.808591    14A     -0.791980    15A     -0.662272
      16A     -0.635497    17A     -0.613053    18A     -0.611525
      19A     -0.572004    20A     -0.564602    21A     -0.539225
      22A     -0.525597    23A     -0.502736    24A     -0.488830
      25A     -0.480343    26A     -0.472929    27A     -0.467464
      28A     -0.451852    29A     -0.361154

  @DF-RHF Final Energy:  -290.48937734133284

   => Energetics <=

    Nuclear Repulsion Energy =            317.6313308710261367
    One-Electron Energy =               -1021.2897313091233400
    Two-Electron Energy =                 413.1690230967643629
    DFT Exchange-Correlation Energy =       0.0000000000000000
    Empirical Dispersion Energy =           0.0000000000000000
    PCM Polarization Energy =               0.0000000000000000
    EFP Energy =                            0.0000000000000000
    Total Energy =                       -290.4893773413328972
    Molecular point group: c1
  Basis Set: CC-PVTZ
  Basis Set:

  -Total Gradient:
     Atom            X                  Y                   Z
    ------   -----------------  -----------------  -----------------
       1        0.000003634258    -0.000003238928    -0.000002749393
       2        0.000001779786     0.000005033868    -0.000014276605
       3        0.000010642224    -0.000010024939     0.000018171275
       4       -0.000002857597    -0.000000239453     0.000002990849
       5        0.000003162566     0.000000477395     0.000002530954
       6       -0.000067303504     0.000013876742    -0.000016366886
       7       -0.000000692354     0.000003809319     0.000004156662
       8       -0.000000083319    -0.000000562787    -0.000003598234
       9        0.000031013342    -0.000068595909     0.000031250712
      10        0.000012345651    -0.000005498955     0.000005967331
      11        0.000015972873    -0.000002827946     0.000000320117
      12        0.000740179569     0.001109104188     0.000963407996
      13       -0.000021629829     0.000011230675     0.000048826734
      14        0.000799817606     0.001228495423     0.000821444928
      15       -0.000737321990    -0.001081963202    -0.001058576644
      16       -0.000019878892     0.000017566633     0.000025104968
      17       -0.000010914586    -0.000038939104    -0.000040401235
      18       -0.000780485400    -0.001191728201    -0.000812660315
      19        0.000000819367    -0.000003937796    -0.000005197445
      20        0.000009916297     0.000010953072     0.000006044691
      21        0.000019077658     0.000014011841     0.000007283604
      22       -0.000007193720    -0.000007001936     0.000016325939

  **** Optimization is complete! (in 4 steps) ****
    Final optimized geometry and variables:
    Molecular point group: c1

    Geometry (in Angstrom), charge = 0, multiplicity = 1:

    H            2.454368552756    -2.792686106338    -2.461226718931
    C            2.385654351268    -2.288649799383    -1.504483576465
    C            1.197224674447    -1.334126341141    -1.471467668444
    H            2.297759963013    -3.049912955007    -0.736512239443
    H            3.319956218851    -1.761903232489    -1.341340683918
    C            1.062828725930    -0.604146888274    -0.143261589173
    H            0.278253237828    -1.876478567007    -1.664246761185
    H            1.299490225131    -0.604567559892    -2.271384670534
    N           -0.085777452426     0.275547828013    -0.134575614956
    H            0.936920529511    -1.330810689970     0.653683858806
    H            1.993140637695    -0.069569009535     0.071444290787
    C           -0.257471151074     1.021413388886     1.095773775861
    H           -0.029798323774     0.909222637595    -0.904549960471
    C           -1.514340044397     1.884156282288     1.059298619082
    H           -0.340285483732     0.301813505426     1.904663638151
    H            0.609280602309     1.648565156016     1.317417951415
    C           -2.808932455741     1.078791665580     1.119659668846
    H           -1.507519937952     2.477808093832     0.148121228617
    H           -1.481266348818     2.585717951834     1.886710431415
    H           -2.859757412769     0.366585151402     0.306842714073
    H           -3.674287015604     1.729076271870     1.057024811383
    H           -2.877949889774     0.526721826575     2.051452016460

  Mulliken Charges: (a.u.)
   Center  Symbol    Alpha    Beta     Spin     Total
       1     H     0.44767  0.44767  0.00000  0.10466
       2     C     3.15359  3.15359  0.00000 -0.30719
       3     C     3.08098  3.08098  0.00000 -0.16196
       4     H     0.45470  0.45470  0.00000  0.09060
       5     H     0.45609  0.45609  0.00000  0.08782
       6     C     3.02122  3.02122  0.00000 -0.04244
       7     H     0.44908  0.44908  0.00000  0.10183
       8     H     0.45958  0.45958  0.00000  0.08085
       9     N     3.64016  3.64016  0.00000 -0.28032
      10     H     0.45946  0.45946  0.00000  0.08107
      11     H     0.47517  0.47517  0.00000  0.04965
      12     C     3.03593  3.03593  0.00000 -0.07185
      13     H     0.44504  0.44504  0.00000  0.10992
      14     C     3.08324  3.08324  0.00000 -0.16648
      15     H     0.45843  0.45843  0.00000  0.08315
      16     H     0.46393  0.46393  0.00000  0.07213
      17     C     3.14738  3.14738  0.00000 -0.29475
      18     H     0.45969  0.45969  0.00000  0.08063
      19     H     0.45138  0.45138  0.00000  0.09725
      20     H     0.44802  0.44802  0.00000  0.10395
      21     H     0.45144  0.45144  0.00000  0.09711
      22     H     0.45782  0.45782  0.00000  0.08437

   Total alpha = 29.00000, Total beta = 29.00000, Total charge =  0.00000

*** Psi4 exiting successfully. Buy a developer a beer!
