  ==> Input File <==

--------------------------------------------------------------------------
set {
	reference rhf
	basis 6-31G*
}

set_num_threads( 4 )
memory 2 gb

molecule MOL {
0 1

H	 1.316714	 -1.591862	 -0.000360
O	 1.586534	 -0.678666	 -0.000226
C	 0.489431	 0.077273	 0.000046
C	 -0.764129	 -0.759190	 0.000191
O	 0.537743	 1.263962	 0.000257
C	 -2.038368	 0.075731	 -0.000248
H	 -0.717284	 -1.412404	 -0.866059
H	 -0.717458	 -1.411724	 0.866967
H	 -2.086483	 0.712501	 -0.875098
H	 -2.908485	 -0.571682	 -0.000042
H	 -2.086576	 0.713280	 0.874068

	symmetry c1
}
set optking {
	frozen_dihedral = ("
		1 2 3 5
	")
}

ee = optimize('scf')
oeprop('DIPOLE', 'QUADRUPOLE', 'MULLIKEN_CHARGES')
f=open( 'psi4out.xyz', 'w' )
f.write( "11  " )
f.write( str(ee) + "\n" )
f.write( MOL.save_string_xyz() )
f.close()
--------------------------------------------------------------------------

    Molecular point group: c1
  Charge       = 0
  Multiplicity = 1
  Basis Set: 6-31G*
  Basis Set:
  @DF-RHF Final Energy:  -266.83345354832727
    Total Energy =                       -266.8334535483272134
    Molecular point group: c1
  Basis Set: 6-31G*
  Basis Set:
  Basis Set: 6-31G*
  Basis Set:
  @DF-RHF Final Energy:  -266.83486935708009
    Total Energy =                       -266.8348693570800378
  Basis Set: 6-31G*
  Basis Set:
  Basis Set: 6-31G*
  Basis Set:
  @DF-RHF Final Energy:  -266.83507628342477
    Total Energy =                       -266.8350762834246552
  Basis Set: 6-31G*
  Basis Set:
  Basis Set: 6-31G*
  Basis Set:
  @DF-RHF Final Energy:  -266.83507983435152
    Total Energy =                       -266.8350798343518022
  Basis Set: 6-31G*
  Basis Set:
  Basis Set: 6-31G*
  Basis Set:
  @DF-RHF Final Energy:  -266.83507815373213
    Total Energy =                       -266.8350781537322973
  Basis Set: 6-31G*
  Basis Set:
  Charge       = 0
  Multiplicity = 1
  Basis Set: 6-31G*
  Basis Set:

    Orbital Energies (a.u.)
    -----------------------

    Doubly Occupied:

       1A    -20.614160     2A    -20.548229     3A    -11.381457
       4A    -11.256689     5A    -11.226737     6A     -1.469626
       7A     -1.371178     8A     -1.069822     9A     -0.908897
      10A     -0.830292    11A     -0.719056    12A     -0.666866
      13A     -0.657823    14A     -0.607828    15A     -0.598391
      16A     -0.534471    17A     -0.528420    18A     -0.514367
      19A     -0.476139    20A     -0.441899

  @DF-RHF Final Energy:  -266.83508016149943

   => Energetics <=

    Nuclear Repulsion Energy =            179.6818465473004380
    One-Electron Energy =                -720.1891581888702376
    Two-Electron Energy =                 273.6722314800701952
    DFT Exchange-Correlation Energy =       0.0000000000000000
    Empirical Dispersion Energy =           0.0000000000000000
    PCM Polarization Energy =               0.0000000000000000
    EFP Energy =                            0.0000000000000000
    Total Energy =                       -266.8350801614996044
    Molecular point group: c1
  Basis Set: 6-31G*
  Basis Set:

  -Total Gradient:
     Atom            X                  Y                   Z
    ------   -----------------  -----------------  -----------------
       1        0.000005690225    -0.000010065165     0.000000124384
       2        0.000002955520    -0.000018747068    -0.000004338822
       3        0.000010910375     0.000008298787     0.000013470647
       4        0.000007279729     0.000009067844    -0.000005312445
       5       -0.000016786507     0.000018750257    -0.000004162096
       6        0.000000511824    -0.000006521289     0.000000117107
       7       -0.000002679643    -0.000000605091     0.000003150711
       8       -0.000000583406     0.000001159904    -0.000002591906
       9        0.000001183948    -0.000001695358     0.000001974289
      10       -0.000010044867     0.000002299449    -0.000000144249
      11        0.000001562798    -0.000001942273    -0.000002287620

  **** Optimization is complete! (in 6 steps) ****
    Final optimized geometry and variables:
    Molecular point group: c1

    Geometry (in Angstrom), charge = 0, multiplicity = 1:

    H            1.470400253699    -1.564237990025     0.000211502932
    O            1.635502270550    -0.630904036364     0.000046418891
    C            0.501758755398     0.079321032318     0.000024183384
    C           -0.771345646285    -0.743702378087     0.000166530758
    O            0.537631154529     1.260043459297    -0.000163123469
    C           -2.032988813494     0.110088841781    -0.000074202670
    H           -0.747908245897    -1.396448725316    -0.870274085243
    H           -0.747953305645    -1.396017648908     0.870932881791
    H           -2.067009045229     0.747223121258    -0.874653884882
    H           -2.913312293355    -0.523205841658     0.000059952806
    H           -2.067047380331     0.747653773117     0.874188536797

  Mulliken Charges: (a.u.)
   Center  Symbol    Alpha    Beta     Spin     Total
       1     H     0.26859  0.26859  0.00000  0.46282
       2     O     4.35071  4.35071  0.00000 -0.70141
       3     C     2.60892  2.60892  0.00000  0.78216
       4     C     3.23527  3.23527  0.00000 -0.47055
       5     O     4.26321  4.26321  0.00000 -0.52643
       6     C     3.23639  3.23639  0.00000 -0.47278
       7     H     0.40420  0.40420  0.00000  0.19160
       8     H     0.40420  0.40420  0.00000  0.19161
       9     H     0.40578  0.40578  0.00000  0.18845
      10     H     0.41697  0.41697  0.00000  0.16607
      11     H     0.40577  0.40577  0.00000  0.18845

   Total alpha = 20.00000, Total beta = 20.00000, Total charge =  0.00000
