  ==> Input File <==

--------------------------------------------------------------------------
set {
	reference rhf
	basis cc-pvtz
}

set_num_threads( 4 )
memory 2 gb

molecule MOL {
0 1

H	 0.468784	 -2.188784	 0.842373
C	 -0.315986	 -1.457965	 1.046059
N	 -0.537714	 -0.645117	 0.000000
O	 -0.883726	 -1.422752	 2.091597
C	 -1.522613	 0.412524	 0.000000
H	 0.010742	 -0.788147	 -0.811617
H	 -2.150256	 0.356137	 -0.880771
H	 -1.005621	 1.357208	 0.000000
H	 -2.150256	 0.356137	 0.880771

	symmetry c1
}
set optking {
	frozen_dihedral = ("
		6 3 5 7
	")
}

ee = optimize('scf')
oeprop('DIPOLE', 'QUADRUPOLE', 'MULLIKEN_CHARGES')
f=open( 'psi4out.xyz', 'w' )
f.write( "9  " )
f.write( str(ee) + "\n" )
f.write( MOL.save_string_xyz() )
f.close()
--------------------------------------------------------------------------

    Molecular point group: c1
  Charge       = 0
  Multiplicity = 1
  Basis Set: CC-PVTZ
  Basis Set:
  @DF-RHF Final Energy:  -208.04299167821245
    Total Energy =                       -208.0429916782123883
    Molecular point group: c1
  Basis Set: CC-PVTZ
  Basis Set:
  Basis Set: CC-PVTZ
  Basis Set:
  @DF-RHF Final Energy:  -208.04348749576764
    Total Energy =                       -208.0434874957674651
  Basis Set: CC-PVTZ
  Basis Set:
  Basis Set: CC-PVTZ
  Basis Set:
  @DF-RHF Final Energy:  -208.04355236538598
    Total Energy =                       -208.0435523653858922
  Basis Set: CC-PVTZ
  Basis Set:
  Basis Set: CC-PVTZ
  Basis Set:
  @DF-RHF Final Energy:  -208.04350583492703
    Total Energy =                       -208.0435058349270889
  Basis Set: CC-PVTZ
  Basis Set:
  Basis Set: CC-PVTZ
  Basis Set:
  @DF-RHF Final Energy:  -208.04357391610040
    Total Energy =                       -208.0435739161003426
  Basis Set: CC-PVTZ
  Basis Set:
  Basis Set: CC-PVTZ
  Basis Set:
  @DF-RHF Final Energy:  -208.04358005717989
    Total Energy =                       -208.0435800571798381
  Basis Set: CC-PVTZ
  Basis Set:
  Basis Set: CC-PVTZ
  Basis Set:
  @DF-RHF Final Energy:  -208.04359402318670
    Total Energy =                       -208.0435940231866425
  Basis Set: CC-PVTZ
  Basis Set:
  Charge       = 0
  Multiplicity = 1
  Basis Set: CC-PVTZ
  Basis Set:

    Orbital Energies (a.u.)
    -----------------------

    Doubly Occupied:

       1A    -20.516184     2A    -15.585031     3A    -11.337491
       4A    -11.259285     5A     -1.393701     6A     -1.239861
       7A     -0.970361     8A     -0.808263     9A     -0.748786
      10A     -0.646373    11A     -0.629420    12A     -0.596813
      13A     -0.555355    14A     -0.541999    15A     -0.428297
      16A     -0.396028

  @DF-RHF Final Energy:  -208.04359412255789

   => Energetics <=

    Nuclear Repulsion Energy =            122.7198407743988753
    One-Electron Energy =                -526.2203746731488536
    Two-Electron Energy =                 195.4569397761920015
    DFT Exchange-Correlation Energy =       0.0000000000000000
    Empirical Dispersion Energy =           0.0000000000000000
    PCM Polarization Energy =               0.0000000000000000
    EFP Energy =                            0.0000000000000000
    Total Energy =                       -208.0435941225579484
    Molecular point group: c1
  Basis Set: CC-PVTZ
  Basis Set:

  -Total Gradient:
     Atom            X                  Y                   Z
    ------   -----------------  -----------------  -----------------
       1        0.000008494635    -0.000010846633     0.000004412225
       2        0.000022315608    -0.000014683945    -0.000021992694
       3       -0.000190168248    -0.000136549353    -0.000052801067
       4       -0.000009571217     0.000016919312    -0.000014997480
       5        0.000149488218     0.000122461384    -0.000043593438
       6        0.000122101205     0.000080131961     0.000068665270
       7       -0.000088146232    -0.000075715788     0.000062216087
       8       -0.000005763707     0.000009207341    -0.000004293288
       9       -0.000008750264     0.000009075722     0.000002384388

  **** Optimization is complete! (in 8 steps) ****
    Final optimized geometry and variables:
    Molecular point group: c1

    Geometry (in Angstrom), charge = 0, multiplicity = 1:

    H            1.278251874117    -1.436285909699     0.067355308480
    C            0.506741372922    -0.690864809367     0.269751338042
    N            0.250526019011     0.081771833507    -0.799061174059
    O           -0.028427849307    -0.612360069491     1.329848749728
    C           -0.697912826171     1.172263920761    -0.785160094611
    H            0.811234536428    -0.054359515513    -1.603595139445
    H           -1.299857502744     1.152870910246    -1.684077084405
    H           -0.201010890506     2.133032213698    -0.716344542495
    H           -1.342097935632     1.055237738163     0.070316356961

  Mulliken Charges: (a.u.)
   Center  Symbol    Alpha    Beta     Spin     Total
       1     H     0.46297  0.46297  0.00000  0.07407
       2     C     2.88099  2.88099  0.00000  0.23803
       3     N     3.60778  3.60778  0.00000 -0.21557
       4     O     4.21481  4.21481  0.00000 -0.42962
       5     C     3.08060  3.08060  0.00000 -0.16120
       6     H     0.40978  0.40978  0.00000  0.18043
       7     H     0.45400  0.45400  0.00000  0.09200
       8     H     0.45535  0.45535  0.00000  0.08931
       9     H     0.43372  0.43372  0.00000  0.13255

   Total alpha = 16.00000, Total beta = 16.00000, Total charge = -0.00000
