  ==> Input File <==

--------------------------------------------------------------------------
set {
	reference rhf
	basis cc-pvtz
}

set_num_threads( 4 )
memory 2 gb

molecule MOL {
0 1

H	 2.086864	 1.244143	 0.984896
O	 1.215923	 0.879283	 1.030460
C	 1.050374	 0.054877	 0.000135
C	 -0.318151	 -0.570512	 0.000144
O	 1.902601	 -0.135156	 -0.797088
C	 -1.454884	 0.441630	 -0.000560
H	 -0.371613	 -1.223646	 -0.864985
H	 -0.371920	 -1.222758	 0.865929
C	 -2.822577	 -0.232186	 0.000063
H	 -1.359760	 1.084704	 -0.867077
H	 -1.359641	 1.085996	 0.864983
H	 -2.954352	 -0.858985	 -0.875745
H	 -3.615886	 0.505352	 0.000019
H	 -2.953878	 -0.858359	 0.876394

	symmetry c1
}
set optking {
	frozen_dihedral = ("
		2 3 4 7
	")
}

ee = optimize('scf')
oeprop('DIPOLE', 'QUADRUPOLE', 'MULLIKEN_CHARGES')
f=open( 'psi4out.xyz', 'w' )
f.write( "14  " )
f.write( str(ee) + "\n" )
f.write( MOL.save_string_xyz() )
f.close()
--------------------------------------------------------------------------

    Molecular point group: c1
  Charge       = 0
  Multiplicity = 1
  Basis Set: CC-PVTZ
  Basis Set:
  @DF-RHF Final Energy:  -305.99927104373694
    Total Energy =                       -305.9992710437370533
    Molecular point group: c1
  Basis Set: CC-PVTZ
  Basis Set:
  Basis Set: CC-PVTZ
  Basis Set:
  @DF-RHF Final Energy:  -305.99944655489526
    Total Energy =                       -305.9994465548952007
  Basis Set: CC-PVTZ
  Basis Set:
  Basis Set: CC-PVTZ
  Basis Set:
  @DF-RHF Final Energy:  -305.99901934341426
    Total Energy =                       -305.9990193434144317
  Basis Set: CC-PVTZ
  Basis Set:
  Basis Set: CC-PVTZ
  Basis Set:
  @DF-RHF Final Energy:  -305.99959929731182
    Total Energy =                       -305.9995992973118746
  Basis Set: CC-PVTZ
  Basis Set:
  Basis Set: CC-PVTZ
  Basis Set:
  @DF-RHF Final Energy:  -305.99960178783670
    Total Energy =                       -305.9996017878365819
  Basis Set: CC-PVTZ
  Basis Set:
  Charge       = 0
  Multiplicity = 1
  Basis Set: CC-PVTZ
  Basis Set:

    Orbital Energies (a.u.)
    -----------------------

    Doubly Occupied:

       1A    -20.604953     2A    -20.539592     3A    -11.372989
       4A    -11.238766     5A    -11.232448     6A    -11.219019
       7A     -1.477734     8A     -1.368343     9A     -1.087562
      10A     -0.980626    11A     -0.850305    12A     -0.815862
      13A     -0.705281    14A     -0.687935    15A     -0.652414
      16A     -0.630999    17A     -0.595656    18A     -0.566531
      19A     -0.553651    20A     -0.521916    21A     -0.500822
      22A     -0.488703    23A     -0.478051    24A     -0.440742

  @DF-RHF Final Energy:  -305.99960206498895

   => Energetics <=

    Nuclear Repulsion Energy =            240.9299296844596086
    One-Electron Energy =                -894.6372615068306686
    Two-Electron Energy =                 347.7077297573824239
    DFT Exchange-Correlation Energy =       0.0000000000000000
    Empirical Dispersion Energy =           0.0000000000000000
    PCM Polarization Energy =               0.0000000000000000
    EFP Energy =                            0.0000000000000000
    Total Energy =                       -305.9996020649886646
    Molecular point group: c1
  Basis Set: CC-PVTZ
  Basis Set:

  -Total Gradient:
     Atom            X                  Y                   Z
    ------   -----------------  -----------------  -----------------
       1       -0.000000546038    -0.000006895162    -0.000004788894
       2       -0.000195843244     0.000383844570    -0.000248222254
       3        0.000231086034    -0.000449112425     0.000261159357
       4        0.000160323259    -0.000334774211     0.000288765263
       5       -0.000007876190     0.000010092399     0.000002759417
       6        0.000023303374    -0.000017380697     0.000014463330
       7       -0.000194636423     0.000425924680    -0.000298733846
       8       -0.000000624639    -0.000005258074    -0.000015938692
       9       -0.000016703911    -0.000005327280    -0.000011814375
      10       -0.000005096123    -0.000005400646     0.000013188841
      11        0.000008561472     0.000006690124    -0.000000294426
      12       -0.000000717830    -0.000006140908     0.000002144621
      13       -0.000001554639     0.000000011967    -0.000003628114
      14        0.000000324902     0.000003725662     0.000000939777

  **** Optimization is complete! (in 6 steps) ****
    Final optimized geometry and variables:
    Molecular point group: c1

    Geometry (in Angstrom), charge = 0, multiplicity = 1:

    H            2.157632525325     1.147208694575     0.908802320492
    O            1.285427604102     0.788726166677     0.975751304298
    C            1.089743083133    -0.032684713318    -0.051979174501
    C           -0.275226589813    -0.665289183773    -0.036974368171
    O            1.923246486492    -0.224357721545    -0.868949989388
    C           -1.419239419941     0.352417292548    -0.037181999676
    H           -0.334171026377    -1.307793001332    -0.903351469484
    H           -0.338339382543    -1.285876995755     0.851198461813
    C           -2.783949658089    -0.326238579766    -0.064852759259
    H           -1.319570248288     1.000864384814    -0.901948407796
    H           -1.340098751543     0.984452864378     0.838041161710
    H           -2.897449090061    -0.945709897491    -0.947711911107
    H           -3.580137057098     0.408299557041    -0.070774711023
    H           -2.923509333273    -0.959432212466     0.804795171794

  Mulliken Charges: (a.u.)
   Center  Symbol    Alpha    Beta     Spin     Total
       1     H     0.38055  0.38055  0.00000  0.23889
       2     O     4.16315  4.16315  0.00000 -0.32629
       3     C     2.80859  2.80859  0.00000  0.38282
       4     C     3.08696  3.08696  0.00000 -0.17391
       5     O     4.19345  4.19345  0.00000 -0.38689
       6     C     3.09239  3.09239  0.00000 -0.18478
       7     H     0.43621  0.43621  0.00000  0.12759
       8     H     0.44547  0.44547  0.00000  0.10907
       9     C     3.14993  3.14993  0.00000 -0.29985
      10     H     0.44842  0.44842  0.00000  0.10316
      11     H     0.44230  0.44230  0.00000  0.11539
      12     H     0.45287  0.45287  0.00000  0.09427
      13     H     0.44564  0.44564  0.00000  0.10872
      14     H     0.45409  0.45409  0.00000  0.09182

   Total alpha = 24.00000, Total beta = 24.00000, Total charge = -0.00000
