  ==> Input File <==

--------------------------------------------------------------------------
set {
	reference rhf
	basis 6-31G*
}

set_num_threads( 4 )
memory 2 gb

molecule MOL {
0 1

O	 0.497789	 1.207605	 0.579859
C	 0.486307	 0.169203	 0.000779
C	 1.608116	 -0.841643	 0.000302
O	 -0.534444	 -0.243982	 -0.737429
C	 2.990107	 -0.200498	 -0.000684
H	 1.468623	 -1.481519	 -0.865924
H	 1.469683	 -1.481289	 0.866878
H	 3.129736	 0.423364	 -0.875135
H	 3.757882	 -0.966877	 -0.001197
H	 3.130964	 0.423383	 0.873533
C	 -1.668427	 0.612120	 -0.830022
C	 -2.683795	 -0.074189	 -1.719020
H	 -1.358718	 1.564497	 -1.238241
H	 -2.059912	 0.787410	 0.162754
H	 -2.274611	 -0.247523	 -2.707798
H	 -3.568304	 0.546798	 -1.817341
H	 -2.979762	 -1.028863	 -1.299189

	symmetry c1
}
set optking {
	frozen_dihedral = ("
		4 2 3 6
	")
}

ee = optimize('scf')
oeprop('DIPOLE', 'QUADRUPOLE', 'MULLIKEN_CHARGES')
f=open( 'psi4out.xyz', 'w' )
f.write( "17  " )
f.write( str(ee) + "\n" )
f.write( MOL.save_string_xyz() )
f.close()
--------------------------------------------------------------------------

    Molecular point group: c1
  Charge       = 0
  Multiplicity = 1
  Basis Set: 6-31G*
  Basis Set:
  @DF-RHF Final Energy:  -344.91067181745996
    Total Energy =                       -344.9106718174598427
    Molecular point group: c1
  Basis Set: 6-31G*
  Basis Set:
  Basis Set: 6-31G*
  Basis Set:
  @DF-RHF Final Energy:  -344.91089094358159
    Total Energy =                       -344.9108909435817623
  Basis Set: 6-31G*
  Basis Set:
  Basis Set: 6-31G*
  Basis Set:
  @DF-RHF Final Energy:  -344.91017182429579
    Total Energy =                       -344.9101718242957304
  Basis Set: 6-31G*
  Basis Set:
  Basis Set: 6-31G*
  Basis Set:
  @DF-RHF Final Energy:  -344.91100185916594
    Total Energy =                       -344.9110018591657649
  Basis Set: 6-31G*
  Basis Set:
  Basis Set: 6-31G*
  Basis Set:
  @DF-RHF Final Energy:  -344.91100462790411
    Total Energy =                       -344.9110046279041626
  Basis Set: 6-31G*
  Basis Set:
  Basis Set: 6-31G*
  Basis Set:
  @DF-RHF Final Energy:  -344.91100592416757
    Total Energy =                       -344.9110059241675685
  Basis Set: 6-31G*
  Basis Set:
  Charge       = 0
  Multiplicity = 1
  Basis Set: 6-31G*
  Basis Set:

    Orbital Energies (a.u.)
    -----------------------

    Doubly Occupied:

       1A    -20.602646     2A    -20.542300     3A    -11.371236
       4A    -11.284851     5A    -11.236836     6A    -11.222480
       7A    -11.218545     8A     -1.467996     9A     -1.361154
      10A     -1.069754    11A     -1.032215    12A     -0.910254
      13A     -0.849144    14A     -0.774450    15A     -0.694607
      16A     -0.688099    17A     -0.665438    18A     -0.625115
      19A     -0.587056    20A     -0.574291    21A     -0.556992
      22A     -0.526647    23A     -0.523720    24A     -0.511280
      25A     -0.503486    26A     -0.491471    27A     -0.452321
      28A     -0.434488

  @DF-RHF Final Energy:  -344.91100629277656

   => Energetics <=

    Nuclear Repulsion Energy =            314.7736758640240282
    One-Electron Energy =               -1093.8116212053932941
    Two-Electron Energy =                 434.1269390485925328
    DFT Exchange-Correlation Energy =       0.0000000000000000
    Empirical Dispersion Energy =           0.0000000000000000
    PCM Polarization Energy =               0.0000000000000000
    EFP Energy =                            0.0000000000000000
    Total Energy =                       -344.9110062927767899
    Molecular point group: c1
  Basis Set: 6-31G*
  Basis Set:

  -Total Gradient:
     Atom            X                  Y                   Z
    ------   -----------------  -----------------  -----------------
       1       -0.000002142821    -0.000027145592    -0.000012070860
       2       -0.000680447767    -0.000743196142     0.001281611592
       3        0.000991637017     0.001091753935    -0.001110038830
       4        0.000389939631     0.000442098595    -0.000835591621
       5       -0.000007479004     0.000003833485    -0.000009825542
       6       -0.000698476261    -0.000752242959     0.000679074121
       7       -0.000004417281    -0.000009294270     0.000007141918
       8        0.000003515108    -0.000000625429     0.000007513008
       9       -0.000001667009    -0.000002014766    -0.000001253957
      10        0.000001756377     0.000003220934    -0.000002902739
      11        0.000018789407    -0.000011429052    -0.000002080788
      12       -0.000005595075     0.000002015481    -0.000000082034
      13       -0.000003045044     0.000003435959    -0.000000870328
      14       -0.000002845673     0.000000951423    -0.000000397774
      15        0.000000703529     0.000000096323     0.000000210417
      16        0.000000127787    -0.000000438135    -0.000000218979
      17       -0.000000352919    -0.000001019788    -0.000000217602

  **** Optimization is complete! (in 7 steps) ****
    Final optimized geometry and variables:
    Molecular point group: c1

    Geometry (in Angstrom), charge = 0, multiplicity = 1:

    O            0.425113550443     1.100718602958     0.953659491425
    C            0.405011293542     0.066338438446     0.366011536295
    C            1.525946972971    -0.947051363075     0.379485192686
    O           -0.622717386425    -0.335777618419    -0.365875306058
    C            2.904708012343    -0.293258718706     0.422710774728
    H            1.415251576300    -1.610243779387    -0.468781897961
    H            1.376079008548    -1.555269782261     1.268767265664
    H            3.088751701170     0.291641646895    -0.472253957881
    H            3.677313067866    -1.051158359073     0.492795011223
    H            2.989379284309     0.366437506060     1.276263639999
    C           -1.763605827352     0.514932937380    -0.420003345927
    C           -2.791000836959    -0.159731610988    -1.304091360199
    H           -1.466390694231     1.477052138486    -0.813996455674
    H           -2.137362445392     0.667603697641     0.583274516223
    H           -2.399002818313    -0.310377869996    -2.303523021887
    H           -3.680740222819     0.457644301199    -1.373680710972
    H           -3.073690863134    -1.124540133044    -0.898572268352

  Mulliken Charges: (a.u.)
   Center  Symbol    Alpha    Beta     Spin     Total
       1     O     4.28723  4.28723  0.00000 -0.57446
       2     C     2.60399  2.60399  0.00000  0.79202
       3     C     3.20656  3.20656  0.00000 -0.41313
       4     O     4.31211  4.31211  0.00000 -0.62423
       5     C     3.24358  3.24358  0.00000 -0.48717
       6     H     0.40052  0.40052  0.00000  0.19895
       7     H     0.40050  0.40050  0.00000  0.19900
       8     H     0.41527  0.41527  0.00000  0.16947
       9     H     0.41636  0.41636  0.00000  0.16728
      10     H     0.40256  0.40256  0.00000  0.19489
      11     C     3.00316  3.00316  0.00000 -0.00633
      12     C     3.24854  3.24854  0.00000 -0.49709
      13     H     0.40955  0.40955  0.00000  0.18090
      14     H     0.41025  0.41025  0.00000  0.17950
      15     H     0.41177  0.41177  0.00000  0.17646
      16     H     0.41621  0.41621  0.00000  0.16758
      17     H     0.41183  0.41183  0.00000  0.17634

   Total alpha = 28.00000, Total beta = 28.00000, Total charge =  0.00000
