  ==> Input File <==

--------------------------------------------------------------------------
set {
	reference rhf
	basis 6-31G*
}

set_num_threads( 4 )
memory 2 gb

molecule MOL {
0 1

H	 -2.098997	 -0.674324	 -0.616650
O	 -2.035884	 -0.060112	 0.102722
C	 -0.955155	 0.788182	 -0.092531
C	 0.353668	 0.040312	 -0.004810
H	 -0.985057	 1.290372	 -1.054184
H	 -0.974469	 1.533190	 0.688632
F	 0.972461	 0.313515	 1.138443
F	 0.144104	 -1.265670	 -0.045960
F	 1.178185	 0.349555	 -0.984653

	symmetry c1
}
set optking {
	frozen_dihedral = ("
		7 4 3 5
	")
}

ee = optimize('scf')
oeprop('DIPOLE', 'QUADRUPOLE', 'MULLIKEN_CHARGES')
f=open( 'psi4out.xyz', 'w' )
f.write( "9  " )
f.write( str(ee) + "\n" )
f.write( MOL.save_string_xyz() )
f.close()
--------------------------------------------------------------------------

    Molecular point group: c1
  Charge       = 0
  Multiplicity = 1
  Basis Set: 6-31G*
  Basis Set:
  @DF-RHF Final Energy:  -450.65534513272030
    Total Energy =                       -450.6553451327204129
    Molecular point group: c1
  Basis Set: 6-31G*
  Basis Set:
  Basis Set: 6-31G*
  Basis Set:
  @DF-RHF Final Energy:  -450.65617017811996
    Total Energy =                       -450.6561701781200782
  Basis Set: 6-31G*
  Basis Set:
  Basis Set: 6-31G*
  Basis Set:
  @DF-RHF Final Energy:  -450.65678555882511
    Total Energy =                       -450.6567855588249927
  Basis Set: 6-31G*
  Basis Set:
  Basis Set: 6-31G*
  Basis Set:
  @DF-RHF Final Energy:  -450.65682989596405
    Total Energy =                       -450.6568298959640515
  Basis Set: 6-31G*
  Basis Set:
  Basis Set: 6-31G*
  Basis Set:
  @DF-RHF Final Energy:  -450.65683314870910
    Total Energy =                       -450.6568331487090973
  Basis Set: 6-31G*
  Basis Set:
  Charge       = 0
  Multiplicity = 1
  Basis Set: 6-31G*
  Basis Set:

    Orbital Energies (a.u.)
    -----------------------

    Doubly Occupied:

       1A    -26.346219     2A    -26.339951     3A    -26.339461
       4A    -20.589929     5A    -11.502233     6A    -11.309509
       7A     -1.740852     8A     -1.640706     9A     -1.634552
      10A     -1.402030    11A     -1.043824    12A     -0.924420
      13A     -0.829795    14A     -0.828046    15A     -0.809257
      16A     -0.723178    17A     -0.712609    18A     -0.698199
      19A     -0.665095    20A     -0.658353    21A     -0.641810
      22A     -0.627542    23A     -0.614119    24A     -0.526352
      25A     -0.479926

  @DF-RHF Final Energy:  -450.65683344372894

   => Energetics <=

    Nuclear Repulsion Energy =            276.0722924213894203
    One-Electron Energy =               -1174.2023203825174278
    Two-Electron Energy =                 447.4731945173992358
    DFT Exchange-Correlation Energy =       0.0000000000000000
    Empirical Dispersion Energy =           0.0000000000000000
    PCM Polarization Energy =               0.0000000000000000
    EFP Energy =                            0.0000000000000000
    Total Energy =                       -450.6568334437287717
    Molecular point group: c1
  Basis Set: 6-31G*
  Basis Set:

  -Total Gradient:
     Atom            X                  Y                   Z
    ------   -----------------  -----------------  -----------------
       1       -0.000019875752    -0.000001840741     0.000004116157
       2        0.000026001205    -0.000011656470    -0.000014515114
       3       -0.001774065974    -0.003569618438    -0.002846486976
       4       -0.002126725435    -0.003295269384     0.002597147411
       5        0.001977790971     0.003731322124     0.001929933268
       6        0.000000208638     0.000013385058    -0.000001129875
       7        0.001865073902     0.003021442034    -0.001653622779
       8       -0.000012734459     0.000064106384     0.000032601685
       9        0.000064326902     0.000048129431    -0.000048043776

  **** Optimization is complete! (in 6 steps) ****
    Final optimized geometry and variables:
    Molecular point group: c1

    Geometry (in Angstrom), charge = 0, multiplicity = 1:

    H           -2.114407182453    -0.704749781441    -0.561363712764
    O           -2.075812538438    -0.014959115962     0.087149855027
    C           -0.966416461804     0.786459301346    -0.126295581867
    C            0.355407462283     0.026266923142    -0.004211132117
    H           -0.973205587149     1.291442155220    -1.086161840482
    H           -0.975701014650     1.547626565427     0.639409072713
    F            0.970563963358     0.270938359795     1.139171325553
    F            0.187255240046    -1.279881668429    -0.109384567312
    F            1.191307780138     0.394972501347    -0.967248286568

  Mulliken Charges: (a.u.)
   Center  Symbol    Alpha    Beta     Spin     Total
       1     H     0.27292  0.27292  0.00000  0.45415
       2     O     4.35907  4.35907  0.00000 -0.71815
       3     C     3.07071  3.07071  0.00000 -0.14142
       4     C     2.45378  2.45378  0.00000  1.09244
       5     H     0.40555  0.40555  0.00000  0.18889
       6     H     0.39188  0.39188  0.00000  0.21624
       7     F     4.67959  4.67959  0.00000 -0.35919
       8     F     4.68085  4.68085  0.00000 -0.36170
       9     F     4.68563  4.68563  0.00000 -0.37127

   Total alpha = 25.00000, Total beta = 25.00000, Total charge = -0.00000
