  ==> Input File <==

--------------------------------------------------------------------------
set {
	reference rhf
	basis 6-31G*
}

set_num_threads( 1 )
memory 2 gb

molecule MOL {
0 1

H	 3.089270	 -1.380733	 0.000000
O	 2.178328	 -1.639175	 0.000000
C	 1.368216	 -0.558384	 0.000000
C	 0.109153	 -0.572097	 -0.586409
C	 1.833362	 0.591862	 0.613193
H	 -0.250938	 -1.468280	 -1.063093
C	 -0.683214	 0.563283	 -0.559309
H	 2.805691	 0.603803	 1.066523
C	 1.033782	 1.724211	 0.635912
H	 -1.655775	 0.540606	 -1.016464
C	 -0.226369	 1.717212	 0.051325
C	 1.527362	 2.963346	 1.293021
H	 -0.840169	 2.600253	 0.073541
O	 2.588124	 3.070420	 1.820149
H	 0.832587	 3.808171	 1.264595

	symmetry c1
}
set optking {
	frozen_dihedral = ("
		11 9 12 14
	")
}

ee = energy('scf')
oeprop('DIPOLE', 'QUADRUPOLE', 'MULLIKEN_CHARGES')
f=open( 'psi4out.xyz', 'w' )
f.write( "15  " )
f.write( str(ee) + "\n" )
f.write( MOL.save_string_xyz() )
f.close()
--------------------------------------------------------------------------

    Molecular point group: c1

    Geometry (in Angstrom), charge = 0, multiplicity = 1:

       Center              X                  Y                   Z               Mass
    ------------   -----------------  -----------------  -----------------  -----------------
           H          1.943727547401    -2.239379594946    -0.383602140285     1.007825032070
           O          1.032785547401    -2.497821594946    -0.383602140285    15.994914619560
           C          0.222673547401    -1.417030594946    -0.383602140285    12.000000000000
           C         -1.036389452599    -1.430743594946    -0.970011140285    12.000000000000
           C          0.687819547401    -0.266784594946     0.229590859715    12.000000000000
           H         -1.396480452599    -2.326926594946    -1.446695140285     1.007825032070
           C         -1.828756452599    -0.295363594946    -0.942911140285    12.000000000000
           H          1.660148547401    -0.254843594946     0.682920859715     1.007825032070
           C         -0.111760452599     0.865564405054     0.252309859715    12.000000000000
           H         -2.801317452599    -0.318040594946    -1.400066140285     1.007825032070
           C         -1.371911452599     0.858565405054    -0.332277140285    12.000000000000
           C          0.381819547401     2.104699405054     0.909418859715    12.000000000000
           H         -1.985711452599     1.741606405054    -0.310061140285     1.007825032070
           O          1.442581547401     2.211773405054     1.436546859715    15.994914619560
           H         -0.312955452599     2.949524405054     0.880992859715     1.007825032070

  Charge       = 0
  Multiplicity = 1
  Basis Set: 6-31G*
  Basis Set:

    Orbital Energies (a.u.)
    -----------------------

    Doubly Occupied:

       1A    -20.596535     2A    -20.566978     3A    -11.335060
       4A    -11.311283     5A    -11.253258     6A    -11.252229
       7A    -11.248401     8A    -11.247670     9A    -11.243562
      10A     -1.418413    11A     -1.407938    12A     -1.170167
      13A     -1.049665    14A     -1.026128    15A     -0.900123
      16A     -0.852388    17A     -0.797887    18A     -0.753000
      19A     -0.702555    20A     -0.670838    21A     -0.659560
      22A     -0.630920    23A     -0.616433    24A     -0.606645
      25A     -0.564812    26A     -0.551983    27A     -0.532554
      28A     -0.515972    29A     -0.486685    30A     -0.425284
      31A     -0.353730    32A     -0.329666

  @DF-RHF Final Energy:  -418.28436468703688

   => Energetics <=

    Nuclear Repulsion Energy =            403.4632469087320601
    One-Electron Energy =               -1369.3385901534657023
    Two-Electron Energy =                 547.5909785576970989
    DFT Exchange-Correlation Energy =       0.0000000000000000
    Empirical Dispersion Energy =           0.0000000000000000
    PCM Polarization Energy =               0.0000000000000000
    EFP Energy =                            0.0000000000000000
    Total Energy =                       -418.2843646870364864

  Mulliken Charges: (a.u.)
   Center  Symbol    Alpha    Beta     Spin     Total
       1     H     0.26774  0.26774  0.00000  0.46453
       2     O     4.38158  4.38158  0.00000 -0.76316
       3     C     2.79112  2.79112  0.00000  0.41776
       4     C     3.11509  3.11509  0.00000 -0.23018
       5     C     3.13405  3.13405  0.00000 -0.26810
       6     H     0.38677  0.38677  0.00000  0.22646
       7     C     3.09676  3.09676  0.00000 -0.19351
       8     H     0.38058  0.38058  0.00000  0.23884
       9     C     3.04744  3.04744  0.00000 -0.09488
      10     H     0.39197  0.39197  0.00000  0.21605
      11     C     3.11339  3.11339  0.00000 -0.22679
      12     C     2.83221  2.83221  0.00000  0.33558
      13     H     0.39269  0.39269  0.00000  0.21462
      14     O     4.24742  4.24742  0.00000 -0.49484
      15     H     0.42119  0.42119  0.00000  0.15762

   Total alpha = 32.00000, Total beta = 32.00000, Total charge =  0.00000
