  ==> Input File <==

--------------------------------------------------------------------------
set {
	reference rhf
	basis 6-31G*
}

set_num_threads( 1 )
memory 2 gb

molecule MOL {
0 1

O	 -3.183766	 0.575285	 0.974676
C	 -2.668563	 0.129746	 -0.000350
C	 -3.292509	 0.167632	 -1.371672
O	 -1.481751	 -0.454642	 0.000584
H	 -3.486256	 1.199975	 -1.637361
H	 -2.657834	 -0.290271	 -2.115952
H	 -4.245953	 -0.345626	 -1.334380
C	 -0.334255	 0.388708	 0.000906
C	 0.891947	 -0.504646	 0.000751
H	 -0.365390	 1.025305	 -0.873475
H	 -0.365484	 1.024911	 0.875569
C	 2.191998	 0.301789	 0.000897
H	 0.855148	 -1.151283	 -0.871571
H	 0.855132	 -1.151660	 0.872805
C	 3.441114	 -0.581407	 0.000108
H	 2.215074	 0.954890	 -0.869742
H	 2.215465	 0.953923	 0.872248
C	 4.739576	 0.224112	 -0.001102
H	 3.419457	 -1.233487	 -0.870178
H	 3.420834	 -1.233096	 0.870717
H	 4.804918	 0.861552	 -0.878265
H	 5.606527	 -0.429058	 -0.001824
H	 4.806469	 0.861674	 0.875853

	symmetry c1
}
set optking {
	frozen_dihedral = ("
		13 9 8 10,
		2 4 8 10,
		16 12 9 13,
		19 15 12 16
	")
}

ee = energy('scf')
oeprop('DIPOLE', 'QUADRUPOLE', 'MULLIKEN_CHARGES')
f=open( 'psi4out.xyz', 'w' )
f.write( "23  " )
f.write( str(ee) + "\n" )
f.write( MOL.save_string_xyz() )
f.close()
--------------------------------------------------------------------------

    Molecular point group: c1

    Geometry (in Angstrom), charge = 0, multiplicity = 1:

       Center              X                  Y                   Z               Mass
    ------------   -----------------  -----------------  -----------------  -----------------
           O         -3.200821374662     0.540720422023     1.020577019830    15.994914619560
           C         -2.685618374662     0.095181422023     0.045551019830    12.000000000000
           C         -3.309564374662     0.133067422023    -1.325770980170    12.000000000000
           O         -1.498806374662    -0.489206577977     0.046485019830    15.994914619560
           H         -3.503311374662     1.165410422023    -1.591459980170     1.007825032070
           H         -2.674889374662    -0.324835577977    -2.070050980170     1.007825032070
           H         -4.263008374662    -0.380190577977    -1.288478980170     1.007825032070
           C         -0.351310374662     0.354143422023     0.046807019830    12.000000000000
           C          0.874891625338    -0.539210577977     0.046652019830    12.000000000000
           H         -0.382445374662     0.990740422023    -0.827573980170     1.007825032070
           H         -0.382539374662     0.990346422023     0.921470019830     1.007825032070
           C          2.174942625338     0.267224422023     0.046798019830    12.000000000000
           H          0.838092625338    -1.185847577977    -0.825669980170     1.007825032070
           H          0.838076625338    -1.186224577977     0.918706019830     1.007825032070
           C          3.424058625338    -0.615971577977     0.046009019830    12.000000000000
           H          2.198018625338     0.920325422023    -0.823840980170     1.007825032070
           H          2.198409625338     0.919358422023     0.918149019830     1.007825032070
           C          4.722520625338     0.189547422023     0.044799019830    12.000000000000
           H          3.402401625338    -1.268051577977    -0.824276980170     1.007825032070
           H          3.403778625338    -1.267660577977     0.916618019830     1.007825032070
           H          4.787862625338     0.826987422023    -0.832363980170     1.007825032070
           H          5.589471625338    -0.463622577977     0.044077019830     1.007825032070
           H          4.789413625338     0.827109422023     0.921754019830     1.007825032070

  Charge       = 0
  Multiplicity = 1
  Basis Set: 6-31G*
  Basis Set:

    Orbital Energies (a.u.)
    -----------------------

    Doubly Occupied:

       1A    -20.583201     2A    -20.549637     3A    -11.374712
       4A    -11.294298     5A    -11.231873     6A    -11.228328
       7A    -11.227286     8A    -11.224085     9A    -11.214986
      10A     -1.461592    11A     -1.363787    12A     -1.096729
      13A     -1.039402    14A     -1.006138    15A     -0.936997
      16A     -0.845251    17A     -0.806480    18A     -0.776498
      19A     -0.699509    20A     -0.683872    21A     -0.655416
      22A     -0.650387    23A     -0.617125    24A     -0.591076
      25A     -0.583463    26A     -0.575165    27A     -0.558459
      28A     -0.550648    29A     -0.516879    30A     -0.502104
      31A     -0.485887    32A     -0.479496    33A     -0.474188
      34A     -0.471828    35A     -0.451164    36A     -0.432863

  @DF-RHF Final Energy:  -422.95866623634930

   => Energetics <=

    Nuclear Repulsion Energy =            449.7113128264139164
    One-Electron Energy =               -1466.8583423831094024
    Two-Electron Energy =                 594.1883633203466388
    DFT Exchange-Correlation Energy =       0.0000000000000000
    Empirical Dispersion Energy =           0.0000000000000000
    PCM Polarization Energy =               0.0000000000000000
    EFP Energy =                            0.0000000000000000
    Total Energy =                       -422.9586662363489040

  Mulliken Charges: (a.u.)
   Center  Symbol    Alpha    Beta     Spin     Total
       1     O     4.25869  4.25869  0.00000 -0.51738
       2     C     2.62386  2.62386  0.00000  0.75229
       3     C     3.29350  3.29350  0.00000 -0.58699
       4     O     4.31789  4.31789  0.00000 -0.63577
       5     H     0.39913  0.39913  0.00000  0.20173
       6     H     0.40338  0.40338  0.00000  0.19324
       7     H     0.39549  0.39549  0.00000  0.20902
       8     C     2.99643  2.99643  0.00000  0.00713
       9     C     3.16356  3.16356  0.00000 -0.32713
      10     H     0.42243  0.42243  0.00000  0.15515
      11     H     0.40819  0.40819  0.00000  0.18362
      12     C     3.16127  3.16127  0.00000 -0.32254
      13     H     0.41340  0.41340  0.00000  0.17321
      14     H     0.40831  0.40831  0.00000  0.18338
      15     C     3.15174  3.15174  0.00000 -0.30349
      16     H     0.42246  0.42246  0.00000  0.15509
      17     H     0.41995  0.41995  0.00000  0.16009
      18     C     3.23998  3.23998  0.00000 -0.47996
      19     H     0.42122  0.42122  0.00000  0.15756
      20     H     0.41999  0.41999  0.00000  0.16001
      21     H     0.42131  0.42131  0.00000  0.15738
      22     H     0.41735  0.41735  0.00000  0.16530
      23     H     0.42048  0.42048  0.00000  0.15904

   Total alpha = 36.00000, Total beta = 36.00000, Total charge = -0.00000
