  ==> Input File <==

--------------------------------------------------------------------------
set {
	reference rhf
	basis 6-31G*
}

set_num_threads( 1 )
memory 2 gb

molecule MOL {
0 1

O	 3.225979	 0.970355	 -0.599647
C	 2.701189	 0.057885	 -0.047330
C	 1.245376	 -0.013843	 0.345420
O	 3.347903	 -1.046386	 0.304773
C	 0.733578	 -1.445106	 0.492612
H	 1.135004	 0.554077	 1.263285
H	 0.680267	 0.528052	 -0.408702
C	 -0.767382	 -1.536493	 0.788016
H	 1.293790	 -1.947558	 1.275442
H	 0.948884	 -1.985122	 -0.423056
C	 -1.192717	 -0.976107	 2.148224
H	 -1.057424	 -2.583420	 0.737584
H	 -1.323480	 -1.031449	 -0.000460
C	 -2.679117	 -1.189894	 2.441325
H	 -0.600495	 -1.448272	 2.930626
H	 -0.974250	 0.088117	 2.199921
C	 -3.116598	 -0.629237	 3.795727
H	 -2.903529	 -2.254567	 2.404649
H	 -3.271663	 -0.727198	 1.653606
C	 -4.601419	 -0.850224	 4.082386
H	 -2.524782	 -1.089802	 4.583938
H	 -2.897079	 0.435765	 3.832654
H	 -4.880879	 -0.442133	 5.048807
H	 -4.846501	 -1.908576	 4.087000
H	 -5.221552	 -0.371747	 3.329546
C	 4.728119	 -1.109107	 -0.004993
H	 4.882018	 -1.033965	 -1.071845
H	 5.068212	 -2.067527	 0.355250
H	 5.265056	 -0.311663	 0.488280

	symmetry c1
}
set optking {
	frozen_dihedral = ("
		21 17 14 11,
		17 14 11 15,
		15 11 8 5,
		6 3 5 9,
		11 8 5 9,
		2 4 26 27,
		1 2 4 26
	")
}

ee = energy('scf')
oeprop('DIPOLE', 'QUADRUPOLE', 'MULLIKEN_CHARGES')
f=open( 'psi4out.xyz', 'w' )
f.write( "29  " )
f.write( str(ee) + "\n" )
f.write( MOL.save_string_xyz() )
f.close()
--------------------------------------------------------------------------

    Molecular point group: c1

    Geometry (in Angstrom), charge = 0, multiplicity = 1:

       Center              X                  Y                   Z               Mass
    ------------   -----------------  -----------------  -----------------  -----------------
           O          2.856381122072     1.673926922147    -1.841147560600    15.994914619560
           C          2.331591122072     0.761456922147    -1.288830560600    12.000000000000
           C          0.875778122072     0.689728922147    -0.896080560600    12.000000000000
           O          2.978305122072    -0.342814077853    -0.936727560600    15.994914619560
           C          0.363980122072    -0.741534077853    -0.748888560600    12.000000000000
           H          0.765406122072     1.257648922147     0.021784439400     1.007825032070
           H          0.310669122072     1.231623922147    -1.650202560600     1.007825032070
           C         -1.136979877928    -0.832921077853    -0.453484560600    12.000000000000
           H          0.924192122072    -1.243986077853     0.033941439400     1.007825032070
           H          0.579286122072    -1.281550077853    -1.664556560600     1.007825032070
           C         -1.562314877928    -0.272535077853     0.906723439400    12.000000000000
           H         -1.427021877928    -1.879848077853    -0.503916560600     1.007825032070
           H         -1.693077877928    -0.327877077853    -1.241960560600     1.007825032070
           C         -3.048714877928    -0.486322077853     1.199824439400    12.000000000000
           H         -0.970092877928    -0.744700077853     1.689125439400     1.007825032070
           H         -1.343847877928     0.791688922147     0.958420439400     1.007825032070
           C         -3.486195877928     0.074334922147     2.554226439400    12.000000000000
           H         -3.273126877928    -1.550995077853     1.163148439400     1.007825032070
           H         -3.641260877928    -0.023626077853     0.412105439400     1.007825032070
           C         -4.971016877928    -0.146652077853     2.840885439400    12.000000000000
           H         -2.894379877928    -0.386230077853     3.342437439400     1.007825032070
           H         -3.266676877928     1.139336922147     2.591153439400     1.007825032070
           H         -5.250476877928     0.261438922147     3.807306439400     1.007825032070
           H         -5.216098877928    -1.205004077853     2.845499439400     1.007825032070
           H         -5.591149877928     0.331824922147     2.088045439400     1.007825032070
           C          4.358521122072    -0.405535077853    -1.246493560600    12.000000000000
           H          4.512420122072    -0.330393077853    -2.313345560600     1.007825032070
           H          4.698614122072    -1.363955077853    -0.886250560600     1.007825032070
           H          4.895458122072     0.391908922147    -0.753220560600     1.007825032070

  Charge       = 0
  Multiplicity = 1
  Basis Set: 6-31G*
  Basis Set:

    Orbital Energies (a.u.)
    -----------------------

    Doubly Occupied:

       1A    -20.604678     2A    -20.542663     3A    -11.372028
       4A    -11.280955     5A    -11.234441     6A    -11.222093
       7A    -11.218998     8A    -11.217262     9A    -11.216551
      10A    -11.215391    11A    -11.209576    12A     -1.469502
      13A     -1.361568    14A     -1.100523    15A     -1.069222
      16A     -1.019556    17A     -0.972528    18A     -0.931655
      19A     -0.864752    20A     -0.799576    21A     -0.790848
      22A     -0.772822    23A     -0.698722    24A     -0.682553
      25A     -0.670411    26A     -0.651883    27A     -0.628928
      28A     -0.605439    29A     -0.589394    30A     -0.576519
      31A     -0.569381    32A     -0.543956    33A     -0.539628
      34A     -0.531283    35A     -0.522674    36A     -0.514369
      37A     -0.499409    38A     -0.480173    39A     -0.471320
      40A     -0.463287    41A     -0.462957    42A     -0.455103
      43A     -0.444153    44A     -0.425721

  @DF-RHF Final Energy:  -501.04076108748268

   => Energetics <=

    Nuclear Repulsion Energy =            614.6652603574227669
    One-Electron Energy =               -1900.3829368204494585
    Two-Electron Energy =                 784.6769153755428761
    DFT Exchange-Correlation Energy =       0.0000000000000000
    Empirical Dispersion Energy =           0.0000000000000000
    PCM Polarization Energy =               0.0000000000000000
    EFP Energy =                            0.0000000000000000
    Total Energy =                       -501.0407610874838156

  Mulliken Charges: (a.u.)
   Center  Symbol    Alpha    Beta     Spin     Total
       1     O     4.28835  4.28835  0.00000 -0.57669
       2     C     2.60432  2.60432  0.00000  0.79137
       3     C     3.21247  3.21247  0.00000 -0.42494
       4     O     4.30389  4.30389  0.00000 -0.60777
       5     C     3.15492  3.15492  0.00000 -0.30983
       6     H     0.39777  0.39777  0.00000  0.20446
       7     H     0.39897  0.39897  0.00000  0.20206
       8     C     3.15610  3.15610  0.00000 -0.31221
       9     H     0.40947  0.40947  0.00000  0.18105
      10     H     0.41531  0.41531  0.00000  0.16938
      11     C     3.15519  3.15519  0.00000 -0.31037
      12     H     0.41907  0.41907  0.00000  0.16186
      13     H     0.42297  0.42297  0.00000  0.15407
      14     C     3.15034  3.15034  0.00000 -0.30069
      15     H     0.42295  0.42295  0.00000  0.15410
      16     H     0.42303  0.42303  0.00000  0.15395
      17     C     3.15156  3.15156  0.00000 -0.30311
      18     H     0.42359  0.42359  0.00000  0.15281
      19     H     0.42349  0.42349  0.00000  0.15302
      20     C     3.23940  3.23940  0.00000 -0.47879
      21     H     0.42299  0.42299  0.00000  0.15401
      22     H     0.42299  0.42299  0.00000  0.15402
      23     H     0.41906  0.41906  0.00000  0.16187
      24     H     0.42171  0.42171  0.00000  0.15657
      25     H     0.42158  0.42158  0.00000  0.15684
      26     C     3.09207  3.09207  0.00000 -0.18414
      27     H     0.40865  0.40865  0.00000  0.18270
      28     H     0.40894  0.40894  0.00000  0.18211
      29     H     0.40886  0.40886  0.00000  0.18229

   Total alpha = 44.00000, Total beta = 44.00000, Total charge =  0.00000
