  ==> Input File <==

--------------------------------------------------------------------------
set {
	reference rhf
	basis 6-31G*
}

set_num_threads( 1 )
memory 2 gb

molecule MOL {
0 1

H	 2.947557	 5.276195	 -1.538646
C	 1.972175	 5.071148	 -1.968888
C	 1.418167	 3.736930	 -1.470778
H	 1.313000	 5.891176	 -1.699845
H	 2.080290	 5.073940	 -3.050139
C	 0.045192	 3.413430	 -2.064159
H	 1.348058	 3.759847	 -0.388114
H	 2.116277	 2.940663	 -1.724337
C	 -0.527130	 2.074722	 -1.597710
H	 -0.654713	 4.202489	 -1.812839
H	 0.122943	 3.392532	 -3.148852
C	 -0.974344	 2.056836	 -0.143433
H	 -1.402288	 1.821450	 -2.194136
H	 0.184507	 1.268920	 -1.763339
C	 -1.181045	 0.701995	 0.511084
O	 -1.175213	 3.066615	 0.461881
C	 -2.285934	 -0.139295	 -0.145128
H	 -1.418783	 0.885994	 1.551920
H	 -0.241541	 0.153605	 0.475247
C	 -3.651768	 0.085446	 0.506485
H	 -2.346596	 0.110469	 -1.202272
H	 -2.034737	 -1.195320	 -0.088721
C	 -4.759797	 -0.746382	 -0.137905
H	 -3.908762	 1.140117	 0.445781
H	 -3.588286	 -0.154158	 1.565709
H	 -4.868882	 -0.505166	 -1.191300
H	 -4.548009	 -1.809175	 -0.062213
H	 -5.715422	 -0.564821	 0.343442

	symmetry c1
}
set optking {
	frozen_dihedral = ("
		10 6 3 2,
		16 12 15 17
	")
}

ee = energy('scf')
oeprop('DIPOLE', 'QUADRUPOLE', 'MULLIKEN_CHARGES')
f=open( 'psi4out.xyz', 'w' )
f.write( "28  " )
f.write( str(ee) + "\n" )
f.write( MOL.save_string_xyz() )
f.close()
--------------------------------------------------------------------------

    Molecular point group: c1

    Geometry (in Angstrom), charge = 0, multiplicity = 1:

       Center              X                  Y                   Z               Mass
    ------------   -----------------  -----------------  -----------------  -----------------
           H          4.065558105768     3.334073485027    -0.931189861250     1.007825032070
           C          3.090176105768     3.129026485027    -1.361431861250    12.000000000000
           C          2.536168105768     1.794808485027    -0.863321861250    12.000000000000
           H          2.431001105768     3.949054485027    -1.092388861250     1.007825032070
           H          3.198291105768     3.131818485027    -2.442682861250     1.007825032070
           C          1.163193105768     1.471308485027    -1.456702861250    12.000000000000
           H          2.466059105768     1.817725485027     0.219342138750     1.007825032070
           H          3.234278105768     0.998541485027    -1.116880861250     1.007825032070
           C          0.590871105768     0.132600485027    -0.990253861250    12.000000000000
           H          0.463288105768     2.260367485027    -1.205382861250     1.007825032070
           H          1.240944105768     1.450410485027    -2.541395861250     1.007825032070
           C          0.143657105768     0.114714485027     0.464023138750    12.000000000000
           H         -0.284286894232    -0.120671514973    -1.586679861250     1.007825032070
           H          1.302508105768    -0.673201514973    -1.155882861250     1.007825032070
           C         -0.063043894232    -1.240126514973     1.118540138750    12.000000000000
           O         -0.057211894232     1.124493485027     1.069337138750    15.994914619560
           C         -1.167932894232    -2.081416514973     0.462328138750    12.000000000000
           H         -0.300781894232    -1.056127514973     2.159376138750     1.007825032070
           H          0.876460105768    -1.788516514973     1.082703138750     1.007825032070
           C         -2.533766894232    -1.856675514973     1.113941138750    12.000000000000
           H         -1.228594894232    -1.831652514973    -0.594815861250     1.007825032070
           H         -0.916735894232    -3.137441514973     0.518735138750     1.007825032070
           C         -3.641795894232    -2.688503514973     0.469551138750    12.000000000000
           H         -2.790760894232    -0.802004514973     1.053237138750     1.007825032070
           H         -2.470284894232    -2.096279514973     2.173165138750     1.007825032070
           H         -3.750880894232    -2.447287514973    -0.583843861250     1.007825032070
           H         -3.430007894232    -3.751296514973     0.545243138750     1.007825032070
           H         -4.597420894232    -2.506942514973     0.950898138750     1.007825032070

  Charge       = 0
  Multiplicity = 1
  Basis Set: 6-31G*
  Basis Set:

    Orbital Energies (a.u.)
    -----------------------

    Doubly Occupied:

       1A    -20.548666     2A    -11.322420     3A    -11.230911
       4A    -11.230422     5A    -11.227839     6A    -11.222356
       7A    -11.216892     8A    -11.214048     9A    -11.212614
      10A    -11.205948    11A     -1.393774    12A     -1.094921
      13A     -1.077231    14A     -1.021255    15A     -0.990376
      16A     -0.906189    17A     -0.873534    18A     -0.809780
      19A     -0.799462    20A     -0.723099    21A     -0.670046
      22A     -0.647152    23A     -0.629724    24A     -0.611940
      25A     -0.609905    26A     -0.588893    27A     -0.584218
      28A     -0.573176    29A     -0.538118    30A     -0.535541
      31A     -0.521173    32A     -0.511882    33A     -0.501822
      34A     -0.482342    35A     -0.478680    36A     -0.472141
      37A     -0.466979    38A     -0.461354    39A     -0.454541
      40A     -0.393514

  @DF-RHF Final Energy:  -426.16532687160020

   => Energetics <=

    Nuclear Repulsion Energy =            537.1629409623365063
    One-Electron Energy =               -1642.5468227334022231
    Two-Electron Energy =                 679.2185548994656301
    DFT Exchange-Correlation Energy =       0.0000000000000000
    Empirical Dispersion Energy =           0.0000000000000000
    PCM Polarization Energy =               0.0000000000000000
    EFP Energy =                            0.0000000000000000
    Total Energy =                       -426.1653268716000866

  Mulliken Charges: (a.u.)
   Center  Symbol    Alpha    Beta     Spin     Total
       1     H     0.41928  0.41928  0.00000  0.16145
       2     C     3.24014  3.24014  0.00000 -0.48029
       3     C     3.15655  3.15655  0.00000 -0.31311
       4     H     0.41830  0.41830  0.00000  0.16339
       5     H     0.42358  0.42358  0.00000  0.15283
       6     C     3.14860  3.14860  0.00000 -0.29719
       7     H     0.41046  0.41046  0.00000  0.17908
       8     H     0.42758  0.42758  0.00000  0.14483
       9     C     3.21190  3.21190  0.00000 -0.42381
      10     H     0.40667  0.40667  0.00000  0.18667
      11     H     0.42189  0.42189  0.00000  0.15622
      12     C     2.73399  2.73399  0.00000  0.53201
      13     H     0.40332  0.40332  0.00000  0.19337
      14     H     0.41259  0.41259  0.00000  0.17482
      15     C     3.20433  3.20433  0.00000 -0.40866
      16     O     4.26579  4.26579  0.00000 -0.53157
      17     C     3.16522  3.16522  0.00000 -0.33044
      18     H     0.39868  0.39868  0.00000  0.20264
      19     H     0.40997  0.40997  0.00000  0.18007
      20     C     3.15316  3.15316  0.00000 -0.30632
      21     H     0.41839  0.41839  0.00000  0.16322
      22     H     0.41520  0.41520  0.00000  0.16960
      23     C     3.24045  3.24045  0.00000 -0.48090
      24     H     0.41515  0.41515  0.00000  0.16971
      25     H     0.41916  0.41916  0.00000  0.16168
      26     H     0.42170  0.42170  0.00000  0.15660
      27     H     0.42143  0.42143  0.00000  0.15713
      28     H     0.41652  0.41652  0.00000  0.16696

   Total alpha = 40.00000, Total beta = 40.00000, Total charge =  0.00000
