  ==> Input File <==

--------------------------------------------------------------------------
set {
	reference rhf
	basis cc-pvtz
}

set_num_threads( 4 )
memory 2 gb

molecule MOL {
0 1

H	 1.166964	 -1.062386	 0.758429
O	 1.324748	 -0.612467	 -0.052206
C	 0.706474	 0.636793	 -0.025501
C	 -0.159414	 0.932115	 -1.217413
H	 1.501377	 1.371306	 0.028542
H	 0.112404	 0.756239	 0.878664
C	 -0.283208	 0.174699	 -2.284795
H	 -0.710087	 1.856249	 -1.154296
H	 0.261506	 -0.743859	 -2.392072
H	 -0.927532	 0.459283	 -3.094683

	symmetry c1
}
set optking {
	frozen_dihedral = ("
		5 3 2 1
	")
}

ee = optimize('scf')
oeprop('DIPOLE', 'QUADRUPOLE', 'MULLIKEN_CHARGES')
f=open( 'psi4out.xyz', 'w' )
f.write( "10  " )
f.write( str(ee) + "\n" )
f.write( MOL.save_string_xyz() )
f.close()
--------------------------------------------------------------------------

    Molecular point group: c1
  Charge       = 0
  Multiplicity = 1
  Basis Set: CC-PVTZ
  Basis Set:
  @DF-RHF Final Energy:  -191.99580224415723
    Total Energy =                       -191.9958022441572325
    Molecular point group: c1
  Basis Set: CC-PVTZ
  Basis Set:
  Basis Set: CC-PVTZ
  Basis Set:
  @DF-RHF Final Energy:  -191.99663814838519
    Total Energy =                       -191.9966381483851023
  Basis Set: CC-PVTZ
  Basis Set:
  Basis Set: CC-PVTZ
  Basis Set:
  @DF-RHF Final Energy:  -191.99682398529058
    Total Energy =                       -191.9968239852907459
  Basis Set: CC-PVTZ
  Basis Set:
  Basis Set: CC-PVTZ
  Basis Set:
  @DF-RHF Final Energy:  -191.99683428343627
    Total Energy =                       -191.9968342834361579
  Basis Set: CC-PVTZ
  Basis Set:
  Charge       = 0
  Multiplicity = 1
  Basis Set: CC-PVTZ
  Basis Set:

    Orbital Energies (a.u.)
    -----------------------

    Doubly Occupied:

       1A    -20.553279     2A    -11.278487     3A    -11.223638
       4A    -11.208369     5A     -1.373143     6A     -1.058346
       7A     -0.927331     8A     -0.759281     9A     -0.710012
      10A     -0.651098    11A     -0.615413    12A     -0.584225
      13A     -0.514353    14A     -0.503130    15A     -0.452252
      16A     -0.361369

  @DF-RHF Final Energy:  -191.99683503515388

   => Energetics <=

    Nuclear Repulsion Energy =            119.4690006737900063
    One-Electron Energy =                -497.3842210727335669
    Two-Electron Energy =                 185.9183853637896107
    DFT Exchange-Correlation Energy =       0.0000000000000000
    Empirical Dispersion Energy =           0.0000000000000000
    PCM Polarization Energy =               0.0000000000000000
    EFP Energy =                            0.0000000000000000
    Total Energy =                       -191.9968350351539641
    Molecular point group: c1
  Basis Set: CC-PVTZ
  Basis Set:

  -Total Gradient:
     Atom            X                  Y                   Z
    ------   -----------------  -----------------  -----------------
       1       -0.000126354644    -0.000067524529    -0.000055459078
       2        0.000167064632     0.000080112209     0.000023807002
       3       -0.000104234815    -0.000057514506     0.000173540135
       4        0.000059306258     0.000040772359     0.000012845186
       5       -0.000001625075     0.000022818124    -0.000154189226
       6        0.000006688796     0.000000497486    -0.000023918697
       7        0.000075294525     0.000020476945    -0.000035481584
       8       -0.000019181949    -0.000000579113     0.000013378838
       9       -0.000025194635    -0.000029026091     0.000016830513
      10       -0.000031763093    -0.000010032883     0.000028646911

  **** Optimization is complete! (in 5 steps) ****
    Final optimized geometry and variables:
    Molecular point group: c1

    Geometry (in Angstrom), charge = 0, multiplicity = 1:

    H            0.751377726087    -1.340986368515     1.497277968431
    O            0.904832564140    -0.825583809499     0.729379038216
    C            0.245459965592     0.404395252727     0.825883178780
    C           -0.585251313955     0.701711213840    -0.387303441415
    H            0.979453037533     1.196656772448     0.949608607139
    H           -0.394821446336     0.435058406298     1.703989876607
    C           -0.751169853128    -0.097478474423    -1.416539164108
    H           -1.064162661436     1.666978193974    -0.374539402324
    H           -0.280220129314    -1.059786012116    -1.458297025168
    H           -1.362087813530     0.195132468022    -2.249419304676

  Mulliken Charges: (a.u.)
   Center  Symbol    Alpha    Beta     Spin     Total
       1     H     0.38980  0.38980  0.00000  0.22041
       2     O     4.19822  4.19822  0.00000 -0.39644
       3     C     2.94486  2.94486  0.00000  0.11027
       4     C     3.07953  3.07953  0.00000 -0.15906
       5     H     0.46662  0.46662  0.00000  0.06677
       6     H     0.47327  0.47327  0.00000  0.05346
       7     C     3.17336  3.17336  0.00000 -0.34671
       8     H     0.42428  0.42428  0.00000  0.15144
       9     H     0.42019  0.42019  0.00000  0.15963
      10     H     0.42988  0.42988  0.00000  0.14025

   Total alpha = 16.00000, Total beta = 16.00000, Total charge =  0.00000
