  ==> Input File <==

--------------------------------------------------------------------------
set {
	reference rhf
	basis 6-31G*
}

set_num_threads( 4 )
memory 2 gb

molecule MOL {
0 1

H	 1.733232	 -0.354886	 -1.544096
C	 1.431010	 0.624055	 -1.152767
C	 0.692068	 0.589600	 0.160137
O	 1.690318	 1.614081	 -1.756702
C	 -0.558097	 -0.297372	 0.091132
H	 0.440164	 1.607152	 0.435113
H	 1.372695	 0.195462	 0.913950
C	 -1.850991	 0.512573	 -0.019058
H	 -0.476753	 -0.965681	 -0.762987
H	 -0.604799	 -0.930658	 0.975228
C	 -3.096943	 -0.368295	 -0.099594
H	 -1.800724	 1.150330	 -0.898172
H	 -1.931651	 1.177355	 0.838044
H	 -3.060452	 -1.020287	 -0.967456
H	 -3.996858	 0.233488	 -0.175704
H	 -3.191959	 -0.995686	 0.782074

	symmetry c1
}
set optking {
	frozen_dihedral = ("
		6 3 5 9
	")
}

ee = optimize('scf')
oeprop('DIPOLE', 'QUADRUPOLE', 'MULLIKEN_CHARGES')
f=open( 'psi4out.xyz', 'w' )
f.write( "16  " )
f.write( str(ee) + "\n" )
f.write( MOL.save_string_xyz() )
f.close()
--------------------------------------------------------------------------

    Molecular point group: c1
  Charge       = 0
  Multiplicity = 1
  Basis Set: 6-31G*
  Basis Set:
  @DF-RHF Final Energy:  -270.01587818085500
    Total Energy =                       -270.0158781808548838
    Molecular point group: c1
  Basis Set: 6-31G*
  Basis Set:
  Basis Set: 6-31G*
  Basis Set:
  @DF-RHF Final Energy:  -270.01594987633757
    Total Energy =                       -270.0159498763375723
  Basis Set: 6-31G*
  Basis Set:
  Basis Set: 6-31G*
  Basis Set:
  @DF-RHF Final Energy:  -270.01610049114964
    Total Energy =                       -270.0161004911497002
  Basis Set: 6-31G*
  Basis Set:
  Basis Set: 6-31G*
  Basis Set:
  @DF-RHF Final Energy:  -270.01619817485391
    Total Energy =                       -270.0161981748538551
  Basis Set: 6-31G*
  Basis Set:
  Basis Set: 6-31G*
  Basis Set:
  @DF-RHF Final Energy:  -270.01621827606562
    Total Energy =                       -270.0162182760654446
  Basis Set: 6-31G*
  Basis Set:
  Basis Set: 6-31G*
  Basis Set:
  @DF-RHF Final Energy:  -270.01622125467316
    Total Energy =                       -270.0162212546731553
  Basis Set: 6-31G*
  Basis Set:
  Charge       = 0
  Multiplicity = 1
  Basis Set: 6-31G*
  Basis Set:

    Orbital Energies (a.u.)
    -----------------------

    Doubly Occupied:

       1A    -20.562832     2A    -11.326745     3A    -11.236362
       4A    -11.235075     5A    -11.226524     6A    -11.216625
       7A     -1.402862     8A     -1.094132     9A     -1.016393
      10A     -0.905095    11A     -0.813139    12A     -0.793754
      13A     -0.670508    14A     -0.653394    15A     -0.616172
      16A     -0.605748    17A     -0.590539    18A     -0.536864
      19A     -0.528485    20A     -0.524017    21A     -0.485274
      22A     -0.481006    23A     -0.466749    24A     -0.410364

  @DF-RHF Final Energy:  -270.01622142017038

   => Energetics <=

    Nuclear Repulsion Energy =            231.6306525510154586
    One-Electron Energy =                -824.4964287375430558
    Two-Electron Energy =                 322.8495547663573007
    DFT Exchange-Correlation Energy =       0.0000000000000000
    Empirical Dispersion Energy =           0.0000000000000000
    PCM Polarization Energy =               0.0000000000000000
    EFP Energy =                            0.0000000000000000
    Total Energy =                       -270.0162214201702682
    Molecular point group: c1
  Basis Set: 6-31G*
  Basis Set:

  -Total Gradient:
     Atom            X                  Y                   Z
    ------   -----------------  -----------------  -----------------
       1        0.000006153266    -0.000000017211    -0.000002030698
       2       -0.000006254995    -0.000003195827    -0.000015206955
       3        0.000156967238    -0.000421103305     0.003803164197
       4       -0.000001483104    -0.000004526933     0.000009242444
       5        0.001844564452    -0.002692274463     0.001566984759
       6       -0.000423501371     0.000784363667    -0.003372031791
       7        0.000004535267     0.000006089661    -0.000009281487
       8       -0.000023421153     0.000009676113     0.000023560365
       9       -0.001562213839     0.002302393853    -0.001985993713
      10       -0.000005353767     0.000010038823    -0.000015292342
      11        0.000009873133     0.000004399973    -0.000012561489
      12       -0.000004727385    -0.000007068138     0.000002860087
      13       -0.000000133016     0.000010991296     0.000003965496
      14        0.000001203881    -0.000006202150     0.000002177105
      15        0.000005368697     0.000002009250    -0.000003812623
      16       -0.000001577312     0.000004425389     0.000004256646

  **** Optimization is complete! (in 7 steps) ****
    Final optimized geometry and variables:
    Molecular point group: c1

    Geometry (in Angstrom), charge = 0, multiplicity = 1:

    H            1.991468593514    -0.792109876023    -1.105346039315
    C            1.703920033293     0.182182034394    -0.691719356889
    C            1.008090409915     0.130749089076     0.646516617170
    O            1.940655264077     1.179348920110    -1.292723264446
    C           -0.254902071430    -0.757897280922     0.601563092953
    H            0.766166887584     1.152610499581     0.912733405995
    H            1.722241168061    -0.255794865691     1.369622875517
    C           -1.542698538028     0.059130515131     0.457299133454
    H           -0.194510278350    -1.440472835162    -0.244567259570
    H           -0.313382054199    -1.372595483890     1.493665695757
    C           -2.790088641105    -0.815918077455     0.349806572781
    H           -1.467065151349     0.695538978487    -0.421392102614
    H           -1.639617323719     0.726446836105     1.310178454721
    H           -2.739805481057    -1.467925816380    -0.517637714295
    H           -3.685461174965    -0.209991542567     0.255829699290
    H           -2.906256300426    -1.443753427669     1.228812511298

  Mulliken Charges: (a.u.)
   Center  Symbol    Alpha    Beta     Spin     Total
       1     H     0.43171  0.43171  0.00000  0.13657
       2     C     2.83379  2.83379  0.00000  0.33242
       3     C     3.20969  3.20969  0.00000 -0.41938
       4     O     4.23635  4.23635  0.00000 -0.47270
       5     C     3.16677  3.16677  0.00000 -0.33354
       6     H     0.39763  0.39763  0.00000  0.20473
       7     H     0.40595  0.40595  0.00000  0.18810
       8     C     3.15351  3.15351  0.00000 -0.30703
       9     H     0.41836  0.41836  0.00000  0.16328
      10     H     0.41336  0.41336  0.00000  0.17328
      11     C     3.24095  3.24095  0.00000 -0.48191
      12     H     0.41564  0.41564  0.00000  0.16872
      13     H     0.41891  0.41891  0.00000  0.16217
      14     H     0.42047  0.42047  0.00000  0.15906
      15     H     0.41593  0.41593  0.00000  0.16813
      16     H     0.42095  0.42095  0.00000  0.15810

   Total alpha = 24.00000, Total beta = 24.00000, Total charge = -0.00000
