  ==> Input File <==

--------------------------------------------------------------------------
set {
	reference rhf
	basis 6-31G*
}

set_num_threads( 4 )
memory 2 gb

molecule MOL {
0 1

O	 3.225979	 0.970355	 -0.599647
C	 2.701189	 0.057885	 -0.047330
C	 1.245376	 -0.013843	 0.345420
O	 3.347903	 -1.046386	 0.304773
C	 0.455112	 1.231400	 -0.050772
H	 0.838542	 -0.913825	 -0.103701
H	 1.208210	 -0.175333	 1.419774
C	 -0.998893	 1.219485	 0.433193
H	 0.482531	 1.345121	 -1.130325
H	 0.957290	 2.103070	 0.354729
C	 -1.883438	 0.145884	 -0.207175
H	 -1.431207	 2.195402	 0.224832
H	 -1.019646	 1.105716	 1.516076
C	 -3.347647	 0.245583	 0.225435
H	 -1.822183	 0.231698	 -1.291012
H	 -1.510341	 -0.844814	 0.042401
C	 -4.239992	 -0.825570	 -0.404234
H	 -3.732888	 1.230466	 -0.033079
H	 -3.408585	 0.170602	 1.310038
C	 -5.726178	 -0.605359	 -0.124125
H	 -4.074763	 -0.845060	 -1.479391
H	 -3.944488	 -1.804584	 -0.032765
H	 -6.332425	 -1.380221	 -0.583101
H	 -6.061164	 0.351385	 -0.514793
H	 -5.929677	 -0.614935	 0.943007
C	 4.728119	 -1.109107	 -0.004993
H	 4.882018	 -1.033965	 -1.071845
H	 5.068212	 -2.067527	 0.355250
H	 5.265056	 -0.311663	 0.488280

	symmetry c1
}
set optking {
	frozen_dihedral = ("
		21 17 14 11
	")
}

ee = optimize('scf')
oeprop('DIPOLE', 'QUADRUPOLE', 'MULLIKEN_CHARGES')
f=open( 'psi4out.xyz', 'w' )
f.write( "29  " )
f.write( str(ee) + "\n" )
f.write( MOL.save_string_xyz() )
f.close()
--------------------------------------------------------------------------

    Molecular point group: c1
  Charge       = 0
  Multiplicity = 1
  Basis Set: 6-31G*
  Basis Set:
  @DF-RHF Final Energy:  -501.04387228349719
    Total Energy =                       -501.0438722834974214
    Molecular point group: c1
  Basis Set: 6-31G*
  Basis Set:
  Basis Set: 6-31G*
  Basis Set:
  @DF-RHF Final Energy:  -501.04388232004089
    Total Energy =                       -501.0438823200412344
  Basis Set: 6-31G*
  Basis Set:
  Basis Set: 6-31G*
  Basis Set:
  @DF-RHF Final Energy:  -501.04390226720693
    Total Energy =                       -501.0439022672057945
  Basis Set: 6-31G*
  Basis Set:
  Basis Set: 6-31G*
  Basis Set:
  @DF-RHF Final Energy:  -501.04390363323444
    Total Energy =                       -501.0439036332340947
  Basis Set: 6-31G*
  Basis Set:
  Basis Set: 6-31G*
  Basis Set:
  @DF-RHF Final Energy:  -501.04389968307828
    Total Energy =                       -501.0438996830782798
  Basis Set: 6-31G*
  Basis Set:
  Basis Set: 6-31G*
  Basis Set:
  @DF-RHF Final Energy:  -501.04390518019386
    Total Energy =                       -501.0439051801948835
  Basis Set: 6-31G*
  Basis Set:
  Basis Set: 6-31G*
  Basis Set:
  @DF-RHF Final Energy:  -501.04390290484127
    Total Energy =                       -501.0439029048403654
  Basis Set: 6-31G*
  Basis Set:
  Charge       = 0
  Multiplicity = 1
  Basis Set: 6-31G*
  Basis Set:

    Orbital Energies (a.u.)
    -----------------------

    Doubly Occupied:

       1A    -20.603366     2A    -20.545189     3A    -11.372001
       4A    -11.280658     5A    -11.234734     6A    -11.219098
       7A    -11.217637     8A    -11.216031     9A    -11.215822
      10A    -11.214437    11A    -11.209158    12A     -1.469063
      13A     -1.362505    14A     -1.098062    15A     -1.066742
      16A     -1.019485    17A     -0.977250    18A     -0.928605
      19A     -0.861652    20A     -0.799370    21A     -0.790572
      22A     -0.763810    23A     -0.700713    24A     -0.682301
      25A     -0.672181    26A     -0.650141    27A     -0.629345
      28A     -0.604347    29A     -0.594971    30A     -0.580921
      31A     -0.567141    32A     -0.549496    33A     -0.531420
      34A     -0.530261    35A     -0.516105    36A     -0.512912
      37A     -0.495680    38A     -0.478028    39A     -0.470008
      40A     -0.462593    41A     -0.458339    42A     -0.455789
      43A     -0.441169    44A     -0.435424

  @DF-RHF Final Energy:  -501.04390545157605

   => Energetics <=

    Nuclear Repulsion Energy =            610.1587103051186887
    One-Electron Energy =               -1891.4361695520588000
    Two-Electron Energy =                 780.2335537953639459
    DFT Exchange-Correlation Energy =       0.0000000000000000
    Empirical Dispersion Energy =           0.0000000000000000
    PCM Polarization Energy =               0.0000000000000000
    EFP Energy =                            0.0000000000000000
    Total Energy =                       -501.0439054515760517
    Molecular point group: c1
  Basis Set: 6-31G*
  Basis Set:

  -Total Gradient:
     Atom            X                  Y                   Z
    ------   -----------------  -----------------  -----------------
       1        0.000000190298    -0.000000830669     0.000001259557
       2       -0.000000453520     0.000000554202    -0.000001819449
       3        0.000000521939    -0.000000175687     0.000000243821
       4        0.000000285947    -0.000000072481     0.000000698883
       5        0.000000681997     0.000000354713    -0.000000880999
       6        0.000001006764     0.000000789188     0.000000192063
       7       -0.000000282012     0.000000147318    -0.000000239260
       8        0.000000620010     0.000000691128     0.000000297760
       9        0.000000136093    -0.000000620706     0.000001049768
      10        0.000000109348    -0.000000302143    -0.000000429384
      11       -0.000208840649     0.000679265888    -0.000884424107
      12        0.000000909176    -0.000000895510     0.000000707749
      13       -0.000000545780    -0.000000519810    -0.000001208627
      14        0.000556744729    -0.001198914467     0.001287836537
      15        0.000002393498    -0.000000671384    -0.000001071406
      16       -0.000005144797     0.000003816955     0.000000800284
      17       -0.001466627532     0.001564021208    -0.000619898021
      18        0.000000835599    -0.000006049834    -0.000000894159
      19        0.000001444356     0.000002497985     0.000004321757
      20       -0.000002485159    -0.000002975844     0.000003135884
      21        0.001122653484    -0.001045528323     0.000205667713
      22       -0.000002675983     0.000005619314     0.000003772411
      23       -0.000000679486     0.000001665945     0.000000588732
      24        0.000002571530    -0.000003181927     0.000000611967
      25       -0.000002775897     0.000000687683     0.000000005500
      26       -0.000000060670     0.000000532000    -0.000000311708
      27        0.000000220516    -0.000000085440     0.000000520421
      28       -0.000000455183     0.000000819790    -0.000000175069
      29       -0.000000298620    -0.000000639084    -0.000000358617

  **** Optimization is complete! (in 8 steps) ****
    Final optimized geometry and variables:
    Molecular point group: c1

    Geometry (in Angstrom), charge = 0, multiplicity = 1:

    O            3.229904647370     0.961618391622    -0.576637166113
    C            2.703093799739     0.046044112660    -0.031419823773
    C            1.246768283591    -0.026159001571     0.359299727844
    O            3.347683170554    -1.061745319840     0.313441815575
    C            0.458928624550     1.223188959010    -0.028709294103
    H            0.838910838673    -0.922198989766    -0.096717599979
    H            1.208213098511    -0.195335593179     1.432421403412
    C           -0.995616004630     1.209942864364     0.453536832868
    H            0.487747941247     1.344690000063    -1.107377187684
    H            0.961995438148     2.091115441747     0.383653705540
    C           -1.880800002409     0.141853979209    -0.195060644597
    H           -1.426478255557     2.187810367689     0.251215057926
    H           -1.017766716223     1.088947557795     1.535577204598
    C           -3.347000897486     0.246019903352     0.229669917831
    H           -1.815434146435     0.231943699873    -1.278125465194
    H           -1.511374872785    -0.851115884480     0.051802989876
    C           -4.235657332648    -0.834659661035    -0.390156087826
    H           -3.727375065432     1.227024914064    -0.050697535199
    H           -3.418368519132     0.191833833102     1.314622380621
    C           -5.722299788683    -0.625969785173    -0.106725840492
    H           -4.066895742587    -0.869742388342    -1.464362717285
    H           -3.930342300218    -1.807655220342    -0.010088604072
    H           -6.321702100833    -1.418936675172    -0.543172145588
    H           -6.071031956024     0.317174576129    -0.517667440841
    H           -5.919225808382    -0.612681332502     0.961668197034
    C            4.728113932365    -1.124474461649     0.004633788738
    H            4.883230872936    -1.041994687040    -1.061503497717
    H            5.066282746129    -2.085975980442     0.358396752454
    H            5.265812781631    -0.331427535050     0.504124721097

  Mulliken Charges: (a.u.)
   Center  Symbol    Alpha    Beta     Spin     Total
       1     O     4.28597  4.28597  0.00000 -0.57193
       2     C     2.60484  2.60484  0.00000  0.79032
       3     C     3.20973  3.20973  0.00000 -0.41946
       4     O     4.30746  4.30746  0.00000 -0.61492
       5     C     3.15379  3.15379  0.00000 -0.30758
       6     H     0.39876  0.39876  0.00000  0.20248
       7     H     0.40125  0.40125  0.00000  0.19750
       8     C     3.15667  3.15667  0.00000 -0.31335
       9     H     0.41309  0.41309  0.00000  0.17381
      10     H     0.40874  0.40874  0.00000  0.18252
      11     C     3.15526  3.15526  0.00000 -0.31051
      12     H     0.41822  0.41822  0.00000  0.16355
      13     H     0.42383  0.42383  0.00000  0.15234
      14     C     3.15032  3.15032  0.00000 -0.30064
      15     H     0.42246  0.42246  0.00000  0.15508
      16     H     0.42368  0.42368  0.00000  0.15264
      17     C     3.15172  3.15172  0.00000 -0.30344
      18     H     0.42364  0.42364  0.00000  0.15273
      19     H     0.42348  0.42348  0.00000  0.15303
      20     C     3.23930  3.23930  0.00000 -0.47859
      21     H     0.42288  0.42288  0.00000  0.15424
      22     H     0.42335  0.42335  0.00000  0.15329
      23     H     0.41923  0.41923  0.00000  0.16153
      24     H     0.42142  0.42142  0.00000  0.15715
      25     H     0.42176  0.42176  0.00000  0.15647
      26     C     3.09240  3.09240  0.00000 -0.18481
      27     H     0.40908  0.40908  0.00000  0.18183
      28     H     0.40852  0.40852  0.00000  0.18297
      29     H     0.40913  0.40913  0.00000  0.18175

   Total alpha = 44.00000, Total beta = 44.00000, Total charge = -0.00000
