                              Psi4 1.0.54 Driver

  ==> Input File <==

--------------------------------------------------------------------------
set {
	reference rhf
	basis cc-pvtz
}

set_num_threads( 4 )
memory 2 gb

molecule MOL {
0 1

O	 0.504397	 0.385138	 0.975922
C	 1.121787	 0.124983	 0.000110
C	 0.838017	 0.654046	 -1.382290
O	 2.167739	 -0.685178	 -0.000678
C	 -0.357272	 1.593807	 -1.445990
H	 1.741833	 1.143556	 -1.730106
H	 0.698434	 -0.203994	 -2.031709
C	 -0.615649	 2.110671	 -2.858223
H	 -0.192831	 2.428469	 -0.773800
H	 -1.237309	 1.079567	 -1.076347
C	 -1.810195	 3.055308	 -2.933140
H	 0.270724	 2.622024	 -3.224421
H	 -0.779518	 1.269897	 -3.527165
H	 -1.661356	 3.924067	 -2.300930
H	 -1.969707	 3.406127	 -3.946134
H	 -2.719228	 2.562130	 -2.606006
C	 3.449556	 -0.089977	 -0.000570
H	 3.585694	 0.522473	 -0.879546
H	 4.155805	 -0.904274	 -0.001389
H	 3.586173	 0.521118	 0.879272

	symmetry c1
}
set optking {
	frozen_dihedral = ("
		1 2 4 17
	")
}

ee,wfn = optimize('scf', return_wfn=True)
oeprop( wfn, 'DIPOLE', 'QUADRUPOLE', 'MULLIKEN_CHARGES')
f=open( 'psi4out.xyz', 'w' )
f.write( "20  " )
f.write( str(ee) + "\n" )
f.write( MOL.save_string_xyz() )
f.close()
--------------------------------------------------------------------------

    Molecular point group: c1
  Charge       = 0
  Multiplicity = 1
  Basis Set: CC-PVTZ
  Basis Set:
  @DF-RHF Final Energy:  -384.06106768752124
    Total Energy =                       -384.0610676875211311
    Molecular point group: c1
  Basis Set: CC-PVTZ
  Basis Set:
  Basis Set: CC-PVTZ
  Basis Set:
  @DF-RHF Final Energy:  -383.86129321086975
    Total Energy =                       -383.8612932108700306
  Basis Set: CC-PVTZ
  Basis Set:
  Basis Set: CC-PVTZ
  Basis Set:
  @DF-RHF Final Energy:  -383.98919389352869
    Total Energy =                       -383.9891938935290341
  Basis Set: CC-PVTZ
  Basis Set:
  Basis Set: CC-PVTZ
  Basis Set:
  @DF-RHF Final Energy:  -384.05515841025658
    Total Energy =                       -384.0551584102569223
  Basis Set: CC-PVTZ
  Basis Set:
  @DF-RHF Final Energy:  -384.05922149069937
    Total Energy =                       -384.0592214906991444
  @DF-RHF Final Energy:  -384.06297739088745
    Total Energy =                       -384.0629773908872266
  @DF-RHF Final Energy:  -384.06313078365423
    Total Energy =                       -384.0631307836540600
  Basis Set: CC-PVTZ
  Basis Set:
  @DF-RHF Final Energy:  -384.06315178191460
    Total Energy =                       -384.0631517819155079
  Basis Set: CC-PVTZ
  Basis Set:
  Basis Set: CC-PVTZ
  Basis Set:
  @DF-RHF Final Energy:  -384.06316134642668
    Total Energy =                       -384.0631613464264547
  Basis Set: CC-PVTZ
  Basis Set:
  Basis Set: CC-PVTZ
  Basis Set:
  @DF-RHF Final Energy:  -384.06316389988268
    Total Energy =                       -384.0631638998822837
  Basis Set: CC-PVTZ
  Basis Set:
  Charge       = 0
  Multiplicity = 1
  Basis Set: CC-PVTZ
  Basis Set:

    Orbital Energies (a.u.)
    -----------------------

    Doubly Occupied:

       1A    -20.578456     2A    -20.545281     3A    -11.367879
       4A    -11.289966     5A    -11.239079     6A    -11.221562
       7A    -11.220736     8A    -11.211086     9A     -1.461473
      10A     -1.370215    11A     -1.091902    12A     -1.019684
      13A     -0.972685    14A     -0.898200    15A     -0.808887
      16A     -0.767196    17A     -0.698379    18A     -0.681595
      19A     -0.677202    20A     -0.645853    21A     -0.618539
      22A     -0.591168    23A     -0.590158    24A     -0.551091
      25A     -0.539280    26A     -0.515051    27A     -0.495107
      28A     -0.493100    29A     -0.480426    30A     -0.473804
      31A     -0.454870    32A     -0.436590

  @DF-RHF Final Energy:  -384.06316435572666

   => Energetics <=

    Nuclear Repulsion Energy =            382.1490215676582807
    One-Electron Energy =               -1280.4113692256723880
    Two-Electron Energy =                 514.1991833022875653
    DFT Exchange-Correlation Energy =       0.0000000000000000
    Empirical Dispersion Energy =           0.0000000000000000
    PCM Polarization Energy =               0.0000000000000000
    EFP Energy =                            0.0000000000000000
    Total Energy =                       -384.0631643557264852
    Molecular point group: c1
  Basis Set: CC-PVTZ
  Basis Set:

  -Total Gradient:
     Atom            X                  Y                   Z
    ------   -----------------  -----------------  -----------------
       1       -0.000749968933    -0.001242703142     0.000107351282
       2        0.001075092381     0.001605719616    -0.000705892082
       3        0.000043449261     0.000018472967    -0.000008648958
       4       -0.000356460919     0.000024771465     0.001716304795
       5       -0.000014194407     0.000020005047     0.000006543354
       6       -0.000009762775    -0.000012229485     0.000000336924
       7       -0.000000539782    -0.000007432074    -0.000008056229
       8        0.000015509637    -0.000033016992    -0.000007421694
       9       -0.000001520645    -0.000010445508     0.000000637728
      10       -0.000010142217     0.000003254079    -0.000001039929
      11       -0.000007563568     0.000012125345     0.000000788457
      12        0.000009586020     0.000001529187    -0.000003680568
      13       -0.000000737455     0.000020280743     0.000002418050
      14        0.000001016129    -0.000007665608     0.000002017269
      15        0.000000344238    -0.000004112830     0.000003887599
      16       -0.000015712898     0.000002198673    -0.000000290153
      17        0.000003289114    -0.000427738200    -0.001143940640
      18       -0.000002177181     0.000004633650     0.000021615717
      19       -0.000010853529     0.000002839906     0.000007575823
      20        0.000031347536     0.000029513162     0.000009493252

  **** Optimization is complete! (in 11 steps) ****
    Final optimized geometry and variables:
    Molecular point group: c1

    Geometry (in Angstrom), charge = 0, multiplicity = 1:

    O           -0.120918978137     0.135023828190     1.946064816726
    C            0.524963430078    -0.349976338424     1.091782787449
    C            0.150159199802    -0.360551303655    -0.369121993378
    O            1.654587237413    -1.034534047061     1.375105040303
    C           -1.109505139262     0.429407075646    -0.694084560943
    H            0.995857729192     0.007021348597    -0.941375881586
    H            0.041835629135    -1.404651453347    -0.647810052039
    C           -1.464170817260     0.377904560567    -2.177348713816
    H           -0.975701991552     1.460287889721    -0.384376403220
    H           -1.933213077289     0.043669531131    -0.104890857648
    C           -2.726947010260     1.164665157757    -2.511175990311
    H           -0.634154962914     0.765202949386    -2.762754291488
    H           -1.594199046528    -0.657087586875    -2.482150457883
    H           -2.615792006595     2.211413781827    -2.249378463886
    H           -2.954354442756     1.110130622789    -3.569402702020
    H           -3.582526614150     0.778569839137    -1.967762413785
    C            2.884957263427    -0.370850761325     1.206886721051
    H            3.048479949004    -0.087997559019     0.173563069380
    H            3.653946399391    -1.064328622592     1.505981132815
    H            2.933742397197     0.509446728753     1.835996267570

  Mulliken Charges: (a.u.)
   Center  Symbol    Alpha    Beta     Spin     Total
       1     O     4.16753  4.16753  0.00000 -0.33505
       2     C     2.78604  2.78604  0.00000  0.42791
       3     C     3.12291  3.12291  0.00000 -0.24582
       4     O     4.16633  4.16633  0.00000 -0.33267
       5     C     3.08275  3.08275  0.00000 -0.16551
       6     H     0.44444  0.44444  0.00000  0.11112
       7     H     0.43783  0.43783  0.00000  0.12435
       8     C     3.08546  3.08546  0.00000 -0.17093
       9     H     0.44793  0.44793  0.00000  0.10415
      10     H     0.44338  0.44338  0.00000  0.11323
      11     C     3.14948  3.14948  0.00000 -0.29896
      12     H     0.45589  0.45589  0.00000  0.08823
      13     H     0.45446  0.45446  0.00000  0.09109
      14     H     0.45398  0.45398  0.00000  0.09204
      15     H     0.44807  0.44807  0.00000  0.10385
      16     H     0.45307  0.45307  0.00000  0.09385
      17     C     3.03661  3.03661  0.00000 -0.07321
      18     H     0.46609  0.46609  0.00000  0.06783
      19     H     0.44134  0.44134  0.00000  0.11732
      20     H     0.45641  0.45641  0.00000  0.08718

   Total alpha = 32.00000, Total beta = 32.00000, Total charge = -0.00000

*** Psi4 exiting successfully. Buy a developer a beer!
