  ==> Input File <==

--------------------------------------------------------------------------
set {
	reference rhf
	basis 6-31G*
}

set_num_threads( 1 )
memory 2 gb

molecule MOL {
0 1

H	 -2.844979	 0.432276	 0.062048
O	 -2.035884	 -0.060112	 0.102722
C	 -0.955155	 0.788182	 -0.092531
C	 0.353668	 0.040312	 -0.004810
H	 -0.985057	 1.290372	 -1.054184
H	 -0.974469	 1.533190	 0.688632
F	 0.394464	 -0.937475	 -0.903053
F	 1.368604	 0.853376	 -0.249821
F	 0.546173	 -0.502608	 1.179981

	symmetry c1
}
set optking {
	frozen_dihedral = ("
		7 4 3 5
	")
}

ee = energy('scf')
oeprop('DIPOLE', 'QUADRUPOLE', 'MULLIKEN_CHARGES')
f=open( 'psi4out.xyz', 'w' )
f.write( "9  " )
f.write( str(ee) + "\n" )
f.write( MOL.save_string_xyz() )
f.close()
--------------------------------------------------------------------------

    Molecular point group: c1

    Geometry (in Angstrom), charge = 0, multiplicity = 1:

       Center              X                  Y                   Z               Mass
    ------------   -----------------  -----------------  -----------------  -----------------
           H         -2.837461587306     0.421124910792     0.055208446065     1.007825032070
           O         -2.028366587306    -0.071263089208     0.095882446065    15.994914619560
           C         -0.947637587306     0.777030910792    -0.099370553935    12.000000000000
           C          0.361185412694     0.029160910792    -0.011649553935    12.000000000000
           H         -0.977539587306     1.279220910792    -1.061023553935     1.007825032070
           H         -0.966951587306     1.522038910792     0.681792446065     1.007825032070
           F          0.401981412694    -0.948626089208    -0.909892553935    18.998403224000
           F          1.376121412694     0.842224910792    -0.256660553935    18.998403224000
           F          0.553690412694    -0.513759089208     1.173141446065    18.998403224000

  Charge       = 0
  Multiplicity = 1
  Basis Set: 6-31G*
  Basis Set:

    Orbital Energies (a.u.)
    -----------------------

    Doubly Occupied:

       1A    -26.341823     2A    -26.335314     3A    -26.329769
       4A    -20.587601     5A    -11.500409     6A    -11.309705
       7A     -1.734042     8A     -1.635024     9A     -1.626971
      10A     -1.400754    11A     -1.048077    12A     -0.917260
      13A     -0.825993    14A     -0.822938    15A     -0.784303
      16A     -0.731816    17A     -0.707690    18A     -0.697299
      19A     -0.667158    20A     -0.651428    21A     -0.638434
      22A     -0.635089    23A     -0.596915    24A     -0.526230
      25A     -0.476415

  @DF-RHF Final Energy:  -450.65791334890798

   => Energetics <=

    Nuclear Repulsion Energy =            276.0109474186327816
    One-Electron Energy =               -1174.2809660638627065
    Two-Electron Energy =                 447.6121052963219427
    DFT Exchange-Correlation Energy =       0.0000000000000000
    Empirical Dispersion Energy =           0.0000000000000000
    PCM Polarization Energy =               0.0000000000000000
    EFP Energy =                            0.0000000000000000
    Total Energy =                       -450.6579133489079823

  Mulliken Charges: (a.u.)
   Center  Symbol    Alpha    Beta     Spin     Total
       1     H     0.27116  0.27116  0.00000  0.45768
       2     O     4.36335  4.36335  0.00000 -0.72669
       3     C     3.05172  3.05172  0.00000 -0.10345
       4     C     2.45316  2.45316  0.00000  1.09369
       5     H     0.41089  0.41089  0.00000  0.17823
       6     H     0.41178  0.41178  0.00000  0.17645
       7     F     4.68070  4.68070  0.00000 -0.36140
       8     F     4.68192  4.68192  0.00000 -0.36383
       9     F     4.67533  4.67533  0.00000 -0.35066

   Total alpha = 25.00000, Total beta = 25.00000, Total charge =  0.00000
