  ==> Input File <==

--------------------------------------------------------------------------
set {
	reference rhf
	basis cc-pvtz
}

set_num_threads( 4 )
memory 2 gb

molecule MOL {
0 1

H	 -0.878393	 2.439589	 0.003535
C	 -0.768028	 1.375751	 0.001866
C	 -1.900629	 0.500329	 -0.000403
C	 0.444899	 0.817323	 0.001900
H	 -2.889966	 0.917904	 -0.000441
C	 -1.734577	 -0.825944	 -0.002454
H	 1.340431	 1.406526	 0.003571
N	 0.640204	 -0.530428	 -0.000115
H	 -2.557755	 -1.510295	 -0.004190
C	 -0.410645	 -1.431283	 -0.002557
C	 2.006991	 -1.033007	 -0.000020
O	 -0.220829	 -2.617120	 -0.004437
H	 2.182444	 -1.636914	 -0.880881
H	 2.678769	 -0.195442	 -0.002236
H	 2.183828	 -1.633244	 0.883082

	symmetry c1
}
set optking {
	frozen_dihedral = ("
		10 8 11 13
	")
}

ee = optimize('scf')
oeprop('DIPOLE', 'QUADRUPOLE', 'MULLIKEN_CHARGES')
f=open( 'psi4out.xyz', 'w' )
f.write( "15  " )
f.write( str(ee) + "\n" )
f.write( MOL.save_string_xyz() )
f.close()
--------------------------------------------------------------------------

    Molecular point group: c1
  Charge       = 0
  Multiplicity = 1
  Basis Set: CC-PVTZ
  Basis Set:
  @DF-RHF Final Energy:  -360.72294110796395
    Total Energy =                       -360.7229411079638339
    Molecular point group: c1
  Basis Set: CC-PVTZ
  Basis Set:
  Basis Set: CC-PVTZ
  Basis Set:
  @DF-RHF Final Energy:  -360.72359655871520
    Total Energy =                       -360.7235965587149167
  Basis Set: CC-PVTZ
  Basis Set:
  Basis Set: CC-PVTZ
  Basis Set:
  @DF-RHF Final Energy:  -360.72365733092386
    Total Energy =                       -360.7236573309237428
  Basis Set: CC-PVTZ
  Basis Set:
  Basis Set: CC-PVTZ
  Basis Set:
  @DF-RHF Final Energy:  -360.72365989065378
    Total Energy =                       -360.7236598906538347
  Basis Set: CC-PVTZ
  Basis Set:
  Basis Set: CC-PVTZ
  Basis Set:
  @DF-RHF Final Energy:  -360.72365752389351
    Total Energy =                       -360.7236575238936780
  Basis Set: CC-PVTZ
  Basis Set:
  Charge       = 0
  Multiplicity = 1
  Basis Set: CC-PVTZ
  Basis Set:

    Orbital Energies (a.u.)
    -----------------------

    Doubly Occupied:

       1A    -20.502038     2A    -15.617954     3A    -11.337450
       4A    -11.294805     5A    -11.266201     6A    -11.258193
       7A    -11.229346     8A    -11.227685     9A     -1.391463
      10A     -1.285975    11A     -1.118839    12A     -1.029405
      13A     -0.972649    14A     -0.876695    15A     -0.839065
      16A     -0.719756    17A     -0.701937    18A     -0.664075
      19A     -0.653482    20A     -0.626400    21A     -0.611965
      22A     -0.575224    23A     -0.551574    24A     -0.551349
      25A     -0.531618    26A     -0.485084    27A     -0.420419
      28A     -0.410809    29A     -0.309910

  @DF-RHF Final Energy:  -360.72366105305974

   => Energetics <=

    Nuclear Repulsion Energy =            358.9358804532670888
    One-Electron Energy =               -1201.1963566611000260
    Two-Electron Energy =                 481.5368151547735920
    DFT Exchange-Correlation Energy =       0.0000000000000000
    Empirical Dispersion Energy =           0.0000000000000000
    PCM Polarization Energy =               0.0000000000000000
    EFP Energy =                            0.0000000000000000
    Total Energy =                       -360.7236610530592884
    Molecular point group: c1
  Basis Set: CC-PVTZ
  Basis Set:

  -Total Gradient:
     Atom            X                  Y                   Z
    ------   -----------------  -----------------  -----------------
       1       -0.000009500286     0.000003925720    -0.000000509959
       2        0.000014640628    -0.000000263367    -0.000004085059
       3        0.000004234896    -0.000009646724     0.000003658298
       4       -0.000022539921     0.000010547719     0.000003907801
       5        0.000008688580     0.000018812043    -0.000001094455
       6       -0.000014228810    -0.000017337690     0.000003348433
       7        0.000006222478    -0.000003401056    -0.000000864236
       8       -0.000001267146    -0.000029606631    -0.000026613526
       9        0.000012750768    -0.000001663045    -0.000001216958
      10        0.000010982807     0.000077864200     0.000011705571
      11       -0.000027581142    -0.000005286816     0.000022396773
      12        0.000007104776    -0.000055359343     0.000001968589
      13        0.000009400216     0.000016125164    -0.000020932287
      14       -0.000000952140    -0.000003483513     0.000000484262
      15        0.000002044297    -0.000001226667     0.000007846753

  **** Optimization is complete! (in 6 steps) ****
    Final optimized geometry and variables:
    Molecular point group: c1

    Geometry (in Angstrom), charge = 0, multiplicity = 1:

    H           -0.718275146324     2.956959948687     0.001299787236
    C           -0.596225275358     1.894432794592     0.000826782138
    C           -1.718491166775     1.008003231381     0.000161140806
    C            0.625653799824     1.351172381071     0.001005746790
    H           -2.711583043111     1.416686462945     0.000123688985
    C           -1.541391126831    -0.318188012358    -0.000428681246
    H            1.511869887875     1.952644894415     0.001587626284
    N            0.830164352229     0.007303808180     0.000489812216
    H           -2.358147550554    -1.010316828769    -0.001002462416
    C           -0.211076487338    -0.902556960774    -0.000624127616
    C            2.177334915610    -0.541105680341     0.000459920192
    O            0.015543784599    -2.082193015470    -0.001694909241
    H            2.332542220337    -1.150271180139    -0.877273090255
    H            2.887437860948     0.271351395768     0.007674727247
    H            2.327427685683    -1.161554889344     0.871004679905

  Mulliken Charges: (a.u.)
   Center  Symbol    Alpha    Beta     Spin     Total
       1     H     0.41403  0.41403  0.00000  0.17193
       2     C     3.10737  3.10737  0.00000 -0.21474
       3     C     3.05894  3.05894  0.00000 -0.11788
       4     C     3.03970  3.03970  0.00000 -0.07939
       5     H     0.41845  0.41845  0.00000  0.16310
       6     C     3.11847  3.11847  0.00000 -0.23694
       7     H     0.41841  0.41841  0.00000  0.16317
       8     N     3.50818  3.50818  0.00000 -0.01636
       9     H     0.40942  0.40942  0.00000  0.18115
      10     C     2.84574  2.84574  0.00000  0.30852
      11     C     3.09124  3.09124  0.00000 -0.18248
      12     O     4.23543  4.23543  0.00000 -0.47087
      13     H     0.43972  0.43972  0.00000  0.12057
      14     H     0.45544  0.45544  0.00000  0.08912
      15     H     0.43945  0.43945  0.00000  0.12110

   Total alpha = 29.00000, Total beta = 29.00000, Total charge =  0.00000
