  ==> Input File <==

--------------------------------------------------------------------------
set {
	reference rhf
	basis 6-31G*
}

set_num_threads( 4 )
memory 2 gb

molecule MOL {
0 1

H	 4.593867	 0.299617	 -0.485965
C	 3.742646	 -0.332906	 -0.255558
C	 2.440513	 0.466328	 -0.280840
H	 3.723339	 -1.137853	 -0.984883
H	 3.915874	 -0.776210	 0.721028
C	 1.217350	 -0.386724	 0.039429
H	 2.298869	 0.921385	 -1.256159
H	 2.505725	 1.283340	 0.435841
N	 0.000003	 0.397874	 -0.023260
H	 1.137198	 -1.187039	 -0.691347
H	 1.352277	 -0.869520	 1.013124
C	 -1.217365	 -0.386708	 0.039277
H	 -0.000031	 1.072115	 0.718656
C	 -2.452633	 0.504241	 -0.042481
H	 -1.215291	 -1.074557	 -0.802042
H	 -1.269739	 -1.003477	 0.942735
C	 -3.758029	 -0.289423	 -0.010781
H	 -2.394220	 1.093569	 -0.952170
H	 -2.440793	 1.210787	 0.785871
H	 -3.816659	 -0.981993	 -0.845726
H	 -4.617837	 0.370165	 -0.069296
H	 -3.847478	 -0.867502	 0.904682

	symmetry c1
}
set optking {
	frozen_dihedral = ("
		10 6 9 12
	")
}

ee = optimize('scf')
oeprop('DIPOLE', 'QUADRUPOLE', 'MULLIKEN_CHARGES')
f=open( 'psi4out.xyz', 'w' )
f.write( "22  " )
f.write( str(ee) + "\n" )
f.write( MOL.save_string_xyz() )
f.close()
--------------------------------------------------------------------------

    Molecular point group: c1
  Charge       = 0
  Multiplicity = 1
  Basis Set: 6-31G*
  Basis Set:
  @DF-RHF Final Energy:  -290.38291518054280
    Total Energy =                       -290.3829151805427387
    Molecular point group: c1
  Basis Set: 6-31G*
  Basis Set:
  Basis Set: 6-31G*
  Basis Set:
  @DF-RHF Final Energy:  -290.38294829055417
    Total Energy =                       -290.3829482905543955
  Basis Set: 6-31G*
  Basis Set:
  Basis Set: 6-31G*
  Basis Set:
  @DF-RHF Final Energy:  -290.38295554682122
    Total Energy =                       -290.3829555468211652
  Basis Set: 6-31G*
  Basis Set:
  Basis Set: 6-31G*
  Basis Set:
  @DF-RHF Final Energy:  -290.38295670118174
    Total Energy =                       -290.3829567011820814
  Basis Set: 6-31G*
  Basis Set:
  Charge       = 0
  Multiplicity = 1
  Basis Set: 6-31G*
  Basis Set:

    Orbital Energies (a.u.)
    -----------------------

    Doubly Occupied:

       1A    -15.533223     2A    -11.238184     3A    -11.237970
       4A    -11.213638     5A    -11.211959     6A    -11.209798
       7A    -11.208869     8A     -1.204968     9A     -1.058836
      10A     -1.025597    11A     -0.928036    12A     -0.868534
      13A     -0.810394    14A     -0.793607    15A     -0.669482
      16A     -0.626351    17A     -0.614620    18A     -0.610781
      19A     -0.574544    20A     -0.562917    21A     -0.530526
      22A     -0.525428    23A     -0.516016    24A     -0.484879
      25A     -0.483703    26A     -0.474236    27A     -0.465428
      28A     -0.451098    29A     -0.357278

  @DF-RHF Final Energy:  -290.38295685910373

   => Energetics <=

    Nuclear Repulsion Energy =            313.1193506281964574
    One-Electron Energy =               -1012.0228156183219426
    Two-Electron Energy =                 408.5205081310219271
    DFT Exchange-Correlation Energy =       0.0000000000000000
    Empirical Dispersion Energy =           0.0000000000000000
    PCM Polarization Energy =               0.0000000000000000
    EFP Energy =                            0.0000000000000000
    Total Energy =                       -290.3829568591035581
    Molecular point group: c1
  Basis Set: 6-31G*
  Basis Set:

  -Total Gradient:
     Atom            X                  Y                   Z
    ------   -----------------  -----------------  -----------------
       1        0.000006076177    -0.000004495549    -0.000002255058
       2        0.000006052893     0.000007363186    -0.000007784830
       3       -0.000023904877    -0.000022076544     0.000012582283
       4       -0.000005988931     0.000004481924     0.000004781749
       5       -0.000000971717     0.000005792273     0.000000285245
       6        0.000849230454     0.001203736016    -0.002029656867
       7        0.000001597228    -0.000007123689    -0.000000161990
       8        0.000001047327    -0.000000259490     0.000007864336
       9       -0.000143008908    -0.000072817389     0.002167005628
      10       -0.000698044351    -0.001019806311     0.001165026602
      11        0.000008208570     0.000012894133     0.000016780968
      12        0.000006231774    -0.000097378216    -0.001326350035
      13       -0.000006919315    -0.000011651260     0.000001583096
      14       -0.000001497122    -0.000002430130    -0.000004694166
      15        0.000001392077     0.000002131610    -0.000000679628
      16        0.000005876203     0.000006236279    -0.000005251907
      17       -0.000006337442     0.000003621314     0.000000492046
      18        0.000000483812    -0.000003464638    -0.000000030807
      19        0.000002996516    -0.000003880251     0.000000183220
      20       -0.000000259193     0.000000742100    -0.000000361097
      21       -0.000003060779    -0.000001516526     0.000001067666
      22        0.000000799606    -0.000000098841    -0.000000426454

  **** Optimization is complete! (in 5 steps) ****
    Final optimized geometry and variables:
    Molecular point group: c1

    Geometry (in Angstrom), charge = 0, multiplicity = 1:

    H            4.601703971007     0.321749309094    -0.397855742939
    C            3.751476154349    -0.313374897085    -0.170755502666
    C            2.445231685084     0.478229358908    -0.216275458203
    H            3.744331723662    -1.124793941352    -0.893239623169
    H            3.917293146953    -0.747571972691     0.811265384270
    C            1.223108182201    -0.379163056562     0.094024500616
    H            2.311841640861     0.927699668046    -1.195153060623
    H            2.495739645264     1.299653622146     0.496335714142
    N            0.002754795271     0.401356860212     0.036281723445
    H            1.141970536892    -1.180624827353    -0.634957457514
    H            1.356561554127    -0.869503120160     1.064332042764
    C           -1.216438715973    -0.379217041950     0.105477449970
    H            0.007573475036     1.088990610624     0.765285433682
    C           -2.448444814809     0.517253000301     0.035015343381
    H           -1.222691420642    -1.063613601820    -0.738323938474
    H           -1.267211307263    -0.998781679267     1.007306839808
    C           -3.756853298373    -0.271357488681     0.067606056044
    H           -2.391604329405     1.111905191554    -0.871395774982
    H           -2.430157730275     1.218517397500     0.867706250515
    H           -3.821756878387    -0.958864168616    -0.771017632237
    H           -4.614185048187     0.392075658332     0.016440813356
    H           -3.844814343972    -0.854258599927     0.980140153947

  Mulliken Charges: (a.u.)
   Center  Symbol    Alpha    Beta     Spin     Total
       1     H     0.41783  0.41783  0.00000  0.16433
       2     C     3.24383  3.24383  0.00000 -0.48765
       3     C     3.15199  3.15199  0.00000 -0.30398
       4     H     0.42118  0.42118  0.00000  0.15765
       5     H     0.42196  0.42196  0.00000  0.15608
       6     C     3.04825  3.04825  0.00000 -0.09650
       7     H     0.41363  0.41363  0.00000  0.17275
       8     H     0.42644  0.42644  0.00000  0.14713
       9     N     3.85950  3.85950  0.00000 -0.71899
      10     H     0.42204  0.42204  0.00000  0.15591
      11     H     0.43596  0.43596  0.00000  0.12808
      12     C     3.04526  3.04526  0.00000 -0.09051
      13     H     0.33484  0.33484  0.00000  0.33031
      14     C     3.15610  3.15610  0.00000 -0.31219
      15     H     0.42164  0.42164  0.00000  0.15671
      16     H     0.43661  0.43661  0.00000  0.12678
      17     C     3.24324  3.24324  0.00000 -0.48649
      18     H     0.41301  0.41301  0.00000  0.17398
      19     H     0.42668  0.42668  0.00000  0.14664
      20     H     0.42069  0.42069  0.00000  0.15862
      21     H     0.41772  0.41772  0.00000  0.16456
      22     H     0.42161  0.42161  0.00000  0.15678

   Total alpha = 29.00000, Total beta = 29.00000, Total charge =  0.00000
