  ==> Input File <==

--------------------------------------------------------------------------
set {
	reference rhf
	basis 6-31G*
}

set_num_threads( 4 )
memory 2 gb

molecule MOL {
0 1

O	 1.896221	 1.205833	 0.436253
C	 1.705091	 0.115954	 0.001797
C	 0.381791	 -0.609817	 0.001258
O	 2.657213	 -0.620137	 -0.557461
C	 -0.823008	 0.326187	 0.001381
H	 0.371250	 -1.265087	 -0.865474
H	 0.370908	 -1.265746	 0.867490
C	 -2.149452	 -0.435131	 -0.000098
H	 -0.770201	 0.977095	 -0.865636
H	 -0.771220	 0.975655	 0.869608
C	 -3.368779	 0.488503	 -0.000883
H	 -2.193746	 -1.087250	 -0.871175
H	 -2.195311	 -1.087803	 0.870418
C	 -4.693822	 -0.272754	 -0.001129
H	 -3.325798	 1.139422	 -0.871284
H	 -3.326423	 1.139959	 0.869145
H	 -4.781274	 -0.907928	 -0.878124
H	 -5.538651	 0.408946	 -0.001420
H	 -4.781694	 -0.907783	 0.875984
C	 3.952960	 -0.052948	 -0.622970
H	 3.939792	 0.858914	 -1.202507
H	 4.574815	 -0.792293	 -1.103117
H	 4.324394	 0.161901	 0.368686

	symmetry c1
}
set optking {
	frozen_dihedral = ("
		1 2 3 6
	")
}

ee = optimize('scf')
oeprop('DIPOLE', 'QUADRUPOLE', 'MULLIKEN_CHARGES')
f=open( 'psi4out.xyz', 'w' )
f.write( "23  " )
f.write( str(ee) + "\n" )
f.write( MOL.save_string_xyz() )
f.close()
--------------------------------------------------------------------------

    Molecular point group: c1
  Charge       = 0
  Multiplicity = 1
  Basis Set: 6-31G*
  Basis Set:
  @DF-RHF Final Energy:  -422.97561822553064
    Total Energy =                       -422.9756182255293879
    Molecular point group: c1
  Basis Set: 6-31G*
  Basis Set:
  Basis Set: 6-31G*
  Basis Set:
  @DF-RHF Final Energy:  -422.97447261716320
    Total Energy =                       -422.9744726171629736
  Basis Set: 6-31G*
  Basis Set:
  Basis Set: 6-31G*
  Basis Set:
  @DF-RHF Final Energy:  -422.97581212830590
    Total Energy =                       -422.9758121283057335
  Basis Set: 6-31G*
  Basis Set:
  Basis Set: 6-31G*
  Basis Set:
  @DF-RHF Final Energy:  -422.97586739888970
    Total Energy =                       -422.9758673988900455
  Basis Set: 6-31G*
  Basis Set:
  Charge       = 0
  Multiplicity = 1
  Basis Set: 6-31G*
  Basis Set:

    Orbital Energies (a.u.)
    -----------------------

    Doubly Occupied:

       1A    -20.604591     2A    -20.544337     3A    -11.372196
       4A    -11.280854     5A    -11.235169     6A    -11.220564
       7A    -11.218342     8A    -11.216848     9A    -11.209891
      10A     -1.469578    11A     -1.362347    12A     -1.093502
      13A     -1.043629    14A     -0.987078    15A     -0.932518
      16A     -0.843917    17A     -0.795439    18A     -0.768349
      19A     -0.696466    20A     -0.683075    21A     -0.671575
      22A     -0.652127    23A     -0.608719    24A     -0.599085
      25A     -0.573211    26A     -0.563747    27A     -0.552010
      28A     -0.524439    29A     -0.522665    30A     -0.507232
      31A     -0.484328    32A     -0.470679    33A     -0.466337
      34A     -0.461735    35A     -0.455819    36A     -0.434140

  @DF-RHF Final Energy:  -422.97586793425290

   => Energetics <=

    Nuclear Repulsion Energy =            452.1381773199458962
    One-Electron Energy =               -1471.9750187897634532
    Two-Electron Energy =                 596.8609735355647672
    DFT Exchange-Correlation Energy =       0.0000000000000000
    Empirical Dispersion Energy =           0.0000000000000000
    PCM Polarization Energy =               0.0000000000000000
    EFP Energy =                            0.0000000000000000
    Total Energy =                       -422.9758679342527330
    Molecular point group: c1
  Basis Set: 6-31G*
  Basis Set:

  -Total Gradient:
     Atom            X                  Y                   Z
    ------   -----------------  -----------------  -----------------
       1        0.000234557587    -0.000455038170     0.000790469905
       2       -0.000266378919     0.000502298639    -0.001113520451
       3       -0.000358004870     0.000691057943    -0.000128735878
       4       -0.000003381151     0.000039548499    -0.000111666041
       5        0.000006292472    -0.000007465532    -0.000019016448
       6        0.000390522964    -0.000663046112     0.000476661154
       7       -0.000022358647    -0.000039557745     0.000001001996
       8        0.000006112142    -0.000008684109    -0.000011116952
       9        0.000012233345    -0.000019781913     0.000014062442
      10       -0.000007634006     0.000006458371     0.000000182820
      11        0.000004709334     0.000002969419     0.000008508314
      12       -0.000004775146    -0.000005833528    -0.000003412006
      13        0.000005688587     0.000002505444    -0.000003231692
      14        0.000000722686    -0.000000067342    -0.000005319019
      15       -0.000000900545    -0.000000735372     0.000002668489
      16       -0.000002751741     0.000003328921     0.000002404670
      17       -0.000000180824    -0.000001673398     0.000000359352
      18       -0.000000634233     0.000000400288    -0.000001865756
      19        0.000001104160     0.000002104021     0.000000232910
      20       -0.000001674598    -0.000110286575     0.000204051044
      21       -0.000049657928     0.000020678397    -0.000029762046
      22        0.000009000964     0.000020801155    -0.000030507096
      23        0.000047388362     0.000020018698    -0.000042449712

  **** Optimization is complete! (in 5 steps) ****
    Final optimized geometry and variables:
    Molecular point group: c1

    Geometry (in Angstrom), charge = 0, multiplicity = 1:

    O            1.882689715802     1.191235941121     0.486490180584
    C            1.709726630610     0.103074096006     0.039202671124
    C            0.389186384387    -0.628223001221     0.016616664401
    O            2.686500228172    -0.634521950893    -0.471571872424
    C           -0.817547331731     0.306882657377     0.050544147626
    H            0.370245313939    -1.282890679667    -0.847158370936
    H            0.386631534744    -1.280811551554     0.887857686093
    C           -2.142895118477    -0.455209050012     0.085322039212
    H           -0.792298866371     0.955811816604    -0.821060371614
    H           -0.738619782343     0.955987722205     0.915521793602
    C           -3.362282464946     0.467834872524     0.115429535832
    H           -2.210304251328    -1.109950793218    -0.782146889811
    H           -2.163891658860    -1.104870913192     0.959059836088
    C           -4.686329823173    -0.294241898469     0.153465138338
    H           -3.343855949004     1.116268170697    -0.757742210485
    H           -3.296395745302     1.121672631696     0.982104317922
    H           -4.796876366371    -0.932691499878    -0.718575954802
    H           -5.531320388222     0.386913260186     0.173461641650
    H           -4.750138421397    -0.926075212332     1.034911139020
    C            3.988589081491    -0.077990853756    -0.452271569214
    H            4.016534929331     0.840839232520    -1.020015733507
    H            4.631950836792    -0.816758124883    -0.904213670908
    H            4.302062788255     0.121737844503     0.562303009154

  Mulliken Charges: (a.u.)
   Center  Symbol    Alpha    Beta     Spin     Total
       1     O     4.28659  4.28659  0.00000 -0.57317
       2     C     2.60378  2.60378  0.00000  0.79245
       3     C     3.20916  3.20916  0.00000 -0.41833
       4     O     4.30683  4.30683  0.00000 -0.61366
       5     C     3.15515  3.15515  0.00000 -0.31031
       6     H     0.40071  0.40071  0.00000  0.19859
       7     H     0.40034  0.40034  0.00000  0.19933
       8     C     3.15307  3.15307  0.00000 -0.30613
       9     H     0.41640  0.41640  0.00000  0.16720
      10     H     0.40574  0.40574  0.00000  0.18852
      11     C     3.15172  3.15172  0.00000 -0.30345
      12     H     0.42376  0.42376  0.00000  0.15249
      13     H     0.42354  0.42354  0.00000  0.15291
      14     C     3.23963  3.23963  0.00000 -0.47925
      15     H     0.42178  0.42178  0.00000  0.15644
      16     H     0.42085  0.42085  0.00000  0.15831
      17     H     0.42184  0.42184  0.00000  0.15633
      18     H     0.41843  0.41843  0.00000  0.16315
      19     H     0.42163  0.42163  0.00000  0.15674
      20     C     3.09297  3.09297  0.00000 -0.18593
      21     H     0.40850  0.40850  0.00000  0.18300
      22     H     0.40839  0.40839  0.00000  0.18322
      23     H     0.40922  0.40922  0.00000  0.18156

   Total alpha = 36.00000, Total beta = 36.00000, Total charge =  0.00000
