  ==> Input File <==

--------------------------------------------------------------------------
set {
	reference rhf
	basis 6-31G*
}

set_num_threads( 4 )
memory 2 gb

molecule MOL {
0 1

H	 -2.798360	 -0.862255	 -0.071053
N	 -1.863561	 -0.715187	 0.256814
C	 -1.344686	 0.554728	 -0.219830
H	 -1.300452	 -1.461917	 -0.101532
C	 -1.873092	 1.684311	 0.639219
H	 -0.255182	 0.608877	 -0.226944
H	 -1.685013	 0.707872	 -1.239392
O	 -1.367139	 1.524509	 1.933654
H	 -1.560923	 2.645445	 0.231284
H	 -2.960391	 1.655538	 0.652898
C	 -1.843733	 2.452568	 2.855138
H	 -1.386131	 2.231648	 3.809859
H	 -1.582576	 3.469399	 2.567328
H	 -2.924986	 2.390296	 2.959181

	symmetry c1
}
set optking {
	frozen_dihedral = ("
		6 3 2 4
	")
}

ee = optimize('scf')
oeprop('DIPOLE', 'QUADRUPOLE', 'MULLIKEN_CHARGES')
f=open( 'psi4out.xyz', 'w' )
f.write( "14  " )
f.write( str(ee) + "\n" )
f.write( MOL.save_string_xyz() )
f.close()
--------------------------------------------------------------------------

    Molecular point group: c1
  Charge       = 0
  Multiplicity = 1
  Basis Set: 6-31G*
  Basis Set:
  @DF-RHF Final Energy:  -248.11680695252119
    Total Energy =                       -248.1168069525212445
    Molecular point group: c1
  Basis Set: 6-31G*
  Basis Set:
  Basis Set: 6-31G*
  Basis Set:
  @DF-RHF Final Energy:  -248.11911249485127
    Total Energy =                       -248.1191124948514926
  Basis Set: 6-31G*
  Basis Set:
  Basis Set: 6-31G*
  Basis Set:
  @DF-RHF Final Energy:  -248.11944702762366
    Total Energy =                       -248.1194470276235506
  Basis Set: 6-31G*
  Basis Set:
  Basis Set: 6-31G*
  Basis Set:
  @DF-RHF Final Energy:  -248.11947207150726
    Total Energy =                       -248.1194720715071185
  Basis Set: 6-31G*
  Basis Set:
  Charge       = 0
  Multiplicity = 1
  Basis Set: 6-31G*
  Basis Set:

    Orbital Energies (a.u.)
    -----------------------

    Doubly Occupied:

       1A    -20.547926     2A    -15.531691     3A    -11.263933
       4A    -11.259804     5A    -11.242977     6A     -1.374779
       7A     -1.175235     8A     -0.997504     9A     -0.901801
      10A     -0.817001    11A     -0.680688    12A     -0.666281
      13A     -0.643555    14A     -0.620439    15A     -0.596309
      16A     -0.543772    17A     -0.519135    18A     -0.503032
      19A     -0.463200    20A     -0.410073    21A     -0.379415

  @DF-RHF Final Energy:  -248.11947318859777

   => Energetics <=

    Nuclear Repulsion Energy =            193.2434578087340071
    One-Electron Energy =                -720.4487621033586038
    Two-Electron Energy =                 279.0858311060268306
    DFT Exchange-Correlation Energy =       0.0000000000000000
    Empirical Dispersion Energy =           0.0000000000000000
    PCM Polarization Energy =               0.0000000000000000
    EFP Energy =                            0.0000000000000000
    Total Energy =                       -248.1194731885977944
    Molecular point group: c1
  Basis Set: 6-31G*
  Basis Set:

  -Total Gradient:
     Atom            X                  Y                   Z
    ------   -----------------  -----------------  -----------------
       1        0.000011456082     0.000002917478     0.000007705103
       2       -0.000614583083    -0.000076589546    -0.001172930482
       3        0.000039874670     0.000377152918     0.001197747186
       4        0.000487794678     0.000031794030     0.000766675647
       5       -0.000087379413    -0.000095917117     0.000053481016
       6        0.000117696632    -0.000272356704    -0.000782159725
       7       -0.000012995140    -0.000025097619     0.000029595123
       8        0.000044235329     0.000015760771    -0.000090292769
       9        0.000039174241     0.000007003624     0.000053300609
      10       -0.000035463083     0.000012137683    -0.000049294936
      11        0.000022940281     0.000048784681    -0.000015238019
      12       -0.000003039648    -0.000011026272    -0.000008032424
      13       -0.000006811661     0.000001499021     0.000016584304
      14       -0.000002899885    -0.000016062945    -0.000007140637

  **** Optimization is complete! (in 5 steps) ****
    Final optimized geometry and variables:
    Molecular point group: c1

    Geometry (in Angstrom), charge = 0, multiplicity = 1:

    H           -1.146673175744    -1.982627891417    -1.286150637579
    N           -0.228305072000    -1.845248756463    -0.911992206048
    C            0.312224187598    -0.553542712216    -1.299956845530
    H            0.347886401337    -2.592927127752    -1.242566640775
    C           -0.219891837229     0.564889565055    -0.422731107694
    H            1.390030006056    -0.584478220467    -1.192890818734
    H            0.103069214793    -0.297208086141    -2.341018183028
    O            0.337897530872     0.467846623047     0.848618869065
    H            0.032206983894     1.528161570949    -0.869201432294
    H           -1.307807308556     0.506867033279    -0.368281562016
    C           -0.156369194369     1.393008277849     1.760714958097
    H            0.351257208152     1.228092662506     2.701235858799
    H            0.029156146950     2.416269550676     1.436122608749
    H           -1.227178128665     1.269901695025     1.913311647732

  Mulliken Charges: (a.u.)
   Center  Symbol    Alpha    Beta     Spin     Total
       1     H     0.33505  0.33505  0.00000  0.32991
       2     N     3.91748  3.91748  0.00000 -0.83495
       3     C     3.07423  3.07423  0.00000 -0.14846
       4     H     0.33018  0.33018  0.00000  0.33963
       5     C     2.97958  2.97958  0.00000  0.04084
       6     H     0.41080  0.41080  0.00000  0.17841
       7     H     0.43284  0.43284  0.00000  0.13432
       8     O     4.29745  4.29745  0.00000 -0.59490
       9     H     0.43403  0.43403  0.00000  0.13194
      10     H     0.43484  0.43484  0.00000  0.13032
      11     C     3.07843  3.07843  0.00000 -0.15686
      12     H     0.41209  0.41209  0.00000  0.17581
      13     H     0.43296  0.43296  0.00000  0.13408
      14     H     0.43004  0.43004  0.00000  0.13993

   Total alpha = 21.00000, Total beta = 21.00000, Total charge =  0.00000
