  ==> Input File <==

--------------------------------------------------------------------------
set {
	reference rhf
	basis 6-31G*
}

set_num_threads( 1 )
memory 2 gb

molecule MOL {
0 1

H	 2.318191	 2.579916	 -0.551664
O	 3.107040	 2.180597	 -0.888314
C	 3.486103	 1.110058	 -0.061083
C	 2.582920	 -0.109891	 -0.205003
H	 4.495840	 0.854013	 -0.355271
H	 3.523710	 1.427908	 0.980231
C	 1.136012	 0.131954	 0.231846
H	 2.601768	 -0.432393	 -1.242791
H	 3.008849	 -0.918729	 0.386378
C	 0.268492	 -1.125477	 0.126517
H	 0.706071	 0.921516	 -0.378161
H	 1.123610	 0.489171	 1.261692
C	 -1.169155	 -0.960178	 0.632665
H	 0.249135	 -1.461356	 -0.908692
H	 0.743869	 -1.922459	 0.694441
C	 -2.037799	 -0.007733	 -0.193645
H	 -1.642433	 -1.939826	 0.643309
H	 -1.149166	 -0.623582	 1.668107
C	 -3.489788	 0.042957	 0.286558
H	 -2.016347	 -0.316840	 -1.237725
H	 -1.623251	 0.997066	 -0.164800
C	 -4.216917	 1.317354	 -0.141063
H	 -4.025645	 -0.823308	 -0.095450
H	 -3.513059	 -0.038752	 1.371301
H	 -4.239342	 1.411634	 -1.223113
H	 -5.243387	 1.322503	 0.212445
H	 -3.726170	 2.201406	 0.256408

	symmetry c1
}
set optking {
	frozen_dihedral = ("
		14 10 7 4,
		14 10 13 16,
		10 7 4 8,
		8 4 3 2,
		10 13 16 20,
		4 3 2 1
	")
}

ee = energy('scf')
oeprop('DIPOLE', 'QUADRUPOLE', 'MULLIKEN_CHARGES')
f=open( 'psi4out.xyz', 'w' )
f.write( "27  " )
f.write( str(ee) + "\n" )
f.write( MOL.save_string_xyz() )
f.close()
--------------------------------------------------------------------------

    Molecular point group: c1

    Geometry (in Angstrom), charge = 0, multiplicity = 1:

       Center              X                  Y                   Z               Mass
    ------------   -----------------  -----------------  -----------------  -----------------
           H          2.318638935650     2.246233329351    -0.515086393615     1.007825032070
           O          3.107487935650     1.846914329351    -0.851736393615    15.994914619560
           C          3.486550935650     0.776375329351    -0.024505393615    12.000000000000
           C          2.583367935650    -0.443573670649    -0.168425393615    12.000000000000
           H          4.496287935650     0.520330329351    -0.318693393615     1.007825032070
           H          3.524157935650     1.094225329351     1.016808606385     1.007825032070
           C          1.136459935650    -0.201728670649     0.268423606385    12.000000000000
           H          2.602215935650    -0.766075670649    -1.206213393615     1.007825032070
           H          3.009296935650    -1.252411670649     0.422955606385     1.007825032070
           C          0.268939935650    -1.459159670649     0.163094606385    12.000000000000
           H          0.706518935650     0.587833329351    -0.341583393615     1.007825032070
           H          1.124057935650     0.155488329351     1.298269606385     1.007825032070
           C         -1.168707064350    -1.293860670649     0.669242606385    12.000000000000
           H          0.249582935650    -1.795038670649    -0.872114393615     1.007825032070
           H          0.744316935650    -2.256141670649     0.731018606385     1.007825032070
           C         -2.037351064350    -0.341415670649    -0.157067393615    12.000000000000
           H         -1.641985064350    -2.273508670649     0.679886606385     1.007825032070
           H         -1.148718064350    -0.957264670649     1.704684606385     1.007825032070
           C         -3.489340064350    -0.290725670649     0.323135606385    12.000000000000
           H         -2.015899064350    -0.650522670649    -1.201147393615     1.007825032070
           H         -1.622803064350     0.663383329351    -0.128222393615     1.007825032070
           C         -4.216469064350     0.983671329351    -0.104485393615    12.000000000000
           H         -4.025197064350    -1.156990670649    -0.058872393615     1.007825032070
           H         -3.512611064350    -0.372434670649     1.407878606385     1.007825032070
           H         -4.238894064350     1.077951329351    -1.186535393615     1.007825032070
           H         -5.242939064350     0.988820329351     0.249022606385     1.007825032070
           H         -3.725722064350     1.867723329351     0.292985606385     1.007825032070

  Charge       = 0
  Multiplicity = 1
  Basis Set: 6-31G*
  Basis Set:

    Orbital Energies (a.u.)
    -----------------------

    Doubly Occupied:

       1A    -20.552273     2A    -11.267040     3A    -11.219783
       4A    -11.217172     5A    -11.215875     6A    -11.215678
       7A    -11.215215     8A    -11.213897     9A    -11.209640
      10A     -1.359017    11A     -1.095260    12A     -1.061583
      13A     -1.011511    14A     -0.948464    15A     -0.888110
      16A     -0.820232    17A     -0.801790    18A     -0.778204
      19A     -0.693695    20A     -0.651385    21A     -0.635909
      22A     -0.614556    23A     -0.603598    24A     -0.583089
      25A     -0.580917    26A     -0.550926    27A     -0.541242
      28A     -0.532475    29A     -0.503515    30A     -0.494817
      31A     -0.486869    32A     -0.473093    33A     -0.470043
      34A     -0.460277    35A     -0.451603    36A     -0.441127
      37A     -0.422926

  @DF-RHF Final Energy:  -388.28008508202106

   => Energetics <=

    Nuclear Repulsion Energy =            460.2516841500142846
    One-Electron Energy =               -1438.4980203654704383
    Two-Electron Energy =                 589.9662511334346391
    DFT Exchange-Correlation Energy =       0.0000000000000000
    Empirical Dispersion Energy =           0.0000000000000000
    PCM Polarization Energy =               0.0000000000000000
    EFP Energy =                            0.0000000000000000
    Total Energy =                       -388.2800850820215146

  Mulliken Charges: (a.u.)
   Center  Symbol    Alpha    Beta     Spin     Total
       1     H     0.27990  0.27990  0.00000  0.44019
       2     O     4.37095  4.37095  0.00000 -0.74189
       3     C     2.99736  2.99736  0.00000  0.00528
       4     C     3.16091  3.16091  0.00000 -0.32182
       5     H     0.41444  0.41444  0.00000  0.17112
       6     H     0.43206  0.43206  0.00000  0.13588
       7     C     3.16328  3.16328  0.00000 -0.32656
       8     H     0.41496  0.41496  0.00000  0.17007
       9     H     0.42433  0.42433  0.00000  0.15134
      10     C     3.15229  3.15229  0.00000 -0.30459
      11     H     0.42277  0.42277  0.00000  0.15445
      12     H     0.42551  0.42551  0.00000  0.14898
      13     C     3.15456  3.15456  0.00000 -0.30911
      14     H     0.42165  0.42165  0.00000  0.15671
      15     H     0.42154  0.42154  0.00000  0.15692
      16     C     3.15313  3.15313  0.00000 -0.30626
      17     H     0.42105  0.42105  0.00000  0.15791
      18     H     0.42406  0.42406  0.00000  0.15188
      19     C     3.15195  3.15195  0.00000 -0.30389
      20     H     0.42232  0.42232  0.00000  0.15536
      21     H     0.42360  0.42360  0.00000  0.15279
      22     C     3.23968  3.23968  0.00000 -0.47936
      23     H     0.42157  0.42157  0.00000  0.15686
      24     H     0.42277  0.42277  0.00000  0.15447
      25     H     0.42142  0.42142  0.00000  0.15716
      26     H     0.41956  0.41956  0.00000  0.16089
      27     H     0.42239  0.42239  0.00000  0.15523

   Total alpha = 37.00000, Total beta = 37.00000, Total charge = -0.00000
