  ==> Input File <==

--------------------------------------------------------------------------
set {
	reference rhf
	basis 6-31G*
}

set_num_threads( 1 )
memory 2 gb

molecule MOL {
0 1

O	 3.225979	 0.970355	 -0.599647
C	 2.701189	 0.057885	 -0.047330
C	 1.245376	 -0.013843	 0.345420
O	 3.347903	 -1.046386	 0.304773
C	 0.455112	 1.231400	 -0.050772
H	 0.838542	 -0.913825	 -0.103701
H	 1.208210	 -0.175333	 1.419774
C	 -0.998893	 1.219485	 0.433193
H	 0.482531	 1.345121	 -1.130325
H	 0.957290	 2.103070	 0.354729
C	 -1.883438	 0.145884	 -0.207175
H	 -1.431207	 2.195402	 0.224832
H	 -1.019646	 1.105716	 1.516076
C	 -3.347647	 0.245583	 0.225435
H	 -1.822183	 0.231698	 -1.291012
H	 -1.510341	 -0.844814	 0.042401
C	 -4.246412	 0.901976	 -0.824090
H	 -3.410653	 0.809453	 1.154582
H	 -3.725871	 -0.750852	 0.448514
C	 -5.706233	 1.001156	 -0.382745
H	 -3.869302	 1.897407	 -1.048921
H	 -4.188140	 0.337261	 -1.752250
H	 -6.317726	 1.470417	 -1.147255
H	 -5.802166	 1.590156	 0.525039
H	 -6.123174	 0.018001	 -0.183145
C	 4.728119	 -1.109107	 -0.004993
H	 4.882018	 -1.033965	 -1.071845
H	 5.068212	 -2.067527	 0.355250
H	 5.265056	 -0.311663	 0.488280

	symmetry c1
}
set optking {
	frozen_dihedral = ("
		21 17 14 11,
		15 11 8 5,
		6 3 5 9,
		11 8 5 9,
		2 4 26 27,
		1 2 4 26,
		6 3 2 1
	")
}

ee = energy('scf')
oeprop('DIPOLE', 'QUADRUPOLE', 'MULLIKEN_CHARGES')
f=open( 'psi4out.xyz', 'w' )
f.write( "29  " )
f.write( str(ee) + "\n" )
f.write( MOL.save_string_xyz() )
f.close()
--------------------------------------------------------------------------

    Molecular point group: c1

    Geometry (in Angstrom), charge = 0, multiplicity = 1:

       Center              X                  Y                   Z               Mass
    ------------   -----------------  -----------------  -----------------  -----------------
           O          3.227018336597     0.654100989635    -0.523244827436    15.994914619560
           C          2.702228336597    -0.258369010365     0.029072172564    12.000000000000
           C          1.246415336597    -0.330097010365     0.421822172564    12.000000000000
           O          3.348942336597    -1.362640010365     0.381175172564    15.994914619560
           C          0.456151336597     0.915145989635     0.025630172564    12.000000000000
           H          0.839581336597    -1.230079010365    -0.027298827436     1.007825032070
           H          1.209249336597    -0.491587010365     1.496176172564     1.007825032070
           C         -0.997853663403     0.903230989635     0.509595172564    12.000000000000
           H          0.483570336597     1.028866989635    -1.053922827436     1.007825032070
           H          0.958329336597     1.786815989635     0.431131172564     1.007825032070
           C         -1.882398663403    -0.170370010365    -0.130772827436    12.000000000000
           H         -1.430167663403     1.879147989635     0.301234172564     1.007825032070
           H         -1.018606663403     0.789461989635     1.592478172564     1.007825032070
           C         -3.346607663403    -0.070671010365     0.301837172564    12.000000000000
           H         -1.821143663403    -0.084556010365    -1.214609827436     1.007825032070
           H         -1.509301663403    -1.161068010365     0.118803172564     1.007825032070
           C         -4.245372663403     0.585721989635    -0.747687827436    12.000000000000
           H         -3.409613663403     0.493198989635     1.230984172564     1.007825032070
           H         -3.724831663403    -1.067106010365     0.524916172564     1.007825032070
           C         -5.705193663403     0.684901989635    -0.306342827436    12.000000000000
           H         -3.868262663403     1.581152989635    -0.972518827436     1.007825032070
           H         -4.187100663403     0.021006989635    -1.675847827436     1.007825032070
           H         -6.316686663403     1.154162989635    -1.070852827436     1.007825032070
           H         -5.801126663403     1.273901989635     0.601441172564     1.007825032070
           H         -6.122134663403    -0.298253010365    -0.106742827436     1.007825032070
           C          4.729158336597    -1.425361010365     0.071409172564    12.000000000000
           H          4.883057336597    -1.350219010365    -0.995442827436     1.007825032070
           H          5.069251336597    -2.383781010365     0.431652172564     1.007825032070
           H          5.266095336597    -0.627917010365     0.564682172564     1.007825032070

  Charge       = 0
  Multiplicity = 1
  Basis Set: 6-31G*
  Basis Set:

    Orbital Energies (a.u.)
    -----------------------

    Doubly Occupied:

       1A    -20.603280     2A    -20.545116     3A    -11.371903
       4A    -11.280596     5A    -11.234661     6A    -11.218750
       7A    -11.217814     8A    -11.215779     9A    -11.214618
      10A    -11.213116    11A    -11.208502    12A     -1.468981
      13A     -1.362422    14A     -1.098402    15A     -1.066443
      16A     -1.018477    17A     -0.977043    18A     -0.928450
      19A     -0.861457    20A     -0.805752    21A     -0.785691
      22A     -0.763912    23A     -0.700925    24A     -0.682164
      25A     -0.671800    26A     -0.639086    27A     -0.626703
      28A     -0.615063    29A     -0.596501    30A     -0.579512
      31A     -0.561960    32A     -0.557396    33A     -0.534825
      34A     -0.528026    35A     -0.521930    36A     -0.502650
      37A     -0.496126    38A     -0.480043    39A     -0.472935
      40A     -0.463552    41A     -0.455886    42A     -0.445358
      43A     -0.443108    44A     -0.436406

  @DF-RHF Final Energy:  -501.03948815325862

   => Energetics <=

    Nuclear Repulsion Energy =            611.8425196104392398
    One-Electron Energy =               -1894.8175029895248827
    Two-Electron Energy =                 781.9354952258249796
    DFT Exchange-Correlation Energy =       0.0000000000000000
    Empirical Dispersion Energy =           0.0000000000000000
    PCM Polarization Energy =               0.0000000000000000
    EFP Energy =                            0.0000000000000000
    Total Energy =                       -501.0394881532606632

  Mulliken Charges: (a.u.)
   Center  Symbol    Alpha    Beta     Spin     Total
       1     O     4.28596  4.28596  0.00000 -0.57193
       2     C     2.60481  2.60481  0.00000  0.79039
       3     C     3.20958  3.20958  0.00000 -0.41916
       4     O     4.30746  4.30746  0.00000 -0.61492
       5     C     3.15415  3.15415  0.00000 -0.30830
       6     H     0.39886  0.39886  0.00000  0.20228
       7     H     0.40128  0.40128  0.00000  0.19743
       8     C     3.15867  3.15867  0.00000 -0.31734
       9     H     0.41306  0.41306  0.00000  0.17389
      10     H     0.40895  0.40895  0.00000  0.18210
      11     C     3.15767  3.15767  0.00000 -0.31535
      12     H     0.41807  0.41807  0.00000  0.16386
      13     H     0.42326  0.42326  0.00000  0.15349
      14     C     3.15365  3.15365  0.00000 -0.30730
      15     H     0.42057  0.42057  0.00000  0.15887
      16     H     0.42113  0.42113  0.00000  0.15775
      17     C     3.15318  3.15318  0.00000 -0.30635
      18     H     0.42160  0.42160  0.00000  0.15681
      19     H     0.42149  0.42149  0.00000  0.15703
      20     C     3.23977  3.23977  0.00000 -0.47954
      21     H     0.42263  0.42263  0.00000  0.15474
      22     H     0.42233  0.42233  0.00000  0.15534
      23     H     0.41926  0.41926  0.00000  0.16148
      24     H     0.42170  0.42170  0.00000  0.15659
      25     H     0.42178  0.42178  0.00000  0.15644
      26     C     3.09238  3.09238  0.00000 -0.18476
      27     H     0.40909  0.40909  0.00000  0.18181
      28     H     0.40853  0.40853  0.00000  0.18294
      29     H     0.40914  0.40914  0.00000  0.18173

   Total alpha = 44.00000, Total beta = 44.00000, Total charge =  0.00000
