  ==> Input File <==

--------------------------------------------------------------------------
set {
	reference rhf
	basis 6-31G*
}

set_num_threads( 1 )
memory 2 gb

molecule MOL {
0 1

H	 2.844641	 -0.422267	 0.157376
O	 2.016064	 -0.864478	 0.000222
C	 1.050492	 0.053836	 0.000068
C	 -0.318135	 -0.576402	 0.000164
O	 1.285279	 1.218255	 -0.000078
C	 -1.454360	 0.441875	 -0.000474
H	 -0.374042	 -1.230163	 -0.866135
H	 -0.374274	 -1.229227	 0.867154
C	 -2.826123	 -0.230780	 0.000056
H	 -1.357605	 1.085198	 -0.868380
H	 -1.357504	 1.086451	 0.866496
H	 -2.959731	 -0.858053	 -0.876869
H	 -3.619374	 0.509403	 -0.000080
H	 -2.959371	 -0.857318	 0.877556

	symmetry c1
}
set optking {
	frozen_dihedral = ("
		7 4 6 10,
		2 3 4 7
	")
}

ee = energy('scf')
oeprop('DIPOLE', 'QUADRUPOLE', 'MULLIKEN_CHARGES')
f=open( 'psi4out.xyz', 'w' )
f.write( "14  " )
f.write( str(ee) + "\n" )
f.write( MOL.save_string_xyz() )
f.close()
--------------------------------------------------------------------------

    Molecular point group: c1

    Geometry (in Angstrom), charge = 0, multiplicity = 1:

       Center              X                  Y                   Z               Mass
    ------------   -----------------  -----------------  -----------------  -----------------
           H          2.844749497521    -0.422153571395     0.155576859170     1.007825032070
           O          2.016172497521    -0.864364571395    -0.001577140830    15.994914619560
           C          1.050600497521     0.053949428605    -0.001731140830    12.000000000000
           C         -0.318026502479    -0.576288571395    -0.001635140830    12.000000000000
           O          1.285387497521     1.218368428605    -0.001877140830    15.994914619560
           C         -1.454251502479     0.441988428605    -0.002273140830    12.000000000000
           H         -0.373933502479    -1.230049571395    -0.867934140830     1.007825032070
           H         -0.374165502479    -1.229113571395     0.865354859170     1.007825032070
           C         -2.826014502479    -0.230666571395    -0.001743140830    12.000000000000
           H         -1.357496502479     1.085311428605    -0.870179140830     1.007825032070
           H         -1.357395502479     1.086564428605     0.864696859170     1.007825032070
           H         -2.959622502479    -0.857939571395    -0.878668140830     1.007825032070
           H         -3.619265502479     0.509516428605    -0.001879140830     1.007825032070
           H         -2.959262502479    -0.857204571395     0.875756859170     1.007825032070

  Charge       = 0
  Multiplicity = 1
  Basis Set: 6-31G*
  Basis Set:

    Orbital Energies (a.u.)
    -----------------------

    Doubly Occupied:

       1A    -20.612721     2A    -20.552405     3A    -11.381746
       4A    -11.241330     5A    -11.225606     6A    -11.217126
       7A     -1.475062     8A     -1.366340     9A     -1.083152
      10A     -0.979634    11A     -0.857227    12A     -0.791333
      13A     -0.700253    14A     -0.688824    15A     -0.667416
      16A     -0.616642    17A     -0.592570    18A     -0.572803
      19A     -0.545352    20A     -0.505206    21A     -0.491714
      22A     -0.482498    23A     -0.478939    24A     -0.444755

  @DF-RHF Final Energy:  -305.88022007845950

   => Energetics <=

    Nuclear Repulsion Energy =            239.9656038495936912
    One-Electron Energy =                -892.5503827412312603
    Two-Electron Energy =                 346.7045588131783234
    DFT Exchange-Correlation Energy =       0.0000000000000000
    Empirical Dispersion Energy =           0.0000000000000000
    PCM Polarization Energy =               0.0000000000000000
    EFP Energy =                            0.0000000000000000
    Total Energy =                       -305.8802200784592742

  Mulliken Charges: (a.u.)
   Center  Symbol    Alpha    Beta     Spin     Total
       1     H     0.26764  0.26764  0.00000  0.46473
       2     O     4.35131  4.35131  0.00000 -0.70261
       3     C     2.62372  2.62372  0.00000  0.75257
       4     C     3.20930  3.20930  0.00000 -0.41861
       5     O     4.27847  4.27847  0.00000 -0.55695
       6     C     3.15243  3.15243  0.00000 -0.30487
       7     H     0.39858  0.39858  0.00000  0.20283
       8     H     0.39919  0.39919  0.00000  0.20161
       9     C     3.24292  3.24292  0.00000 -0.48583
      10     H     0.40994  0.40994  0.00000  0.18012
      11     H     0.41033  0.41033  0.00000  0.17933
      12     H     0.42075  0.42075  0.00000  0.15850
      13     H     0.41446  0.41446  0.00000  0.17108
      14     H     0.42095  0.42095  0.00000  0.15810

   Total alpha = 24.00000, Total beta = 24.00000, Total charge =  0.00000
