  ==> Input File <==

--------------------------------------------------------------------------
set {
	reference rhf
	basis cc-pvtz
}

set_num_threads( 4 )
memory 2 gb

molecule MOL {
0 1

H	 -1.082680	 -2.272529	 -0.826626
N	 -0.369925	 -1.580413	 -0.918973
C	 -0.561396	 -0.500007	 0.035200
H	 -0.410215	 -1.239185	 -1.856670
C	 0.575129	 0.507849	 -0.048832
H	 -0.580003	 -0.934223	 1.029347
H	 -1.511222	 0.020471	 -0.096511
C	 1.951750	 -0.141983	 0.035101
H	 0.478254	 1.061643	 -0.975981
H	 0.467676	 1.231891	 0.755499
H	 2.101550	 -0.848142	 -0.774949
H	 2.738260	 0.600794	 -0.026526
H	 2.078939	 -0.679792	 0.968824

	symmetry c1
}
set optking {
	frozen_dihedral = ("
		6 3 5 9
	")
}

ee = optimize('scf')
oeprop('DIPOLE', 'QUADRUPOLE', 'MULLIKEN_CHARGES')
f=open( 'psi4out.xyz', 'w' )
f.write( "13  " )
f.write( str(ee) + "\n" )
f.write( MOL.save_string_xyz() )
f.close()
--------------------------------------------------------------------------

    Molecular point group: c1
  Charge       = 0
  Multiplicity = 1
  Basis Set: CC-PVTZ
  Basis Set:
  @DF-RHF Final Energy:  -173.35089144325755
    Total Energy =                       -173.3508914432576375
    Molecular point group: c1
  Basis Set: CC-PVTZ
  Basis Set:
  Basis Set: CC-PVTZ
  Basis Set:
  @DF-RHF Final Energy:  -173.35131804482305
    Total Energy =                       -173.3513180448229605
  Basis Set: CC-PVTZ
  Basis Set:
  Basis Set: CC-PVTZ
  Basis Set:
  @DF-RHF Final Energy:  -173.35149430710396
    Total Energy =                       -173.3514943071040193
  Basis Set: CC-PVTZ
  Basis Set:
  Basis Set: CC-PVTZ
  Basis Set:
  @DF-RHF Final Energy:  -173.35149952955985
    Total Energy =                       -173.3514995295599306
  Basis Set: CC-PVTZ
  Basis Set:
  Charge       = 0
  Multiplicity = 1
  Basis Set: CC-PVTZ
  Basis Set:

    Orbital Energies (a.u.)
    -----------------------

    Doubly Occupied:

       1A    -15.527416     2A    -11.239020     3A    -11.211134
       4A    -11.197608     5A     -1.179226     6A     -1.030004
       7A     -0.904122     8A     -0.790662     9A     -0.666236
      10A     -0.625085    11A     -0.605799    12A     -0.559826
      13A     -0.531009    14A     -0.492229    15A     -0.472279
      16A     -0.466034    17A     -0.383460

  @DF-RHF Final Energy:  -173.35149986947988

   => Energetics <=

    Nuclear Repulsion Energy =            133.8874995195771476
    One-Electron Energy =                -498.7157030206142281
    Two-Electron Energy =                 191.4767036315572000
    DFT Exchange-Correlation Energy =       0.0000000000000000
    Empirical Dispersion Energy =           0.0000000000000000
    PCM Polarization Energy =               0.0000000000000000
    EFP Energy =                            0.0000000000000000
    Total Energy =                       -173.3514998694798805
    Molecular point group: c1
  Basis Set: CC-PVTZ
  Basis Set:

  -Total Gradient:
     Atom            X                  Y                   Z
    ------   -----------------  -----------------  -----------------
       1       -0.000009910355     0.000002803134    -0.000009086406
       2        0.000019506485    -0.000005337142     0.000018209502
       3        0.001711012313    -0.001997033207    -0.000746704440
       4        0.000003297383     0.000004387378    -0.000008652427
       5        0.001494913122    -0.001865293622    -0.001403580030
       6       -0.001680348480     0.001998427744     0.000856139490
       7       -0.000004210993    -0.000011263586    -0.000001798705
       8        0.000003253933     0.000008881790     0.000021408832
       9       -0.001550244637     0.001876686025     0.001284406215
      10        0.000005459179     0.000003468189     0.000000837321
      11       -0.000000231309    -0.000003583800    -0.000006709667
      12       -0.000001279025    -0.000006352180    -0.000001984590
      13        0.000008782382    -0.000005790721    -0.000002485097

  **** Optimization is complete! (in 5 steps) ****
    Final optimized geometry and variables:
    Molecular point group: c1

    Geometry (in Angstrom), charge = 0, multiplicity = 1:

    H           -1.525675649125    -1.812660394822    -0.572002132089
    N           -0.806412682840    -1.132037307450    -0.692936663381
    C           -0.935486741407    -0.057955515053     0.278312160583
    H           -0.887115708908    -0.780390103486    -1.624522156809
    C            0.208196329036     0.946676012375     0.185820137367
    H           -0.948613884695    -0.492803476459     1.272441363697
    H           -1.874719488937     0.487151572628     0.177481763625
    C            1.600298544871     0.337024845126     0.302117597073
    H            0.116196031976     1.509456257839    -0.740627399266
    H            0.066580832654     1.676006026113     0.978790826551
    H            1.792685492393    -0.364863651822    -0.497187640104
    H            2.360504610554     1.109526979511     0.269618492806
    H            1.709979767150    -0.197240145340     1.240305367432

  Mulliken Charges: (a.u.)
   Center  Symbol    Alpha    Beta     Spin     Total
       1     H     0.42890  0.42890  0.00000  0.14219
       2     N     3.68958  3.68958  0.00000 -0.37915
       3     C     3.03393  3.03393  0.00000 -0.06786
       4     H     0.43047  0.43047  0.00000  0.13907
       5     C     3.08866  3.08866  0.00000 -0.17731
       6     H     0.45675  0.45675  0.00000  0.08649
       7     H     0.46178  0.46178  0.00000  0.07643
       8     C     3.14040  3.14040  0.00000 -0.28081
       9     H     0.45662  0.45662  0.00000  0.08675
      10     H     0.45305  0.45305  0.00000  0.09389
      11     H     0.44908  0.44908  0.00000  0.10184
      12     H     0.45259  0.45259  0.00000  0.09481
      13     H     0.45817  0.45817  0.00000  0.08366

   Total alpha = 17.00000, Total beta = 17.00000, Total charge = -0.00000
