  ==> Input File <==

--------------------------------------------------------------------------
set {
	reference rhf
	basis cc-pvtz
}

set_num_threads( 4 )
memory 2 gb

molecule MOL {
0 1

H	 2.867672	 -0.456275	 0.875795
C	 2.403497	 -0.020426	 0.000000
N	 0.989899	 -0.304564	 0.000000
H	 2.867672	 -0.456275	 -0.875795
H	 2.620366	 1.051270	 0.000000
C	 0.199528	 0.819417	 -0.457763
C	 0.518806	 -0.769007	 1.288384
H	 0.333078	 1.691902	 0.189290
H	 0.520266	 1.098365	 -1.454780
C	 -1.269651	 0.444185	 -0.488720
H	 1.073809	 -1.655537	 1.572572
H	 0.676372	 -0.015995	 2.066773
C	 -0.958576	 -1.103425	 1.212562
H	 -1.875368	 1.303429	 -0.740580
H	 -1.432645	 -0.325225	 -1.240744
O	 -1.700871	 -0.010210	 0.759767
H	 -1.339436	 -1.362854	 2.190452
H	 -1.105473	 -1.952920	 0.548574

	symmetry c1
}
set optking {
	frozen_dihedral = ("
		6 3 2 5
	")
}

ee = optimize('scf')
oeprop('DIPOLE', 'QUADRUPOLE', 'MULLIKEN_CHARGES')
f=open( 'psi4out.xyz', 'w' )
f.write( "18  " )
f.write( str(ee) + "\n" )
f.write( MOL.save_string_xyz() )
f.close()
--------------------------------------------------------------------------

    Molecular point group: c1
  Charge       = 0
  Multiplicity = 1
  Basis Set: CC-PVTZ
  Basis Set:
  @DF-RHF Final Energy:  -325.14047239861100
    Total Energy =                       -325.1404723986112231
    Molecular point group: c1
  Basis Set: CC-PVTZ
  Basis Set:
  Basis Set: CC-PVTZ
  Basis Set:
  @DF-RHF Final Energy:  -325.14075503868037
    Total Energy =                       -325.1407550386804814
  Basis Set: CC-PVTZ
  Basis Set:
  Basis Set: CC-PVTZ
  Basis Set:
  @DF-RHF Final Energy:  -325.14081873712126
    Total Energy =                       -325.1408187371210943
  Basis Set: CC-PVTZ
  Basis Set:
  Charge       = 0
  Multiplicity = 1
  Basis Set: CC-PVTZ
  Basis Set:

    Orbital Energies (a.u.)
    -----------------------

    Doubly Occupied:

       1A    -20.547055     2A    -15.542825     3A    -11.263762
       4A    -11.263653     5A    -11.242425     6A    -11.242406
       7A    -11.238847     8A     -1.386040     9A     -1.230314
      10A     -1.038536    11A     -0.981104    12A     -0.883195
      13A     -0.870399    14A     -0.774677    15A     -0.684503
      16A     -0.645707    17A     -0.644048    18A     -0.632575
      19A     -0.628372    20A     -0.572886    21A     -0.558685
      22A     -0.544734    23A     -0.527605    24A     -0.500350
      25A     -0.484096    26A     -0.453329    27A     -0.409741
      28A     -0.352616

  @DF-RHF Final Energy:  -325.14081984100500

   => Energetics <=

    Nuclear Repulsion Energy =            341.5265662572666656
    One-Electron Energy =               -1119.0457982308712417
    Two-Electron Energy =                 452.3784121326000331
    DFT Exchange-Correlation Energy =       0.0000000000000000
    Empirical Dispersion Energy =           0.0000000000000000
    PCM Polarization Energy =               0.0000000000000000
    EFP Energy =                            0.0000000000000000
    Total Energy =                       -325.1408198410044861
    Molecular point group: c1
  Basis Set: CC-PVTZ
  Basis Set:

  -Total Gradient:
     Atom            X                  Y                   Z
    ------   -----------------  -----------------  -----------------
       1        0.000035471910     0.000016615919     0.000021817434
       2       -0.000082403132     0.000413216108     0.006023355479
       3        0.000324693816    -0.001335976480    -0.004867672729
       4        0.000001341167    -0.000009723013    -0.000005534988
       5       -0.000018016821    -0.000042727737    -0.003884733518
       6       -0.000175073972     0.000933275258     0.002776081892
       7       -0.000027149496    -0.000006110601    -0.000073884806
       8        0.000006223194     0.000003665813    -0.000002288307
       9        0.000000901918    -0.000014653652     0.000018861841
      10       -0.000023087005     0.000039552614    -0.000034072541
      11        0.000001785237     0.000017746119    -0.000016626578
      12        0.000000244276    -0.000003924562    -0.000006742696
      13        0.000008244695    -0.000024748371     0.000044267568
      14       -0.000036650700     0.000002066973     0.000002515913
      15        0.000000590602     0.000001575576     0.000014030429
      16        0.000018443390    -0.000004632767    -0.000021332062
      17       -0.000033716910    -0.000008457574     0.000012508866
      18       -0.000001842169     0.000023240374    -0.000000551197

  **** Optimization is complete! (in 4 steps) ****
    Final optimized geometry and variables:
    Molecular point group: c1

    Geometry (in Angstrom), charge = 0, multiplicity = 1:

    H            2.884708627104    -0.331810142956     0.513742736795
    C            2.392445004535     0.103120997530    -0.345903166691
    N            0.966378683376    -0.172918064901    -0.326131630130
    H            2.848860253000    -0.317316478199    -1.236001446462
    H            2.603982550065     1.170247756363    -0.357897980749
    C            0.173684135205     0.950121243570    -0.783666560902
    C            0.486007002515    -0.631392419286     0.963066823848
    H            0.300833143110     1.818835943104    -0.131030002707
    H            0.498624148609     1.237083359685    -1.777594412229
    C           -1.294132627344     0.571767248772    -0.829095287526
    H            1.037242380149    -1.517034310303     1.255735366997
    H            0.631365469999     0.123411322912     1.741905871186
    C           -0.989084417456    -0.973572206167     0.874403199365
    H           -1.899108613368     1.430758983329    -1.084342335821
    H           -1.448630129784    -0.195835951219    -1.584794341794
    O           -1.735281329563     0.113762321006     0.414337088449
    H           -1.376563939789    -1.235323025600     1.849267723261
    H           -1.123731809995    -1.824594651941     0.209613659379

  Mulliken Charges: (a.u.)
   Center  Symbol    Alpha    Beta     Spin     Total
       1     H     0.45620  0.45620  0.00000  0.08760
       2     C     3.09147  3.09147  0.00000 -0.18294
       3     N     3.61987  3.61987  0.00000 -0.23973
       4     H     0.44925  0.44925  0.00000  0.10151
       5     H     0.46369  0.46369  0.00000  0.07263
       6     C     3.04252  3.04252  0.00000 -0.08504
       7     C     3.04083  3.04083  0.00000 -0.08166
       8     H     0.46820  0.46820  0.00000  0.06361
       9     H     0.45360  0.45360  0.00000  0.09280
      10     C     2.98440  2.98440  0.00000  0.03119
      11     H     0.45390  0.45390  0.00000  0.09219
      12     H     0.46883  0.46883  0.00000  0.06233
      13     C     2.98454  2.98454  0.00000  0.03092
      14     H     0.45009  0.45009  0.00000  0.09982
      15     H     0.46802  0.46802  0.00000  0.06397
      16     O     4.18644  4.18644  0.00000 -0.37289
      17     H     0.45000  0.45000  0.00000  0.10000
      18     H     0.46815  0.46815  0.00000  0.06370

   Total alpha = 28.00000, Total beta = 28.00000, Total charge = -0.00000
