                              Psi4 1.0.54 Driver

  ==> Input File <==

--------------------------------------------------------------------------
set {
	reference rhf
	basis cc-pvtz
}

set_num_threads( 4 )
memory 2 gb

molecule MOL {
0 1

H	 1.651322	 -0.822465	 0.000000
O	 0.729993	 -1.034364	 0.000000
C	 0.037305	 0.100061	 0.000000
C	 0.912666	 1.293192	 0.241371
O	 -1.131444	 0.127983	 -0.173320
H	 1.414239	 1.186381	 1.194515
H	 0.313204	 2.188350	 0.233414
H	 1.673298	 1.344564	 -0.526919

	symmetry c1
}
set optking {
	frozen_dihedral = ("
		4 3 2 1
	")
}

ee,wfn = optimize('scf', return_wfn=True)
oeprop( wfn, 'DIPOLE', 'QUADRUPOLE', 'MULLIKEN_CHARGES')
f=open( 'psi4out.xyz', 'w' )
f.write( "8  " )
f.write( str(ee) + "\n" )
f.write( MOL.save_string_xyz() )
f.close()
--------------------------------------------------------------------------

    Molecular point group: c1
  Charge       = 0
  Multiplicity = 1
  Basis Set: CC-PVTZ
  Basis Set:
  @DF-RHF Final Energy:  -227.89320318368641
    Total Energy =                       -227.8932031836863246
    Molecular point group: c1
  Basis Set: CC-PVTZ
  Basis Set:
  Basis Set: CC-PVTZ
  Basis Set:
  @DF-RHF Final Energy:  -226.91702709750405
    Total Energy =                       -226.9170270975039898
  Basis Set: CC-PVTZ
  Basis Set:
  Basis Set: CC-PVTZ
  Basis Set:
  @DF-RHF Final Energy:  -227.03053657232590
    Total Energy =                       -227.0305365723257864
  Basis Set: CC-PVTZ
  Basis Set:
  Basis Set: CC-PVTZ
  Basis Set:
  @DF-RHF Final Energy:  -227.27130110901510
    Total Energy =                       -227.2713011090150417
  Basis Set: CC-PVTZ
  Basis Set:
  @DF-RHF Final Energy:  -227.15035556494053
    Total Energy =                       -227.1503555649405541
  @DF-RHF Final Energy:  -227.32666218483939
    Total Energy =                       -227.3266621848392788
  @DF-RHF Final Energy:  -227.47262732764915
    Total Energy =                       -227.4726273276491497
  @DF-RHF Final Energy:  -227.65639661715176
    Total Energy =                       -227.6563966171516427
  @DF-RHF Final Energy:  -227.58921481175321
    Total Energy =                       -227.5892148117532940
  @DF-RHF Final Energy:  -227.61052769044133
    Total Energy =                       -227.6105276904414154
  @DF-RHF Final Energy:  -227.64383702543961
    Total Energy =                       -227.6438370254394954
  @DF-RHF Final Energy:  -227.72565595387005
    Total Energy =                       -227.7256559538700742
  @DF-RHF Final Energy:  -226.98690721045514
    Total Energy =                       -226.9869072104551151
  @DF-RHF Final Energy:  -227.11684190960352
    Total Energy =                       -227.1168419096034370
  @DF-RHF Final Energy:  -227.37518615800786
    Total Energy =                       -227.3751861580076934
  @DF-RHF Final Energy:  -227.09817926219404
    Total Energy =                       -227.0981792621939803
  @DF-RHF Final Energy:  -227.42132933515134
    Total Energy =                       -227.4213293351512277
  @DF-RHF Final Energy:  -227.57834354429679
    Total Energy =                       -227.5783435442967857
  @DF-RHF Final Energy:  -227.62725732768425
    Total Energy =                       -227.6272573276842195
  @DF-RHF Final Energy:  -227.61554599496094
    Total Energy =                       -227.6155459949610247
  @DF-RHF Final Energy:  -227.66302117781331
    Total Energy =                       -227.6630211778132775
  @DF-RHF Final Energy:  -227.68292988260521
    Total Energy =                       -227.6829298826052081
  @DF-RHF Final Energy:  -227.69500656294758
    Total Energy =                       -227.6950065629475830
  @DF-RHF Final Energy:  -227.71783439129098
    Total Energy =                       -227.7178343912909213
  @DF-RHF Final Energy:  -227.76624251035810
    Total Energy =                       -227.7662425103581256
  @DF-RHF Final Energy:  -227.84233769816456
    Total Energy =                       -227.8423376981644424
  @DF-RHF Final Energy:  -227.88366885416886
    Total Energy =                       -227.8836688541688602
  @DF-RHF Final Energy:  -227.89078586898813
    Total Energy =                       -227.8907858689880754
  @DF-RHF Final Energy:  -227.89457510237750
    Total Energy =                       -227.8945751023775301
  @DF-RHF Final Energy:  -227.89433120861469
    Total Energy =                       -227.8943312086146307
  @DF-RHF Final Energy:  -227.89461880219173
    Total Energy =                       -227.8946188021916441
  @DF-RHF Final Energy:  -227.89473071498480
    Total Energy =                       -227.8947307149848029
  Basis Set: CC-PVTZ
  Basis Set:
  @DF-RHF Final Energy:  -227.89473611503013
    Total Energy =                       -227.8947361150302697
  Basis Set: CC-PVTZ
  Basis Set:
  Basis Set: CC-PVTZ
  Basis Set:
  @DF-RHF Final Energy:  -227.89473946870095
    Total Energy =                       -227.8947394687008909
  Basis Set: CC-PVTZ
  Basis Set:
  Basis Set: CC-PVTZ
  Basis Set:
  @DF-RHF Final Energy:  -227.89473996960393
    Total Energy =                       -227.8947399696039611
  Basis Set: CC-PVTZ
  Basis Set:
  Charge       = 0
  Multiplicity = 1
  Basis Set: CC-PVTZ
  Basis Set:

    Orbital Energies (a.u.)
    -----------------------

    Doubly Occupied:

       1A    -20.607490     2A    -20.538270     3A    -11.377892
       4A    -11.250368     5A     -1.474362     6A     -1.376141
       7A     -1.027901     8A     -0.843631     9A     -0.723012
      10A     -0.672562    11A     -0.659226    12A     -0.604841
      13A     -0.573036    14A     -0.557062    15A     -0.483312
      16A     -0.449561

  @DF-RHF Final Energy:  -227.89474073143589

   => Energetics <=

    Nuclear Repulsion Energy =            122.6039351324932483
    One-Electron Energy =                -554.5600175964108303
    Two-Electron Energy =                 204.0613417324817078
    DFT Exchange-Correlation Energy =       0.0000000000000000
    Empirical Dispersion Energy =           0.0000000000000000
    PCM Polarization Energy =               0.0000000000000000
    EFP Energy =                            0.0000000000000000
    Total Energy =                       -227.8947407314358884
    Molecular point group: c1
  Basis Set: CC-PVTZ
  Basis Set:

  -Total Gradient:
     Atom            X                  Y                   Z
    ------   -----------------  -----------------  -----------------
       1        0.000341006955     0.001171098020     0.001551604539
       2       -0.000569221686    -0.001726753501    -0.002518225351
       3        0.000339332269     0.001210612570     0.002073174341
       4       -0.000151404587    -0.000573888403    -0.001101693730
       5        0.000003220025    -0.000091011655     0.000025192399
       6       -0.000027658840     0.000078156512     0.000040218084
       7        0.000102489325    -0.000083625895     0.000021881726
       8       -0.000037763459     0.000015412352    -0.000092152008

  **** Optimization is complete! (in 34 steps) ****
    Final optimized geometry and variables:
    Molecular point group: c1

    Geometry (in Angstrom), charge = 0, multiplicity = 1:

    H            1.206385173029    -1.190412893787     0.625224544603
    O            1.207828702480    -0.423136789897     0.080700965262
    C           -0.011009136983     0.107938591110    -0.044906978067
    C           -1.139232349554    -0.735770357014     0.491665766095
    O           -0.154194890616     1.148169782987    -0.572652089816
    H           -1.177551616062    -1.675495658772    -0.046887028731
    H           -2.070711781003    -0.209775371705     0.367719956268
    H           -0.984326648406    -0.955630540757     1.542083522681

  Mulliken Charges: (a.u.)
   Center  Symbol    Alpha    Beta     Spin     Total
       1     H     0.38911  0.38911  0.00000  0.22179
       2     O     4.14308  4.14308  0.00000 -0.28617
       3     C     2.80913  2.80913  0.00000  0.38174
       4     C     3.15376  3.15376  0.00000 -0.30752
       5     O     4.17570  4.17570  0.00000 -0.35140
       6     H     0.44467  0.44467  0.00000  0.11065
       7     H     0.43310  0.43310  0.00000  0.13380
       8     H     0.45145  0.45145  0.00000  0.09710

   Total alpha = 16.00000, Total beta = 16.00000, Total charge = -0.00000

*** Psi4 exiting successfully. Buy a developer a beer!
