                              Psi4 1.0.54 Driver

  ==> Input File <==

--------------------------------------------------------------------------
set {
	reference rhf
	basis cc-pvtz
}

set_num_threads( 4 )
memory 2 gb

molecule MOL {
0 1

H	 1.919146	 -1.394535	 -0.776306
O	 2.012307	 -0.863440	 0.000222
C	 1.050374	 0.054877	 0.000135
C	 -0.318151	 -0.570512	 0.000144
O	 1.286319	 1.213453	 -0.000040
C	 -1.454884	 0.441630	 -0.000560
H	 -0.371613	 -1.223646	 -0.864985
H	 -0.371920	 -1.222758	 0.865929
C	 -2.822577	 -0.232186	 0.000063
H	 -1.359760	 1.084704	 -0.867077
H	 -1.359641	 1.085996	 0.864983
H	 -2.954352	 -0.858985	 -0.875745
H	 -3.615886	 0.505352	 0.000019
H	 -2.953878	 -0.858359	 0.876394

	symmetry c1
}
set optking {
	frozen_dihedral = ("
		1 2 3 5
	")
}

ee,wfn = optimize('scf', return_wfn=True)
oeprop( wfn, 'DIPOLE', 'QUADRUPOLE', 'MULLIKEN_CHARGES')
f=open( 'psi4out.xyz', 'w' )
f.write( "14  " )
f.write( str(ee) + "\n" )
f.write( MOL.save_string_xyz() )
f.close()
--------------------------------------------------------------------------

    Molecular point group: c1
  Charge       = 0
  Multiplicity = 1
  Basis Set: CC-PVTZ
  Basis Set:
  @DF-RHF Final Energy:  -305.98164380650803
    Total Energy =                       -305.9816438065080320
    Molecular point group: c1
  Basis Set: CC-PVTZ
  Basis Set:
  Basis Set: CC-PVTZ
  Basis Set:
  @DF-RHF Final Energy:  -305.98304311725553
    Total Energy =                       -305.9830431172555336
  Basis Set: CC-PVTZ
  Basis Set:
  Basis Set: CC-PVTZ
  Basis Set:
  @DF-RHF Final Energy:  -305.98307799505926
    Total Energy =                       -305.9830779950594319
  Basis Set: CC-PVTZ
  Basis Set:
  Basis Set: CC-PVTZ
  Basis Set:
  @DF-RHF Final Energy:  -305.98309292445367
    Total Energy =                       -305.9830929244535582
  Basis Set: CC-PVTZ
  Basis Set:
  Basis Set: CC-PVTZ
  Basis Set:
  @DF-RHF Final Energy:  -305.98316454075842
    Total Energy =                       -305.9831645407584801
  Basis Set: CC-PVTZ
  Basis Set:
  Charge       = 0
  Multiplicity = 1
  Basis Set: CC-PVTZ
  Basis Set:

    Orbital Energies (a.u.)
    -----------------------

    Doubly Occupied:

       1A    -20.591077     2A    -20.547582     3A    -11.374201
       4A    -11.245906     5A    -11.227376     6A    -11.218867
       7A     -1.465261     8A     -1.372742     9A     -1.086563
      10A     -0.978168    11A     -0.853129    12A     -0.808685
      13A     -0.718284    14A     -0.675474    15A     -0.665190
      16A     -0.631909    17A     -0.582121    18A     -0.567896
      19A     -0.548544    20A     -0.509614    21A     -0.497958
      22A     -0.487037    23A     -0.485567    24A     -0.446890

  @DF-RHF Final Energy:  -305.98316509077642

   => Energetics <=

    Nuclear Repulsion Energy =            239.8561840032310499
    One-Electron Energy =                -892.5066212788854045
    Two-Electron Energy =                 346.6672721848781293
    DFT Exchange-Correlation Energy =       0.0000000000000000
    Empirical Dispersion Energy =           0.0000000000000000
    PCM Polarization Energy =               0.0000000000000000
    EFP Energy =                            0.0000000000000000
    Total Energy =                       -305.9831650907761968
    Molecular point group: c1
  Basis Set: CC-PVTZ
  Basis Set:

  -Total Gradient:
     Atom            X                  Y                   Z
    ------   -----------------  -----------------  -----------------
       1        0.003238239873     0.003723233155    -0.002762284080
       2       -0.004158752543    -0.004601868651     0.001318227598
       3        0.000962944711     0.000720419649     0.006323416993
       4        0.000032296334     0.000009441559     0.000070588673
       5       -0.000064224004     0.000151928711    -0.004904888750
       6        0.000000332883     0.000014922484    -0.000012695637
       7        0.000005464709     0.000000788156    -0.000023246256
       8       -0.000013918614    -0.000005546068    -0.000022533861
       9       -0.000003308643    -0.000002803883     0.000001402780
      10        0.000003302243    -0.000008992985     0.000009513756
      11        0.000000572304    -0.000000361693     0.000003287266
      12       -0.000001127279    -0.000001531455    -0.000002023273
      13       -0.000001094169    -0.000000638289    -0.000000487083
      14       -0.000000727808     0.000001009311     0.000001721875

  **** Optimization is complete! (in 6 steps) ****
    Final optimized geometry and variables:
    Molecular point group: c1

    Geometry (in Angstrom), charge = 0, multiplicity = 1:

    H            2.028510106315    -1.384952257307    -0.816060195691
    O            2.066459034309    -0.843990374149    -0.045496573991
    C            1.057557120780     0.057774604850    -0.010840861513
    C           -0.319608432605    -0.558022682423     0.013038947434
    O            1.281760282120     1.209537421395     0.015732556125
    C           -1.454266104410     0.456302193696     0.026606084435
    H           -0.403442759952    -1.218252928153    -0.847564762398
    H           -0.360559428820    -1.205874757467     0.883165708972
    C           -2.824449956753    -0.211822010440     0.056654019250
    H           -1.372657074834     1.094910713195    -0.844766806666
    H           -1.338745495641     1.104001858235     0.886737857590
    H           -2.976252447198    -0.842926404175    -0.813016038470
    H           -3.614361522399     0.529138885585     0.067331929949
    H           -2.941851153107    -0.832157520242     0.939012846204

  Mulliken Charges: (a.u.)
   Center  Symbol    Alpha    Beta     Spin     Total
       1     H     0.38927  0.38927  0.00000  0.22145
       2     O     4.16462  4.16462  0.00000 -0.32924
       3     C     2.80328  2.80328  0.00000  0.39344
       4     C     3.11550  3.11550  0.00000 -0.23100
       5     O     4.16228  4.16228  0.00000 -0.32456
       6     C     3.08169  3.08169  0.00000 -0.16337
       7     H     0.45188  0.45188  0.00000  0.09625
       8     H     0.43619  0.43619  0.00000  0.12761
       9     C     3.15014  3.15014  0.00000 -0.30029
      10     H     0.44626  0.44626  0.00000  0.10748
      11     H     0.44324  0.44324  0.00000  0.11353
      12     H     0.45640  0.45640  0.00000  0.08720
      13     H     0.44434  0.44434  0.00000  0.11131
      14     H     0.45491  0.45491  0.00000  0.09018

   Total alpha = 24.00000, Total beta = 24.00000, Total charge = -0.00000

*** Psi4 exiting successfully. Buy a developer a beer!
