                              Psi4 1.0.54 Driver

  ==> Input File <==

--------------------------------------------------------------------------
set {
	reference rhf
	basis cc-pvtz
}

set_num_threads( 4 )
memory 2 gb

molecule MOL {
0 1

H	 1.372921	 -2.786359	 -1.368619
C	 1.284351	 -1.716370	 -1.213493
C	 0.191197	 -1.421130	 -0.195479
H	 1.049461	 -1.249478	 -2.162049
H	 2.252454	 -1.351371	 -0.893672
N	 0.000297	 0.000045	 0.046090
H	 -0.735881	 -1.831082	 -0.571753
H	 0.399571	 -1.951772	 0.737757
C	 -1.359159	 0.315706	 0.454404
C	 0.993924	 0.546662	 0.956276
C	 -2.416729	 -0.286720	 -0.460525
H	 -1.478729	 1.390261	 0.442008
H	 -1.539692	 0.003361	 1.486761
C	 1.267932	 2.026983	 0.728222
H	 1.920912	 0.008781	 0.813322
H	 0.704490	 0.378763	 1.997405
H	 -2.285276	 0.073129	 -1.473515
H	 -2.371743	 -1.368476	 -0.483209
H	 -3.408658	 -0.007405	 -0.121593
H	 1.621664	 2.191601	 -0.282067
H	 0.383977	 2.635255	 0.874527
H	 2.025589	 2.378868	 1.420281

	symmetry c1
}
set optking {
	frozen_dihedral = ("
		3 6 9 11
	")
}

ee,wfn = optimize('scf', return_wfn=True)
oeprop( wfn, 'DIPOLE', 'QUADRUPOLE', 'MULLIKEN_CHARGES')
f=open( 'psi4out.xyz', 'w' )
f.write( "22  " )
f.write( str(ee) + "\n" )
f.write( MOL.save_string_xyz() )
f.close()
--------------------------------------------------------------------------

    Molecular point group: c1
  Charge       = 0
  Multiplicity = 1
  Basis Set: CC-PVTZ
  Basis Set:
  @DF-RHF Final Energy:  -290.46991118857130
    Total Energy =                       -290.4699111885713023
    Molecular point group: c1
  Basis Set: CC-PVTZ
  Basis Set:
  Basis Set: CC-PVTZ
  Basis Set:
  @DF-RHF Final Energy:  -289.91386461433177
    Total Energy =                       -289.9138646143319988
  Basis Set: CC-PVTZ
  Basis Set:
  Basis Set: CC-PVTZ
  Basis Set:
  @DF-RHF Final Energy:  -290.11159232731114
    Total Energy =                       -290.1115923273110297
  Basis Set: CC-PVTZ
  Basis Set:
  Basis Set: CC-PVTZ
  Basis Set:
  @DF-RHF Final Energy:  -290.34321812022102
    Total Energy =                       -290.3432181202210813
  Basis Set: CC-PVTZ
  Basis Set:
  @DF-RHF Final Energy:  -290.46673749487343
    Total Energy =                       -290.4667374948735414
  @DF-RHF Final Energy:  -290.47218705962456
    Total Energy =                       -290.4721870596248436
  @DF-RHF Final Energy:  -290.47352013863707
    Total Energy =                       -290.4735201386371273
  @DF-RHF Final Energy:  -290.47378837043624
    Total Energy =                       -290.4737883704364094
  @DF-RHF Final Energy:  -290.47383986025278
    Total Energy =                       -290.4738398602525535
  Basis Set: CC-PVTZ
  Basis Set:
  @DF-RHF Final Energy:  -290.47386784017192
    Total Energy =                       -290.4738678401720335
  Basis Set: CC-PVTZ
  Basis Set:
  Basis Set: CC-PVTZ
  Basis Set:
  @DF-RHF Final Energy:  -290.47387015481155
    Total Energy =                       -290.4738701548112658
  Basis Set: CC-PVTZ
  Basis Set:
  Basis Set: CC-PVTZ
  Basis Set:
  @DF-RHF Final Energy:  -290.47387132995550
    Total Energy =                       -290.4738713299551591
  Basis Set: CC-PVTZ
  Basis Set:
  Charge       = 0
  Multiplicity = 1
  Basis Set: CC-PVTZ
  Basis Set:

    Orbital Energies (a.u.)
    -----------------------

    Doubly Occupied:

       1A    -15.532527     2A    -11.238950     3A    -11.237508
       4A    -11.237371     5A    -11.207560     6A    -11.203407
       7A    -11.203272     8A     -1.224774     9A     -1.025210
      10A     -1.024187    11A     -0.958196    12A     -0.853954
      13A     -0.845093    14A     -0.765538    15A     -0.649363
      16A     -0.638734    17A     -0.633436    18A     -0.595309
      19A     -0.592110    20A     -0.548130    21A     -0.530453
      22A     -0.522718    23A     -0.517588    24A     -0.500567
      25A     -0.492241    26A     -0.486157    27A     -0.463425
      28A     -0.461637    29A     -0.340069

  @DF-RHF Final Energy:  -290.47387104325850

   => Energetics <=

    Nuclear Repulsion Energy =            337.7799046062660295
    One-Electron Energy =               -1061.4485815664424990
    Two-Electron Energy =                 433.1948059169184262
    DFT Exchange-Correlation Energy =       0.0000000000000000
    Empirical Dispersion Energy =           0.0000000000000000
    PCM Polarization Energy =               0.0000000000000000
    EFP Energy =                            0.0000000000000000
    Total Energy =                       -290.4738710432581001
    Molecular point group: c1
  Basis Set: CC-PVTZ
  Basis Set:

  -Total Gradient:
     Atom            X                  Y                   Z
    ------   -----------------  -----------------  -----------------
       1        0.000032214609     0.000042861265    -0.000019920980
       2       -0.000117542355    -0.000103597858     0.000011766280
       3       -0.001853729812     0.001994126041    -0.002200712521
       4        0.000002221161    -0.000026986996     0.000022291364
       5        0.000003217139     0.000014685452     0.000028165164
       6        0.002712074629    -0.004370619745     0.003404032492
       7       -0.000032724529    -0.000037975073    -0.000045007487
       8       -0.000010387150     0.000033013897    -0.000042134637
       9       -0.000683051707     0.005497616994    -0.001713308789
      10        0.000012295318     0.000174430557    -0.000001605256
      11       -0.000083870425    -0.003203887805     0.000504926091
      12        0.000142517244    -0.000052938668     0.000016582743
      13       -0.000085701455     0.000069462670    -0.000063056534
      14       -0.000014302844    -0.000036634532     0.000040767109
      15       -0.000011408611    -0.000004463600     0.000066147668
      16        0.000009214672     0.000045236310    -0.000027239341
      17        0.000024229913    -0.000077499114     0.000085690573
      18       -0.000005929054     0.000052585907     0.000003741491
      19       -0.000007341648     0.000002926442    -0.000040238011
      20       -0.000013562022     0.000000743967     0.000005996167
      21       -0.000004501992    -0.000023976828    -0.000044517906
      22       -0.000013931084     0.000010890719     0.000007634318

  **** Optimization is complete! (in 13 steps) ****
    Final optimized geometry and variables:
    Molecular point group: c1

    Geometry (in Angstrom), charge = 0, multiplicity = 1:

    H            0.250579546266    -1.825918413339    -2.833099518685
    C            0.458789376123    -0.955713948486    -2.219811894039
    C           -0.173472535089    -1.126596733391    -0.843570221422
    H            0.049727002161    -0.082402600238    -2.712834891901
    H            1.534151345262    -0.840827150079    -2.174837057376
    N            0.010601198075     0.029327505099     0.015391543002
    H           -1.228852525335    -1.284699763886    -0.992695803139
    H            0.209076406439    -2.039192444733    -0.375125604430
    C           -0.992166904096     0.209869432465     1.051831053239
    C            1.356390531829     0.132306249955     0.550752708068
    C           -2.441616058705     0.146806218127     0.586275097709
    H           -0.826252068824     1.180003710207     1.498537250040
    H           -0.859102046722    -0.522925366674     1.856054160387
    C            1.787085220352     1.558516264845     0.871226561577
    H            2.045676239842    -0.265037261365    -0.179781436433
    H            1.466782808864    -0.491318477886     1.443006208431
    H           -2.599091865796     0.772086107362    -0.284950709703
    H           -2.764516053112    -0.857815392403     0.350218127064
    H           -3.083332267911     0.510527467963     1.380561173941
    H            1.692132555169     2.186744710424    -0.006042960345
    H            1.201234730305     2.000255302361     1.666741907213
    H            2.823908909807     1.567539613783     1.189646846310

  Mulliken Charges: (a.u.)
   Center  Symbol    Alpha    Beta     Spin     Total
       1     H     0.45260  0.45260  0.00000  0.09480
       2     C     3.14342  3.14342  0.00000 -0.28684
       3     C     3.03881  3.03881  0.00000 -0.07762
       4     H     0.45191  0.45191  0.00000  0.09618
       5     H     0.45541  0.45541  0.00000  0.08917
       6     N     3.62002  3.62002  0.00000 -0.24003
       7     H     0.44875  0.44875  0.00000  0.10250
       8     H     0.46753  0.46753  0.00000  0.06495
       9     C     3.02906  3.02906  0.00000 -0.05812
      10     C     3.04412  3.04412  0.00000 -0.08823
      11     C     3.15777  3.15777  0.00000 -0.31553
      12     H     0.45380  0.45380  0.00000  0.09240
      13     H     0.47255  0.47255  0.00000  0.05491
      14     C     3.14390  3.14390  0.00000 -0.28781
      15     H     0.44863  0.44863  0.00000  0.10273
      16     H     0.46400  0.46400  0.00000  0.07201
      17     H     0.44915  0.44915  0.00000  0.10169
      18     H     0.45307  0.45307  0.00000  0.09385
      19     H     0.44670  0.44670  0.00000  0.10660
      20     H     0.45109  0.45109  0.00000  0.09783
      21     H     0.45560  0.45560  0.00000  0.08881
      22     H     0.45212  0.45212  0.00000  0.09576

   Total alpha = 29.00000, Total beta = 29.00000, Total charge = -0.00000

*** Psi4 exiting successfully. Buy a developer a beer!
