  ==> Input File <==

--------------------------------------------------------------------------
set {
	reference rhf
	basis 6-31G*
}

set_num_threads( 4 )
memory 2 gb

molecule MOL {
0 1

H	 -2.698709	 -0.000305	 0.034435
C	 -1.693833	 0.000034	 0.434417
O	 -0.828952	 -0.000968	 -0.659236
H	 -1.574200	 0.882896	 1.055746
H	 -1.574147	 -0.881698	 1.057355
C	 0.429480	 0.617584	 -0.524161
C	 0.319230	 2.120921	 -0.277708
C	 1.315219	 -0.076585	 0.508580
H	 0.880651	 0.473377	 -1.498677
H	 -0.355648	 2.571606	 -0.997410
H	 1.293468	 2.587130	 -0.386082
H	 -0.041815	 2.348405	 0.720321
H	 1.329134	 -1.146929	 0.333577
H	 2.332854	 0.293914	 0.433643
H	 0.977894	 0.100510	 1.524794

	symmetry c1
}
set optking {
	frozen_dihedral = ("
		6 3 2 1
	")
}

ee = optimize('scf')
oeprop('DIPOLE', 'QUADRUPOLE', 'MULLIKEN_CHARGES')
f=open( 'psi4out.xyz', 'w' )
f.write( "15  " )
f.write( str(ee) + "\n" )
f.write( MOL.save_string_xyz() )
f.close()
--------------------------------------------------------------------------

    Molecular point group: c1
  Charge       = 0
  Multiplicity = 1
  Basis Set: 6-31G*
  Basis Set:
  @DF-RHF Final Energy:  -232.13631667901683
    Total Energy =                       -232.1363166790164883
    Molecular point group: c1
  Basis Set: 6-31G*
  Basis Set:
  Basis Set: 6-31G*
  Basis Set:
  @DF-RHF Final Energy:  -232.13594380665720
    Total Energy =                       -232.1359438066572238
  Basis Set: 6-31G*
  Basis Set:
  Basis Set: 6-31G*
  Basis Set:
  @DF-RHF Final Energy:  -232.13670352132596
    Total Energy =                       -232.1367035213258987
  Basis Set: 6-31G*
  Basis Set:
  Basis Set: 6-31G*
  Basis Set:
  @DF-RHF Final Energy:  -232.13673118714414
    Total Energy =                       -232.1367311871439938
  Basis Set: 6-31G*
  Basis Set:
  Basis Set: 6-31G*
  Basis Set:
  @DF-RHF Final Energy:  -232.13673383882559
    Total Energy =                       -232.1367338388257622
  Basis Set: 6-31G*
  Basis Set:
  Charge       = 0
  Multiplicity = 1
  Basis Set: 6-31G*
  Basis Set:

    Orbital Energies (a.u.)
    -----------------------

    Doubly Occupied:

       1A    -20.547107     2A    -11.274620     3A    -11.261430
       4A    -11.211301     5A    -11.209755     6A     -1.369347
       7A     -1.050085     8A     -0.940140     9A     -0.930989
      10A     -0.781450    11A     -0.675200    12A     -0.639970
      13A     -0.632385    14A     -0.570279    15A     -0.564096
      16A     -0.552548    17A     -0.536597    18A     -0.499816
      19A     -0.497430    20A     -0.442474    21A     -0.404699

  @DF-RHF Final Energy:  -232.13673446236871

   => Energetics <=

    Nuclear Repulsion Energy =            198.7880716614569963
    One-Electron Energy =                -708.6661763185582004
    Two-Electron Energy =                 277.7413701947327809
    DFT Exchange-Correlation Energy =       0.0000000000000000
    Empirical Dispersion Energy =           0.0000000000000000
    PCM Polarization Energy =               0.0000000000000000
    EFP Energy =                            0.0000000000000000
    Total Energy =                       -232.1367344623683948
    Molecular point group: c1
  Basis Set: 6-31G*
  Basis Set:

  -Total Gradient:
     Atom            X                  Y                   Z
    ------   -----------------  -----------------  -----------------
       1        0.000041521853     0.001949234383     0.000193104013
       2       -0.000353001720    -0.001737404942    -0.000426713098
       3        0.000959815164    -0.001730355470     0.000581573914
       4        0.000036785228     0.000035451094     0.000017274137
       5       -0.000022319754     0.000019468606     0.000003177301
       6       -0.000676074704     0.001441514409    -0.000402627580
       7        0.000024083336    -0.000006999381     0.000010327239
       8       -0.000001079128     0.000015938911     0.000017691812
       9        0.000020707044     0.000016399603    -0.000006626158
      10        0.000000933349    -0.000001154314    -0.000002620873
      11       -0.000005844789     0.000002352315     0.000004165275
      12       -0.000012474891    -0.000009405020     0.000006314061
      13        0.000004644762     0.000005985199    -0.000016398786
      14       -0.000013061421     0.000003526711     0.000001819113
      15       -0.000004634328    -0.000004552101     0.000019539631

  **** Optimization is complete! (in 6 steps) ****
    Final optimized geometry and variables:
    Molecular point group: c1

    Geometry (in Angstrom), charge = 0, multiplicity = 1:

    H           -2.583749625925    -0.524676704652     0.206366075836
    C           -1.557708460188    -0.577713667549     0.547164651712
    O           -0.736465826585    -0.488617607594    -0.578702269957
    H           -1.401263124435     0.237109769192     1.246307305514
    H           -1.407558442155    -1.515256057070     1.074767869720
    C            0.538772208737     0.093125945726    -0.440165335338
    C            0.460283880253     1.602673235626    -0.220791448142
    C            1.390763110268    -0.610695371878     0.613613948289
    H            0.997220921609    -0.076022091059    -1.407233774421
    H           -0.174514955620     2.055458129417    -0.974311017090
    H            1.449674985383     2.043190527230    -0.297573337382
    H            0.065003508947     1.858096248922     0.757065276129
    H            1.410674828042    -1.679486771553     0.429376426990
    H            2.410721345015    -0.240803803284     0.580067875697
    H            1.014237651163    -0.444300729253     1.618299535415

  Mulliken Charges: (a.u.)
   Center  Symbol    Alpha    Beta     Spin     Total
       1     H     0.41456  0.41456  0.00000  0.17087
       2     C     3.08029  3.08029  0.00000 -0.16058
       3     O     4.31343  4.31343  0.00000 -0.62686
       4     H     0.43071  0.43071  0.00000  0.13858
       5     H     0.42584  0.42584  0.00000  0.14832
       6     C     2.91013  2.91013  0.00000  0.17974
       7     C     3.24985  3.24985  0.00000 -0.49969
       8     C     3.25366  3.25366  0.00000 -0.50733
       9     H     0.41550  0.41550  0.00000  0.16900
      10     H     0.41137  0.41137  0.00000  0.17726
      11     H     0.42066  0.42066  0.00000  0.15869
      12     H     0.42196  0.42196  0.00000  0.15608
      13     H     0.41179  0.41179  0.00000  0.17642
      14     H     0.41884  0.41884  0.00000  0.16233
      15     H     0.42142  0.42142  0.00000  0.15717

   Total alpha = 21.00000, Total beta = 21.00000, Total charge = -0.00000
