  ==> Input File <==

--------------------------------------------------------------------------
set {
	reference rhf
	basis 6-31G*
}

set_num_threads( 1 )
memory 2 gb

molecule MOL {
0 1

H	 2.176868	 -0.646004	 -0.217325
O	 1.337496	 -0.537251	 0.205931
C	 0.702312	 0.627605	 -0.264544
C	 -0.714990	 0.596302	 0.266387
H	 0.682322	 0.642550	 -1.350929
H	 1.215941	 1.520383	 0.085680
O	 -1.405996	 -0.526611	 -0.195820
H	 -1.257453	 1.468809	 -0.075599
H	 -0.688972	 0.618407	 1.353696
H	 -2.158255	 -0.220999	 -0.686453

	symmetry c1
}
set optking {
	frozen_dihedral = ("
		5 3 4 7
	")
}

ee = energy('scf')
oeprop('DIPOLE', 'QUADRUPOLE', 'MULLIKEN_CHARGES')
f=open( 'psi4out.xyz', 'w' )
f.write( "10  " )
f.write( str(ee) + "\n" )
f.write( MOL.save_string_xyz() )
f.close()
--------------------------------------------------------------------------

    Molecular point group: c1

    Geometry (in Angstrom), charge = 0, multiplicity = 1:

       Center              X                  Y                   Z               Mass
    ------------   -----------------  -----------------  -----------------  -----------------
           H          2.197461716905    -0.663414983917    -0.205814715607     1.007825032070
           O          1.358089716905    -0.554661983917     0.217441284393    15.994914619560
           C          0.722905716905     0.610194016083    -0.253033715607    12.000000000000
           C         -0.694396283095     0.578891016083     0.277897284393    12.000000000000
           H          0.702915716905     0.625139016083    -1.339418715607     1.007825032070
           H          1.236534716905     1.502972016083     0.097190284393     1.007825032070
           O         -1.385402283095    -0.544021983917    -0.184309715607    15.994914619560
           H         -1.236859283095     1.451398016083    -0.064088715607     1.007825032070
           H         -0.668378283095     0.600996016083     1.365206284393     1.007825032070
           H         -2.137661283095    -0.238409983917    -0.674942715607     1.007825032070

  Charge       = 0
  Multiplicity = 1
  Basis Set: 6-31G*
  Basis Set:

    Orbital Energies (a.u.)
    -----------------------

    Doubly Occupied:

       1A    -20.551450     2A    -20.550993     3A    -11.270534
       4A    -11.269817     5A     -1.370839     6A     -1.347966
       7A     -0.999478     8A     -0.833972     9A     -0.723042
      10A     -0.680333    11A     -0.645980    12A     -0.592996
      13A     -0.573784    14A     -0.514445    15A     -0.490001
      16A     -0.440481    17A     -0.431512

  @DF-RHF Final Energy:  -228.91509098379157

   => Energetics <=

    Nuclear Repulsion Energy =            133.7665259584319415
    One-Electron Energy =                -578.7880060443778802
    Two-Electron Energy =                 216.1063891021545658
    DFT Exchange-Correlation Energy =       0.0000000000000000
    Empirical Dispersion Energy =           0.0000000000000000
    PCM Polarization Energy =               0.0000000000000000
    EFP Energy =                            0.0000000000000000
    Total Energy =                       -228.9150909837913730

  Mulliken Charges: (a.u.)
   Center  Symbol    Alpha    Beta     Spin     Total
       1     H     0.28033  0.28033  0.00000  0.43934
       2     O     4.36543  4.36543  0.00000 -0.73086
       3     C     2.99734  2.99734  0.00000  0.00532
       4     C     3.00228  3.00228  0.00000 -0.00456
       5     H     0.43054  0.43054  0.00000  0.13891
       6     H     0.43194  0.43194  0.00000  0.13613
       7     O     4.36192  4.36192  0.00000 -0.72384
       8     H     0.43414  0.43414  0.00000  0.13172
       9     H     0.41565  0.41565  0.00000  0.16871
      10     H     0.28044  0.28044  0.00000  0.43913

   Total alpha = 17.00000, Total beta = 17.00000, Total charge =  0.00000
