                              Psi4 1.0.54 Driver

  ==> Input File <==

--------------------------------------------------------------------------
set {
	reference rhf
	basis cc-pvtz
}

set_num_threads( 4 )
memory 2 gb

molecule MOL {
0 1

O	 -1.278239	 1.034789	 -0.784693
C	 -1.204115	 0.062668	 -0.112312
C	 -2.386398	 -0.667698	 0.460323
O	 -0.068058	 -0.518372	 0.226882
H	 -2.382952	 -1.693172	 0.114333
H	 -3.296656	 -0.175702	 0.158400
H	 -2.312537	 -0.685191	 1.540100
C	 1.169086	 0.037484	 -0.230612
C	 0.919620	 0.520255	 -1.645466
C	 2.266919	 -1.007497	 -0.144682
H	 1.413697	 0.872378	 0.408298
H	 0.128005	 1.258331	 -1.663884
H	 1.818587	 0.972094	 -2.047227
H	 0.633693	 -0.304117	 -2.287800
H	 3.201804	 -0.591973	 -0.502215
H	 2.409974	 -1.331075	 0.876827
H	 2.020285	 -1.868684	 -0.755265

	symmetry c1
}
set optking {
	frozen_dihedral = ("
		11 8 4 2
	")
}

ee,wfn = optimize('scf', return_wfn=True)
oeprop( wfn, 'DIPOLE', 'QUADRUPOLE', 'MULLIKEN_CHARGES')
f=open( 'psi4out.xyz', 'w' )
f.write( "17  " )
f.write( str(ee) + "\n" )
f.write( MOL.save_string_xyz() )
f.close()
--------------------------------------------------------------------------

    Molecular point group: c1
  Charge       = 0
  Multiplicity = 1
  Basis Set: CC-PVTZ
  Basis Set:
  @DF-RHF Final Energy:  -345.00965536284440
    Total Energy =                       -345.0096553628441143
    Molecular point group: c1
  Basis Set: CC-PVTZ
  Basis Set:
  Basis Set: CC-PVTZ
  Basis Set:
  @DF-RHF Final Energy:  -345.03172428259057
    Total Energy =                       -345.0317242825908011
  Basis Set: CC-PVTZ
  Basis Set:
  Basis Set: CC-PVTZ
  Basis Set:
  @DF-RHF Final Energy:  -345.03563427566343
    Total Energy =                       -345.0356342756637105
  Basis Set: CC-PVTZ
  Basis Set:
  Basis Set: CC-PVTZ
  Basis Set:
  @DF-RHF Final Energy:  -344.87697250567720
    Total Energy =                       -344.8769725056771449
  Basis Set: CC-PVTZ
  Basis Set:
  @DF-RHF Final Energy:  -344.98575396279767
    Total Energy =                       -344.9857539627974461
  @DF-RHF Final Energy:  -344.88401752434606
    Total Energy =                       -344.8840175243459498
  @DF-RHF Final Energy:  -345.01603831908028
    Total Energy =                       -345.0160383190800530
  @DF-RHF Final Energy:  -345.03118043215039
    Total Energy =                       -345.0311804321502791
  @DF-RHF Final Energy:  -345.03320560029130
    Total Energy =                       -345.0332056002913532
  @DF-RHF Final Energy:  -345.03572528348479
    Total Energy =                       -345.0357252834846804
  @DF-RHF Final Energy:  -345.03681460037973
    Total Energy =                       -345.0368146003798415
  @DF-RHF Final Energy:  -345.03720392306019
    Total Energy =                       -345.0372039230603036
  @DF-RHF Final Energy:  -345.03724043211162
    Total Energy =                       -345.0372404321119006
  @DF-RHF Final Energy:  -345.03724706814364
    Total Energy =                       -345.0372470681435288
  @DF-RHF Final Energy:  -345.03724960739396
    Total Energy =                       -345.0372496073937896
  @DF-RHF Final Energy:  -345.03725281439716
    Total Energy =                       -345.0372528143973341
  Basis Set: CC-PVTZ
  Basis Set:
  @DF-RHF Final Energy:  -345.03725445322436
    Total Energy =                       -345.0372544532242500
  Basis Set: CC-PVTZ
  Basis Set:
  Basis Set: CC-PVTZ
  Basis Set:
  @DF-RHF Final Energy:  -345.03725270233394
    Total Energy =                       -345.0372527023343991
  Basis Set: CC-PVTZ
  Basis Set:
  Basis Set: CC-PVTZ
  Basis Set:
  @DF-RHF Final Energy:  -345.03725477608521
    Total Energy =                       -345.0372547760852626
  Basis Set: CC-PVTZ
  Basis Set:
  Charge       = 0
  Multiplicity = 1
  Basis Set: CC-PVTZ
  Basis Set:

    Orbital Energies (a.u.)
    -----------------------

    Doubly Occupied:

       1A    -20.590097     2A    -20.530327     3A    -11.366619
       4A    -11.293302     5A    -11.229437     6A    -11.217326
       7A    -11.211772     8A     -1.465396     9A     -1.364625
      10A     -1.080618    11A     -1.004686    12A     -0.947253
      13A     -0.856820    14A     -0.754507    15A     -0.693607
      16A     -0.680279    17A     -0.660520    18A     -0.616668
      19A     -0.586608    20A     -0.579414    21A     -0.551718
      22A     -0.550704    23A     -0.543311    24A     -0.519405
      25A     -0.502720    26A     -0.485898    27A     -0.450120
      28A     -0.433644

  @DF-RHF Final Energy:  -345.03725408998753

   => Energetics <=

    Nuclear Repulsion Energy =            324.3503058639478240
    One-Electron Energy =               -1113.2403184906843308
    Two-Electron Energy =                 443.8527585367493202
    DFT Exchange-Correlation Energy =       0.0000000000000000
    Empirical Dispersion Energy =           0.0000000000000000
    PCM Polarization Energy =               0.0000000000000000
    EFP Energy =                            0.0000000000000000
    Total Energy =                       -345.0372540899871865
    Molecular point group: c1
  Basis Set: CC-PVTZ
  Basis Set:

  -Total Gradient:
     Atom            X                  Y                   Z
    ------   -----------------  -----------------  -----------------
       1       -0.000078554406     0.000074206753    -0.000009277859
       2        0.000425140974     0.001776195626    -0.005848760878
       3        0.000007196897     0.000028231294    -0.000006378936
       4        0.000819334645    -0.003579963553     0.008609986748
       5        0.000000148416    -0.000003257016     0.000021575715
       6        0.000007343788     0.000006975517    -0.000001239866
       7        0.000007009824    -0.000013756465    -0.000001036310
       8       -0.006700427537     0.005247832584    -0.002968830191
       9        0.000017482283    -0.000058813045    -0.000085239087
      10       -0.000052884153     0.000001045460    -0.000111836616
      11        0.005569163955    -0.003451654956     0.000384572599
      12       -0.000015185937     0.000008342058     0.000006046297
      13       -0.000013295310    -0.000011903902    -0.000003351116
      14       -0.000000180287     0.000004904727     0.000005720355
      15       -0.000006046401    -0.000003572667    -0.000014445781
      16        0.000011705992    -0.000023796890     0.000009166112
      17        0.000002047263    -0.000001015525     0.000013328814

  **** Optimization is complete! (in 20 steps) ****
    Final optimized geometry and variables:
    Molecular point group: c1

    Geometry (in Angstrom), charge = 0, multiplicity = 1:

    O           -1.755977275719     0.253241166216     0.399050579288
    C           -1.039755193847    -0.591303625700    -0.018840720099
    C           -1.519376020827    -1.854878865205    -0.678939168569
    O            0.277716805778    -0.566969356222     0.055127930336
    H           -1.168812699174    -1.881951421286    -1.702958555558
    H           -2.596511938202    -1.888107890725    -0.656443822971
    H           -1.106202889262    -2.714532657388    -0.168042614699
    C            1.023113882892     0.596292587476     0.440556832802
    C            0.553423925991     1.886903493016    -0.208140413415
    C            2.455258533340     0.266544494068     0.050505874581
    H            0.987834064747     0.657623716004     1.521384954463
    H           -0.408589055868     2.204875937108     0.153708640965
    H            1.281260507404     2.660767609590     0.005521357464
    H            0.500658587941     1.768344265858    -1.285197232174
    H            3.124181677357     1.044229231909     0.398310450896
    H            2.762204435387    -0.672997492698     0.491157918128
    H            2.550272332656     0.186428646334    -1.025945325242

  Mulliken Charges: (a.u.)
   Center  Symbol    Alpha    Beta     Spin     Total
       1     O     4.19935  4.19935  0.00000 -0.39870
       2     C     2.80687  2.80687  0.00000  0.38626
       3     C     3.13806  3.13806  0.00000 -0.27612
       4     O     4.16049  4.16049  0.00000 -0.32099
       5     H     0.44758  0.44758  0.00000  0.10484
       6     H     0.43850  0.43850  0.00000  0.12300
       7     H     0.44479  0.44479  0.00000  0.11042
       8     C     2.92916  2.92916  0.00000  0.14169
       9     C     3.16395  3.16395  0.00000 -0.32790
      10     C     3.13839  3.13839  0.00000 -0.27678
      11     H     0.44893  0.44893  0.00000  0.10214
      12     H     0.42614  0.42614  0.00000  0.14773
      13     H     0.44974  0.44974  0.00000  0.10053
      14     H     0.45329  0.45329  0.00000  0.09343
      15     H     0.45525  0.45525  0.00000  0.08950
      16     H     0.44607  0.44607  0.00000  0.10787
      17     H     0.45345  0.45345  0.00000  0.09310

   Total alpha = 28.00000, Total beta = 28.00000, Total charge = -0.00000

*** Psi4 exiting successfully. Buy a developer a beer!
