                              Psi4 1.0.54 Driver

  ==> Input File <==

--------------------------------------------------------------------------
set {
	reference rhf
	basis cc-pvtz
}

set_num_threads( 4 )
memory 2 gb

molecule MOL {
0 1

H	 1.104341	 1.750168	 0.534412
O	 0.289970	 1.270756	 0.555151
C	 0.489979	 0.078084	 0.002623
C	 -0.763662	 -0.754014	 0.000816
O	 1.543981	 -0.253728	 -0.417961
C	 -2.038001	 0.074705	 -0.000833
H	 -0.712945	 -1.405886	 -0.864342
H	 -0.715137	 -1.405770	 0.866182
H	 -2.087267	 0.710831	 -0.874232
H	 -2.903419	 -0.576199	 -0.001922
H	 -2.089467	 0.710909	 0.872389

	symmetry c1
}
set optking {
	frozen_dihedral = ("
		2 3 4 7
	")
}

ee,wfn = optimize('scf', return_wfn=True)
oeprop( wfn, 'DIPOLE', 'QUADRUPOLE', 'MULLIKEN_CHARGES')
f=open( 'psi4out.xyz', 'w' )
f.write( "11  " )
f.write( str(ee) + "\n" )
f.write( MOL.save_string_xyz() )
f.close()
--------------------------------------------------------------------------

    Molecular point group: c1
  Charge       = 0
  Multiplicity = 1
  Basis Set: CC-PVTZ
  Basis Set:
  @DF-RHF Final Energy:  -266.95006653772288
    Total Energy =                       -266.9500665377228756
    Molecular point group: c1
  Basis Set: CC-PVTZ
  Basis Set:
  Basis Set: CC-PVTZ
  Basis Set:
  @DF-RHF Final Energy:  -266.95069714899296
    Total Energy =                       -266.9506971489927878
  Basis Set: CC-PVTZ
  Basis Set:
  Basis Set: CC-PVTZ
  Basis Set:
  @DF-RHF Final Energy:  -266.95071625763921
    Total Energy =                       -266.9507162576393853
  Basis Set: CC-PVTZ
  Basis Set:
  Basis Set: CC-PVTZ
  Basis Set:
  @DF-RHF Final Energy:  -266.95082570439587
    Total Energy =                       -266.9508257043956974
  Basis Set: CC-PVTZ
  Basis Set:
  Basis Set: CC-PVTZ
  Basis Set:
  @DF-RHF Final Energy:  -266.95085681949888
    Total Energy =                       -266.9508568194987674
  Basis Set: CC-PVTZ
  Basis Set:
  Basis Set: CC-PVTZ
  Basis Set:
  @DF-RHF Final Energy:  -266.95087823061715
    Total Energy =                       -266.9508782306170360
  Basis Set: CC-PVTZ
  Basis Set:
  Charge       = 0
  Multiplicity = 1
  Basis Set: CC-PVTZ
  Basis Set:

    Orbital Energies (a.u.)
    -----------------------

    Doubly Occupied:

       1A    -20.607320     2A    -20.538155     3A    -11.374659
       4A    -11.243068     5A    -11.224083     6A     -1.479601
       7A     -1.368962     8A     -1.067744     9A     -0.911202
      10A     -0.825748    11A     -0.705960    12A     -0.680490
      13A     -0.659787    14A     -0.602421    15A     -0.590522
      16A     -0.554726    17A     -0.525674    18A     -0.515611
      19A     -0.477410    20A     -0.443391

  @DF-RHF Final Energy:  -266.95088253006065

   => Energetics <=

    Nuclear Repulsion Energy =            180.4156298211517537
    One-Electron Energy =                -721.9399568321713332
    Two-Electron Energy =                 274.5734444809589263
    DFT Exchange-Correlation Energy =       0.0000000000000000
    Empirical Dispersion Energy =           0.0000000000000000
    PCM Polarization Energy =               0.0000000000000000
    EFP Energy =                            0.0000000000000000
    Total Energy =                       -266.9508825300605963
    Molecular point group: c1
  Basis Set: CC-PVTZ
  Basis Set:

  -Total Gradient:
     Atom            X                  Y                   Z
    ------   -----------------  -----------------  -----------------
       1       -0.000008743380    -0.000027097840     0.000002688520
       2       -0.000153086177     0.000321460605    -0.000602926349
       3        0.000132909464    -0.000256877962     0.000721202734
       4        0.000372728690    -0.000638189178     0.000342248867
       5        0.000034956076    -0.000014800562    -0.000015019847
       6       -0.000020320391     0.000011116658    -0.000029024138
       7       -0.000337284382     0.000628752532    -0.000422136207
       8       -0.000015191712    -0.000006467717     0.000003558216
       9       -0.000004241026    -0.000003109373     0.000007270782
      10       -0.000018486588    -0.000000369834     0.000000996804
      11        0.000016759425    -0.000014417324    -0.000008859380

  **** Optimization is complete! (in 7 steps) ****
    Final optimized geometry and variables:
    Molecular point group: c1

    Geometry (in Angstrom), charge = 0, multiplicity = 1:

    H            1.328223489830     1.522546524776     0.592986504641
    O            0.467293912861     1.132513486670     0.565327869714
    C            0.568833147484    -0.055653906010    -0.018891513885
    C           -0.734861881154    -0.810277911058    -0.094211247975
    O            1.601998023145    -0.472937823933    -0.416389947168
    C           -1.999776816432     0.040613138952    -0.092087079298
    H           -0.677110055457    -1.423893846312    -0.982063874960
    H           -0.735159447589    -1.488346398001     0.753683416985
    H           -2.009981956829     0.732020327906    -0.925689461875
    H           -2.869307827559    -0.598987780718    -0.178125992219
    H           -2.089953227709     0.615644872238     0.818616781336

  Mulliken Charges: (a.u.)
   Center  Symbol    Alpha    Beta     Spin     Total
       1     H     0.38174  0.38174  0.00000  0.23651
       2     O     4.15626  4.15626  0.00000 -0.31253
       3     C     2.80633  2.80633  0.00000  0.38735
       4     C     3.09415  3.09415  0.00000 -0.18831
       5     O     4.19595  4.19595  0.00000 -0.39189
       6     C     3.14287  3.14287  0.00000 -0.28575
       7     H     0.43437  0.43437  0.00000  0.13127
       8     H     0.44278  0.44278  0.00000  0.11444
       9     H     0.45007  0.45007  0.00000  0.09987
      10     H     0.44886  0.44886  0.00000  0.10228
      11     H     0.44662  0.44662  0.00000  0.10676

   Total alpha = 20.00000, Total beta = 20.00000, Total charge =  0.00000

*** Psi4 exiting successfully. Buy a developer a beer!
