                              Psi4 1.0.54 Driver

  ==> Input File <==

--------------------------------------------------------------------------
set {
	reference rhf
	basis cc-pvtz
}

set_num_threads( 4 )
memory 2 gb

molecule MOL {
0 1

H	 1.207753	 -1.500639	 -0.571808
C	 0.601666	 -0.603427	 -0.710072
N	 -0.537714	 -0.645117	 0.000000
O	 0.951121	 0.285898	 -1.419790
C	 -1.522613	 0.412524	 0.000000
H	 -0.701246	 -1.451166	 0.550931
H	 -2.150256	 0.356137	 -0.880771
H	 -1.005621	 1.357208	 0.000000
H	 -2.150256	 0.356137	 0.880771

	symmetry c1
}
set optking {
	frozen_dihedral = ("
		6 3 5 7
	")
}

ee,wfn = optimize('scf', return_wfn=True)
oeprop( wfn, 'DIPOLE', 'QUADRUPOLE', 'MULLIKEN_CHARGES')
f=open( 'psi4out.xyz', 'w' )
f.write( "9  " )
f.write( str(ee) + "\n" )
f.write( MOL.save_string_xyz() )
f.close()
--------------------------------------------------------------------------

    Molecular point group: c1
  Charge       = 0
  Multiplicity = 1
  Basis Set: CC-PVTZ
  Basis Set:
  @DF-RHF Final Energy:  -208.04328859020035
    Total Energy =                       -208.0432885902002340
    Molecular point group: c1
  Basis Set: CC-PVTZ
  Basis Set:
  Basis Set: CC-PVTZ
  Basis Set:
  @DF-RHF Final Energy:  -208.04358871341080
    Total Energy =                       -208.0435887134107702
  Basis Set: CC-PVTZ
  Basis Set:
  Basis Set: CC-PVTZ
  Basis Set:
  @DF-RHF Final Energy:  -208.04360226987410
    Total Energy =                       -208.0436022698740146
  Basis Set: CC-PVTZ
  Basis Set:
  Basis Set: CC-PVTZ
  Basis Set:
  @DF-RHF Final Energy:  -208.04365795856927
    Total Energy =                       -208.0436579585692698
  Basis Set: CC-PVTZ
  Basis Set:
  Basis Set: CC-PVTZ
  Basis Set:
  @DF-RHF Final Energy:  -208.04367361932299
    Total Energy =                       -208.0436736193229308
  Basis Set: CC-PVTZ
  Basis Set:
  Charge       = 0
  Multiplicity = 1
  Basis Set: CC-PVTZ
  Basis Set:

    Orbital Energies (a.u.)
    -----------------------

    Doubly Occupied:

       1A    -20.516764     2A    -15.584492     3A    -11.336248
       4A    -11.260361     5A     -1.393983     6A     -1.239455
       7A     -0.969788     8A     -0.809052     9A     -0.749023
      10A     -0.645940    11A     -0.629962    12A     -0.596140
      13A     -0.558951    14A     -0.537650    15A     -0.428442
      16A     -0.396782

  @DF-RHF Final Energy:  -208.04368049585628

   => Energetics <=

    Nuclear Repulsion Energy =            122.9005472077679855
    One-Electron Energy =                -526.5823881960308199
    Two-Electron Energy =                 195.6381604924066551
    DFT Exchange-Correlation Energy =       0.0000000000000000
    Empirical Dispersion Energy =           0.0000000000000000
    PCM Polarization Energy =               0.0000000000000000
    EFP Energy =                            0.0000000000000000
    Total Energy =                       -208.0436804958561652
    Molecular point group: c1
  Basis Set: CC-PVTZ
  Basis Set:

  -Total Gradient:
     Atom            X                  Y                   Z
    ------   -----------------  -----------------  -----------------
       1       -0.000061619882     0.000083940229    -0.000001494616
       2       -0.000166419878    -0.000136855875     0.000147939210
       3        0.000127186352    -0.000104844655    -0.000069470784
       4        0.000142467499     0.000153282596    -0.000168708981
       5       -0.000011207502     0.000094478450     0.000042283679
       6       -0.000009663108    -0.000008338980     0.000054523557
       7       -0.000010901752    -0.000056451595    -0.000074764661
       8        0.000062660039    -0.000019674449     0.000013115396
       9       -0.000072501770    -0.000005535720     0.000056577201

  **** Optimization is complete! (in 6 steps) ****
    Final optimized geometry and variables:
    Molecular point group: c1

    Geometry (in Angstrom), charge = 0, multiplicity = 1:

    H            1.379967907551    -1.345432555095    -0.079864579512
    C            0.740747508358    -0.469058436657    -0.201193964265
    N           -0.344826318237    -0.504223872133     0.587067718501
    O            1.011714971682     0.411850560415    -0.954669229966
    C           -1.354172421633     0.530945494849     0.559718162008
    H           -0.502146051919    -1.319778226493     1.124605911890
    H           -1.958021011367     0.478582064017    -0.338107192980
    H           -0.885475240695     1.502641118710     0.597203923200
    H           -1.995893387633     0.416604825935     1.421644689783

  Mulliken Charges: (a.u.)
   Center  Symbol    Alpha    Beta     Spin     Total
       1     H     0.46419  0.46419  0.00000  0.07163
       2     C     2.87988  2.87988  0.00000  0.24024
       3     N     3.60582  3.60582  0.00000 -0.21164
       4     O     4.21420  4.21420  0.00000 -0.42841
       5     C     3.07601  3.07601  0.00000 -0.15202
       6     H     0.41027  0.41027  0.00000  0.17945
       7     H     0.45326  0.45326  0.00000  0.09348
       8     H     0.44210  0.44210  0.00000  0.11579
       9     H     0.45426  0.45426  0.00000  0.09148

   Total alpha = 16.00000, Total beta = 16.00000, Total charge =  0.00000

*** Psi4 exiting successfully. Buy a developer a beer!
