  ==> Input File <==

--------------------------------------------------------------------------
set {
	reference rhf
	basis 6-31G*
}

set_num_threads( 4 )
memory 2 gb

molecule MOL {
0 1

H	 0.894298	 -0.509540	 1.372311
C	 -0.119668	 -0.752603	 1.072087
N	 -0.528168	 0.128977	 -0.000000
H	 -0.763104	 -0.603587	 1.931634
H	 -0.142525	 -1.812763	 0.805996
C	 0.248044	 -0.037491	 -1.209632
H	 -1.498927	 -0.008356	 -0.199485
H	 0.998722	 0.743888	 -1.266824
H	 -0.398417	 0.061950	 -2.074060
H	 0.763621	 -0.999315	 -1.275517

	symmetry c1
}
set optking {
	frozen_dihedral = ("
		2 3 6 8
	")
}

ee = optimize('scf')
oeprop('DIPOLE', 'QUADRUPOLE', 'MULLIKEN_CHARGES')
f=open( 'psi4out.xyz', 'w' )
f.write( "10  " )
f.write( str(ee) + "\n" )
f.write( MOL.save_string_xyz() )
f.close()
--------------------------------------------------------------------------

    Molecular point group: c1
  Charge       = 0
  Multiplicity = 1
  Basis Set: 6-31G*
  Basis Set:
  @DF-RHF Final Energy:  -134.23501161759424
    Total Energy =                       -134.2350116175943242
    Molecular point group: c1
  Basis Set: 6-31G*
  Basis Set:
  Basis Set: 6-31G*
  Basis Set:
  @DF-RHF Final Energy:  -134.23526718883392
    Total Energy =                       -134.2352671888339728
  Basis Set: 6-31G*
  Basis Set:
  Basis Set: 6-31G*
  Basis Set:
  @DF-RHF Final Energy:  -134.23531770546629
    Total Energy =                       -134.2353177054661728
  Basis Set: 6-31G*
  Basis Set:
  Charge       = 0
  Multiplicity = 1
  Basis Set: 6-31G*
  Basis Set:

    Orbital Energies (a.u.)
    -----------------------

    Doubly Occupied:

       1A    -15.536964     2A    -11.236021     3A    -11.235841
       4A     -1.196947     5A     -0.948078     6A     -0.853830
       7A     -0.659730     8A     -0.613078     9A     -0.589492
      10A     -0.543377    11A     -0.507609    12A     -0.505238
      13A     -0.360556

  @DF-RHF Final Energy:  -134.23531859445615

   => Energetics <=

    Nuclear Repulsion Energy =             84.4595287811778235
    One-Electron Energy =                -347.8161737515437153
    Two-Electron Energy =                 129.1213263759098027
    DFT Exchange-Correlation Energy =       0.0000000000000000
    Empirical Dispersion Energy =           0.0000000000000000
    PCM Polarization Energy =               0.0000000000000000
    EFP Energy =                            0.0000000000000000
    Total Energy =                       -134.2353185944560892
    Molecular point group: c1
  Basis Set: 6-31G*
  Basis Set:

  -Total Gradient:
     Atom            X                  Y                   Z
    ------   -----------------  -----------------  -----------------
       1       -0.000027019530     0.000023994443    -0.000042075580
       2       -0.002187091360    -0.002175823070    -0.001084784431
       3        0.002280610851     0.003684738547     0.000921714550
       4        0.000001919604    -0.000007769896     0.000032527137
       5        0.000020851092    -0.000000991994    -0.000007447215
       6        0.002576766034    -0.003951260464     0.002222093876
       7        0.000038299499     0.000012391126     0.000060466775
       8       -0.002717197285     0.002426946990    -0.002055498249
       9       -0.000001154099    -0.000009463046    -0.000019908628
      10        0.000014015193    -0.000002762636    -0.000027088236

  **** Optimization is complete! (in 4 steps) ****
    Final optimized geometry and variables:
    Molecular point group: c1

    Geometry (in Angstrom), charge = 0, multiplicity = 1:

    H            1.020857130194    -0.268673368221     1.442017329691
    C            0.010076831910    -0.512890207157     1.131942532241
    N           -0.393952051711     0.364230645040     0.053656326251
    H           -0.640201834117    -0.361916726806     1.986136838911
    H           -0.008880729424    -1.572976556824     0.867235516131
    C            0.385529023396     0.209385486889    -1.164309821716
    H           -1.360908574788     0.209518005643    -0.144714022166
    H            1.138200499438     0.987987695179    -1.240125225454
    H           -0.258940356113     0.320754103022    -2.030109369630
    H            0.873170514820    -0.761662603721    -1.240569087792

  Mulliken Charges: (a.u.)
   Center  Symbol    Alpha    Beta     Spin     Total
       1     H     0.41772  0.41772  0.00000  0.16456
       2     C     3.14530  3.14530  0.00000 -0.29060
       3     N     3.84101  3.84101  0.00000 -0.68203
       4     H     0.41743  0.41743  0.00000  0.16514
       5     H     0.43435  0.43435  0.00000  0.13130
       6     C     3.14496  3.14496  0.00000 -0.28992
       7     H     0.33153  0.33153  0.00000  0.33694
       8     H     0.41647  0.41647  0.00000  0.16706
       9     H     0.42212  0.42212  0.00000  0.15576
      10     H     0.42910  0.42910  0.00000  0.14179

   Total alpha = 13.00000, Total beta = 13.00000, Total charge =  0.00000
