  ==> Input File <==

--------------------------------------------------------------------------
set {
	reference rhf
	basis 6-31G*
}

set_num_threads( 4 )
memory 2 gb

molecule MOL {
0 1

H	 2.591676	 2.013956	 0.335017
O	 3.341076	 1.666752	 -0.126416
C	 3.569581	 0.339145	 0.272707
C	 5.048547	 0.006977	 0.437179
H	 3.061730	 0.225616	 1.221850
H	 3.105152	 -0.354498	 -0.427253
C	 5.853478	 0.090880	 -0.862019
H	 5.473902	 0.683013	 1.174346
H	 5.126643	 -0.998795	 0.846680
C	 7.321924	 -0.300525	 -0.674171
H	 5.794892	 1.102584	 -1.253667
H	 5.402801	 -0.561655	 -1.609969
C	 8.153980	 -0.315999	 -1.961720
H	 7.783267	 0.374602	 0.044309
H	 7.361441	 -1.291513	 -0.226867
C	 8.359438	 1.054547	 -2.612772
H	 9.129205	 -0.740918	 -1.733257
H	 7.691660	 -0.991075	 -2.680309
C	 9.281641	 1.002753	 -3.832730
H	 8.775656	 1.742273	 -1.877989
H	 7.402153	 1.473155	 -2.913896
C	 9.483291	 2.368470	 -4.488336
H	 10.247428	 0.598722	 -3.536923
H	 8.872372	 0.308676	 -4.563922
H	 9.922093	 3.076958	 -3.791399
H	 10.142642	 2.299051	 -5.348028
H	 8.538840	 2.783591	 -4.829000

	symmetry c1
}
set optking {
	frozen_dihedral = ("
		4 3 2 1
	")
}

ee = optimize('scf')
oeprop('DIPOLE', 'QUADRUPOLE', 'MULLIKEN_CHARGES')
f=open( 'psi4out.xyz', 'w' )
f.write( "27  " )
f.write( str(ee) + "\n" )
f.write( MOL.save_string_xyz() )
f.close()
--------------------------------------------------------------------------

    Molecular point group: c1
  Charge       = 0
  Multiplicity = 1
  Basis Set: 6-31G*
  Basis Set:
  @DF-RHF Final Energy:  -388.27911434079630
    Total Energy =                       -388.2791143407961272
    Molecular point group: c1
  Basis Set: 6-31G*
  Basis Set:
  Basis Set: 6-31G*
  Basis Set:
  @DF-RHF Final Energy:  -388.28036573909793
    Total Energy =                       -388.2803657390978742
  Basis Set: 6-31G*
  Basis Set:
  Basis Set: 6-31G*
  Basis Set:
  @DF-RHF Final Energy:  -388.28075326682813
    Total Energy =                       -388.2807532668280146
  Basis Set: 6-31G*
  Basis Set:
  Basis Set: 6-31G*
  Basis Set:
  @DF-RHF Final Energy:  -388.28075487097715
    Total Energy =                       -388.2807548709770344
  Basis Set: 6-31G*
  Basis Set:
  Basis Set: 6-31G*
  Basis Set:
  @DF-RHF Final Energy:  -388.28075578377531
    Total Energy =                       -388.2807557837750210
  Basis Set: 6-31G*
  Basis Set:
  Basis Set: 6-31G*
  Basis Set:
  @DF-RHF Final Energy:  -388.28076291337464
    Total Energy =                       -388.2807629133745877
  Basis Set: 6-31G*
  Basis Set:
  Charge       = 0
  Multiplicity = 1
  Basis Set: 6-31G*
  Basis Set:

    Orbital Energies (a.u.)
    -----------------------

    Doubly Occupied:

       1A    -20.551713     2A    -11.268046     3A    -11.211293
       4A    -11.209974     5A    -11.208527     6A    -11.207933
       7A    -11.206451     8A    -11.205093     9A    -11.203990
      10A     -1.358317    11A     -1.087128    12A     -1.055387
      13A     -1.007080    14A     -0.942128    15A     -0.878900
      16A     -0.811245    17A     -0.794433    18A     -0.770531
      19A     -0.701190    20A     -0.645594    21A     -0.639233
      22A     -0.609241    23A     -0.585785    24A     -0.581401
      25A     -0.568167    26A     -0.543775    27A     -0.537409
      28A     -0.519684    29A     -0.503730    30A     -0.495908
      31A     -0.475202    32A     -0.469048    33A     -0.459470
      34A     -0.453090    35A     -0.442177    36A     -0.430438
      37A     -0.426543

  @DF-RHF Final Energy:  -388.28076270809260

   => Energetics <=

    Nuclear Repulsion Energy =            460.0131090847347082
    One-Electron Energy =               -1438.4572370433807009
    Two-Electron Energy =                 590.1633652505537384
    DFT Exchange-Correlation Energy =       0.0000000000000000
    Empirical Dispersion Energy =           0.0000000000000000
    PCM Polarization Energy =               0.0000000000000000
    EFP Energy =                            0.0000000000000000
    Total Energy =                       -388.2807627080923112
    Molecular point group: c1
  Basis Set: 6-31G*
  Basis Set:

  -Total Gradient:
     Atom            X                  Y                   Z
    ------   -----------------  -----------------  -----------------
       1        0.000939004853     0.000356247550     0.001194732495
       2       -0.001127750813    -0.000640988595    -0.001092645564
       3        0.000317456539    -0.000171830180    -0.000790298594
       4       -0.000065756376     0.000235091042     0.000848329902
       5       -0.000060497030     0.000134210153    -0.000032779947
       6        0.000082942883     0.000074333468    -0.000032421216
       7        0.000019568749    -0.000109383094    -0.000000857462
       8       -0.000103790657     0.000007047703     0.000004954621
       9       -0.000017716570    -0.000000558863    -0.000014466598
      10       -0.000009772481     0.000070120352    -0.000063177570
      11        0.000016457779     0.000030406374    -0.000011099824
      12        0.000005068186    -0.000027424805    -0.000033493003
      13        0.000007993687     0.000032695012     0.000019983347
      14        0.000004394826     0.000023949682    -0.000026496658
      15        0.000014186850     0.000004926212    -0.000012692518
      16        0.000016928484     0.000002860663     0.000011343544
      17       -0.000011369729    -0.000038010123     0.000024309822
      18       -0.000036604959     0.000023583074     0.000005105019
      19        0.000008624607    -0.000014864651     0.000003348596
      20       -0.000003897852     0.000008134504     0.000011466677
      21        0.000012188943    -0.000000039759    -0.000010899034
      22       -0.000004080523     0.000001533718     0.000001332179
      23       -0.000001321000     0.000003425571    -0.000002169642
      24        0.000001635294    -0.000004891849    -0.000001563451
      25       -0.000000291993    -0.000001084496    -0.000000651445
      26       -0.000002708068    -0.000002040441     0.000002951320
      27       -0.000000893628     0.000002551776    -0.000002145001

  **** Optimization is complete! (in 7 steps) ****
    Final optimized geometry and variables:
    Molecular point group: c1

    Geometry (in Angstrom), charge = 0, multiplicity = 1:

    H           -3.902832259779     1.428515274735     1.788176197915
    O           -3.183198108521     0.998350684811     1.352511330703
    C           -3.085877710762    -0.338641707746     1.784879917018
    C           -1.623943564304    -0.718063727909     1.958919467440
    H           -3.608558919609    -0.471087845420     2.729180089268
    H           -3.560785770815    -0.992318887546     1.056526769701
    C           -0.814703321739    -0.624523383605     0.663902820260
    H           -1.188758068116    -0.066804310847     2.712687207102
    H           -1.577893278010    -1.733386903765     2.349613328467
    C            0.659497770791    -0.985025657306     0.865395587883
    H           -0.907941860606     0.379919069230     0.267739808161
    H           -1.249329249607    -1.293786977436    -0.077959682741
    C            1.497290852240    -0.998272553390    -0.418449491846
    H            1.105537106146    -0.291763271976     1.576867036492
    H            0.719813455846    -1.969957660747     1.324986465099
    C            1.682753403371     0.370753845880    -1.078316706988
    H            2.478383024086    -1.407177488338    -0.184613879606
    H            1.046569609575    -1.684706468500    -1.133657651721
    C            2.602166543969     0.323788008250    -2.300558015603
    H            2.092426421425     1.067928518811    -0.348604217369
    H            0.719051165696     0.774467913051    -1.377725476866
    C            2.785380522290     1.688549867456    -2.963632675937
    H            3.573886870159    -0.067308801569    -2.006183998933
    H            2.198910636080    -0.378491214452    -3.027313317837
    H            3.218348651992     2.405490008512    -2.271609860685
    H            3.442365943573     1.623010297111    -3.825623411292
    H            1.834669351647     2.090739581948    -3.302138334053

  Mulliken Charges: (a.u.)
   Center  Symbol    Alpha    Beta     Spin     Total
       1     H     0.27937  0.27937  0.00000  0.44125
       2     O     4.37208  4.37208  0.00000 -0.74416
       3     C     2.99860  2.99860  0.00000  0.00280
       4     C     3.15659  3.15659  0.00000 -0.31318
       5     H     0.43012  0.43012  0.00000  0.13976
       6     H     0.42758  0.42758  0.00000  0.14483
       7     C     3.15776  3.15776  0.00000 -0.31552
       8     H     0.41934  0.41934  0.00000  0.16132
       9     H     0.42571  0.42571  0.00000  0.14857
      10     C     3.15314  3.15314  0.00000 -0.30628
      11     H     0.40446  0.40446  0.00000  0.19109
      12     H     0.42660  0.42660  0.00000  0.14679
      13     C     3.15273  3.15273  0.00000 -0.30547
      14     H     0.42401  0.42401  0.00000  0.15199
      15     H     0.42454  0.42454  0.00000  0.15091
      16     C     3.15280  3.15280  0.00000 -0.30560
      17     H     0.42330  0.42330  0.00000  0.15339
      18     H     0.42470  0.42470  0.00000  0.15060
      19     C     3.15098  3.15098  0.00000 -0.30196
      20     H     0.42485  0.42485  0.00000  0.15029
      21     H     0.41986  0.41986  0.00000  0.16028
      22     C     3.23899  3.23899  0.00000 -0.47799
      23     H     0.42410  0.42410  0.00000  0.15179
      24     H     0.42365  0.42365  0.00000  0.15269
      25     H     0.42217  0.42217  0.00000  0.15566
      26     H     0.42042  0.42042  0.00000  0.15915
      27     H     0.42151  0.42151  0.00000  0.15697

   Total alpha = 37.00000, Total beta = 37.00000, Total charge =  0.00000
