  ==> Input File <==

--------------------------------------------------------------------------
set {
	reference rhf
	basis 6-31G*
}

set_num_threads( 4 )
memory 2 gb

molecule MOL {
0 1

O	 -0.675634	 0.839377	 -2.664669
C	 -1.250910	 0.681865	 -1.630898
C	 -0.889235	 -0.467034	 -0.705952
C	 -2.338963	 1.628539	 -1.175568
C	 0.379448	 -0.143569	 0.099626
H	 -0.713415	 -1.342256	 -1.321888
H	 -1.711363	 -0.687841	 -0.031135
C	 1.631333	 -0.777471	 -0.511575
H	 0.482768	 0.934507	 0.149241
H	 0.263088	 -0.495696	 1.123449
C	 2.915987	 -0.544314	 0.291766
H	 1.766672	 -0.399098	 -1.523130
H	 1.471257	 -1.849544	 -0.605828
C	 3.373361	 0.914346	 0.347591
H	 3.708709	 -1.142521	 -0.150311
H	 2.780642	 -0.921148	 1.303579
H	 3.506512	 1.320010	 -0.651625
H	 4.322697	 0.999599	 0.867103
H	 2.660624	 1.545032	 0.868198
H	 -3.291682	 1.105990	 -1.152473
H	 -2.406509	 2.468301	 -1.853080
H	 -2.143541	 1.982432	 -0.167414

	symmetry c1
}
set optking {
	frozen_dihedral = ("
		6 3 5 8
	")
}

ee = optimize('scf')
oeprop('DIPOLE', 'QUADRUPOLE', 'MULLIKEN_CHARGES')
f=open( 'psi4out.xyz', 'w' )
f.write( "22  " )
f.write( str(ee) + "\n" )
f.write( MOL.save_string_xyz() )
f.close()
--------------------------------------------------------------------------

    Molecular point group: c1
  Charge       = 0
  Multiplicity = 1
  Basis Set: 6-31G*
  Basis Set:
  @DF-RHF Final Energy:  -348.09405881393178
    Total Energy =                       -348.0940588139319516
    Molecular point group: c1
  Basis Set: 6-31G*
  Basis Set:
  Basis Set: 6-31G*
  Basis Set:
  @DF-RHF Final Energy:  -348.09443542382598
    Total Energy =                       -348.0944354238256437
  Basis Set: 6-31G*
  Basis Set:
  Basis Set: 6-31G*
  Basis Set:
  @DF-RHF Final Energy:  -348.09442451789266
    Total Energy =                       -348.0944245178926053
  Basis Set: 6-31G*
  Basis Set:
  Basis Set: 6-31G*
  Basis Set:
  @DF-RHF Final Energy:  -348.09455986974541
    Total Energy =                       -348.0945598697450691
  Basis Set: 6-31G*
  Basis Set:
  @DF-RHF Final Energy:  -348.09456591672694
    Total Energy =                       -348.0945659167269923
  @DF-RHF Final Energy:  -348.09458185580780
    Total Energy =                       -348.0945818558077463
  Basis Set: 6-31G*
  Basis Set:
  @DF-RHF Final Energy:  -348.09459467078443
    Total Energy =                       -348.0945946707845451
  Basis Set: 6-31G*
  Basis Set:
  Basis Set: 6-31G*
  Basis Set:
  @DF-RHF Final Energy:  -348.09459977337411
    Total Energy =                       -348.0945997733738295
  Basis Set: 6-31G*
  Basis Set:
  Basis Set: 6-31G*
  Basis Set:
  @DF-RHF Final Energy:  -348.09460204548407
    Total Energy =                       -348.0946020454838390
  Basis Set: 6-31G*
  Basis Set:
  Charge       = 0
  Multiplicity = 1
  Basis Set: 6-31G*
  Basis Set:

    Orbital Energies (a.u.)
    -----------------------

    Doubly Occupied:

       1A    -20.547457     2A    -11.324313     3A    -11.231251
       4A    -11.229027     5A    -11.228167     6A    -11.217767
       7A    -11.216907     8A    -11.209641     9A     -1.392930
      10A     -1.093215    11A     -1.042722    12A     -0.997684
      13A     -0.935801    14A     -0.858208    15A     -0.785266
      16A     -0.733960    17A     -0.659006    18A     -0.641418
      19A     -0.626170    20A     -0.609860    21A     -0.600490
      22A     -0.585802    23A     -0.554698    24A     -0.548201
      25A     -0.532217    26A     -0.519259    27A     -0.504108
      28A     -0.483477    29A     -0.467864    30A     -0.461884
      31A     -0.453602    32A     -0.395844

  @DF-RHF Final Energy:  -348.09460237616122

   => Energetics <=

    Nuclear Repulsion Energy =            378.9259657846278060
    One-Electron Energy =               -1222.6647029168066183
    Two-Electron Energy =                 495.6441347560175359
    DFT Exchange-Correlation Energy =       0.0000000000000000
    Empirical Dispersion Energy =           0.0000000000000000
    PCM Polarization Energy =               0.0000000000000000
    EFP Energy =                            0.0000000000000000
    Total Energy =                       -348.0946023761612764
    Molecular point group: c1
  Basis Set: 6-31G*
  Basis Set:

  -Total Gradient:
     Atom            X                  Y                   Z
    ------   -----------------  -----------------  -----------------
       1        0.000001802117    -0.000011271455     0.000007339250
       2        0.000002378851     0.000005663165    -0.000000301480
       3       -0.001626289806    -0.003687964811     0.003847568547
       4       -0.000012869837    -0.000002041027     0.000000040360
       5        0.000802412307     0.003659079548    -0.002599102330
       6        0.001230555501     0.002299945861    -0.002676864277
       7        0.000010649477     0.000010460904     0.000001497142
       8       -0.000380436140    -0.002273159808     0.001415508608
       9       -0.000020784536    -0.000000109434    -0.000018069159
      10       -0.000000727247    -0.000008157121    -0.000001420347
      11        0.000010966928     0.000017137499    -0.000002545544
      12       -0.000004585628     0.000008898605     0.000005694463
      13       -0.000008721964    -0.000005574788     0.000001511452
      14       -0.000007310353    -0.000015531875     0.000001246438
      15        0.000009772211     0.000003676402     0.000001702014
      16       -0.000003418414     0.000007534458    -0.000002951911
      17       -0.000009209087    -0.000007587189     0.000002434536
      18        0.000004878838    -0.000006051981     0.000000215483
      19       -0.000003699357     0.000000798789     0.000002163290
      20       -0.000000267643     0.000000791476     0.000005127800
      21        0.000002982188    -0.000002620493    -0.000000495137
      22        0.000001921592     0.000006083274     0.000009700801

  **** Optimization is complete! (in 10 steps) ****
    Final optimized geometry and variables:
    Molecular point group: c1

    Geometry (in Angstrom), charge = 0, multiplicity = 1:

    O           -1.154165944091     0.460385463686    -1.985832014507
    C           -1.640648551748     0.365765224962    -0.899709238839
    C           -1.300594563419    -0.796252628460     0.016505636314
    C           -2.600082049403     1.409082174113    -0.368778739836
    C           -0.043401747889    -0.471270838253     0.862641881520
    H           -1.105231702502    -1.645007629448    -0.627630597376
    H           -2.144973818721    -1.026098967493     0.657406180734
    C            1.235891838747    -1.056747416753     0.258171256861
    H            0.052640064369     0.603466669838     0.985377376008
    H           -0.174636467063    -0.876074025486     1.862522835073
    C            2.507861909222    -0.766565321169     1.062196520455
    H            1.353821038689    -0.687686339941    -0.757833256167
    H            1.111263875576    -2.134256036312     0.180116670984
    C            2.927929337563     0.704505580816     1.079904798795
    H            3.318999729777    -1.354207270715     0.639937991431
    H            2.378798567745    -1.119571516210     2.083694350686
    H            3.051392979923     1.086309741391     0.070420401789
    H            3.873846473770     0.827939364139     1.598139970687
    H            2.199342226099     1.331383140744     1.583710559669
    H           -3.597356668439     0.981394187025    -0.305214584479
    H           -2.620737147200     2.263727458748    -1.030594865425
    H           -2.321919001184     1.722855821523     0.632717928337

  Mulliken Charges: (a.u.)
   Center  Symbol    Alpha    Beta     Spin     Total
       1     O     4.26154  4.26154  0.00000 -0.52308
       2     C     2.74007  2.74007  0.00000  0.51987
       3     C     3.20365  3.20365  0.00000 -0.40730
       4     C     3.28905  3.28905  0.00000 -0.57810
       5     C     3.16385  3.16385  0.00000 -0.32770
       6     H     0.39906  0.39906  0.00000  0.20188
       7     H     0.41307  0.41307  0.00000  0.17385
       8     C     3.15571  3.15571  0.00000 -0.31143
       9     H     0.41581  0.41581  0.00000  0.16837
      10     H     0.41628  0.41628  0.00000  0.16744
      11     C     3.15447  3.15447  0.00000 -0.30895
      12     H     0.40903  0.40903  0.00000  0.18194
      13     H     0.42076  0.42076  0.00000  0.15847
      14     C     3.24162  3.24162  0.00000 -0.48323
      15     H     0.41883  0.41883  0.00000  0.16234
      16     H     0.42422  0.42422  0.00000  0.15156
      17     H     0.41833  0.41833  0.00000  0.16333
      18     H     0.41865  0.41865  0.00000  0.16270
      19     H     0.42232  0.42232  0.00000  0.15535
      20     H     0.40653  0.40653  0.00000  0.18695
      21     H     0.39709  0.39709  0.00000  0.20582
      22     H     0.41004  0.41004  0.00000  0.17991

   Total alpha = 32.00000, Total beta = 32.00000, Total charge =  0.00000
