                              Psi4 1.0.54 Driver

  ==> Input File <==

--------------------------------------------------------------------------
set {
	reference rhf
	basis cc-pvtz
}

set_num_threads( 4 )
memory 2 gb

molecule MOL {
0 1

H	 2.614283	 2.028610	 0.296620
O	 3.358864	 1.662087	 -0.142800
C	 3.565468	 0.338079	 0.273842
C	 2.533667	 -0.637565	 -0.272227
H	 4.548038	 0.064914	 -0.086598
H	 3.593945	 0.282242	 1.360360
C	 1.114816	 -0.402372	 0.240993
H	 2.544552	 -0.580764	 -1.356576
H	 2.850574	 -1.642962	 -0.005497
C	 0.113298	 -1.420414	 -0.302504
H	 0.796373	 0.598427	 -0.031033
H	 1.113377	 -0.446476	 1.328807
C	 -0.360668	 -2.464713	 0.709945
H	 -0.748610	 -0.893503	 -0.704631
H	 0.568946	 -1.938325	 -1.141921
C	 -1.211358	 -1.916400	 1.854244
H	 -0.938804	 -3.216139	 0.179242
H	 0.502643	 -2.983715	 1.120416
C	 -1.741747	 -3.007896	 2.780384
H	 -2.049763	 -1.359291	 1.441720
H	 -0.635242	 -1.208194	 2.442069
C	 -2.588411	 -2.463578	 3.926146
H	 -2.330767	 -3.714243	 2.201845
H	 -0.905699	 -3.570867	 3.186770
H	 -3.451142	 -1.922119	 3.552311
H	 -2.950604	 -3.263526	 4.561761
H	 -2.016046	 -1.782028	 4.546823

	symmetry c1
}
set optking {
	frozen_dihedral = ("
		14 10 7 4
	")
}

ee,wfn = optimize('scf', return_wfn=True)
oeprop( wfn, 'DIPOLE', 'QUADRUPOLE', 'MULLIKEN_CHARGES')
f=open( 'psi4out.xyz', 'w' )
f.write( "27  " )
f.write( str(ee) + "\n" )
f.write( MOL.save_string_xyz() )
f.close()
--------------------------------------------------------------------------

    Molecular point group: c1
  Charge       = 0
  Multiplicity = 1
  Basis Set: CC-PVTZ
  Basis Set:
  @DF-RHF Final Energy:  -388.42248087889254
    Total Energy =                       -388.4224808788923156
    Molecular point group: c1
  Basis Set: CC-PVTZ
  Basis Set:
  Basis Set: CC-PVTZ
  Basis Set:
  @DF-RHF Final Energy:  -388.42225021077053
    Total Energy =                       -388.4222502107713808
  Basis Set: CC-PVTZ
  Basis Set:
  Basis Set: CC-PVTZ
  Basis Set:
  @DF-RHF Final Energy:  -388.42293574555526
    Total Energy =                       -388.4229357455552645
  Basis Set: CC-PVTZ
  Basis Set:
  Basis Set: CC-PVTZ
  Basis Set:
  @DF-RHF Final Energy:  -388.42292170042828
    Total Energy =                       -388.4229217004287875
  Basis Set: CC-PVTZ
  Basis Set:
  Basis Set: CC-PVTZ
  Basis Set:
  @DF-RHF Final Energy:  -388.42302195560694
    Total Energy =                       -388.4230219556073962
  Basis Set: CC-PVTZ
  Basis Set:
  Charge       = 0
  Multiplicity = 1
  Basis Set: CC-PVTZ
  Basis Set:

    Orbital Energies (a.u.)
    -----------------------

    Doubly Occupied:

       1A    -20.545263     2A    -11.264872     3A    -11.216972
       4A    -11.214525     5A    -11.214355     6A    -11.213853
       7A    -11.213771     8A    -11.212281     9A    -11.207798
      10A     -1.363143    11A     -1.095602    12A     -1.061914
      13A     -1.011970    14A     -0.949132    15A     -0.888498
      16A     -0.824340    17A     -0.802565    18A     -0.775875
      19A     -0.695881    20A     -0.656771    21A     -0.631752
      22A     -0.617179    23A     -0.601171    24A     -0.586752
      25A     -0.580364    26A     -0.551860    27A     -0.545730
      28A     -0.528634    29A     -0.505875    30A     -0.504137
      31A     -0.483116    32A     -0.475293    33A     -0.465377
      34A     -0.457669    35A     -0.452020    36A     -0.443083
      37A     -0.426450

  @DF-RHF Final Energy:  -388.42302185654046

   => Energetics <=

    Nuclear Repulsion Energy =            460.3264789270101573
    One-Electron Energy =               -1438.9273130965602832
    Two-Electron Energy =                 590.1778123130093263
    DFT Exchange-Correlation Energy =       0.0000000000000000
    Empirical Dispersion Energy =           0.0000000000000000
    PCM Polarization Energy =               0.0000000000000000
    EFP Energy =                            0.0000000000000000
    Total Energy =                       -388.4230218565407995
    Molecular point group: c1
  Basis Set: CC-PVTZ
  Basis Set:

  -Total Gradient:
     Atom            X                  Y                   Z
    ------   -----------------  -----------------  -----------------
       1        0.000012626175     0.000009769871     0.000015126397
       2        0.000050122141     0.000011760823    -0.000056717477
       3       -0.000055842344    -0.000012857950     0.000139880356
       4       -0.000311065678     0.000846828411    -0.001176125366
       5        0.000012805488    -0.000000069700    -0.000003677202
       6        0.000027957932     0.000014773464     0.000038246024
       7        0.000539650493    -0.001145706270     0.000999888746
       8       -0.000024791958     0.000022023521    -0.000020702419
       9        0.000005314773    -0.000022137693    -0.000032178462
      10       -0.001041608190     0.000181029397     0.001867627520
      11       -0.000039712346    -0.000015309114    -0.000038086262
      12       -0.000022408522    -0.000016403676     0.000044351541
      13        0.000002598122    -0.000001442726     0.000028550539
      14        0.000805599602     0.000125833094    -0.001739782941
      15        0.000041722564    -0.000011557141    -0.000021703543
      16       -0.000010968893    -0.000013795444     0.000012426383
      17       -0.000028056220    -0.000032084974    -0.000022871211
      18        0.000055635655    -0.000016294086    -0.000016552129
      19       -0.000023151847    -0.000020755181    -0.000006560299
      20       -0.000073420198     0.000045920040    -0.000044777740
      21        0.000052283185     0.000093390597     0.000037041865
      22        0.000034854373     0.000004307047    -0.000018351141
      23       -0.000049116311    -0.000075769006    -0.000055068233
      24        0.000079814695    -0.000043726651     0.000023890247
      25       -0.000084800377     0.000022791712    -0.000025283152
      26        0.000011228998    -0.000032726271     0.000009283087
      27        0.000032728687     0.000082207912     0.000062124871

  **** Optimization is complete! (in 6 steps) ****
    Final optimized geometry and variables:
    Molecular point group: c1

    Geometry (in Angstrom), charge = 0, multiplicity = 1:

    H            2.102312236322     3.095976850970    -0.636339196989
    O            2.836379067153     2.739718660549    -1.101051380778
    C            3.023209348798     1.392638554378    -0.755013901732
    C            1.959598102427     0.467083754759    -1.325892818435
    H            3.992072344352     1.118269972470    -1.150136670908
    H            3.073504301638     1.282075383689     0.326582450198
    C            0.554340998003     0.708617113471    -0.775727813617
    H            1.948846822208     0.574456005065    -2.406083128474
    H            2.258895718564    -0.557024506950    -1.113558600284
    C           -0.483739184784    -0.302062057968    -1.304896617780
    H            0.242750610247     1.714112332810    -1.038332223009
    H            0.587005916101     0.674356024923     0.309361444695
    C           -0.927544971989    -1.356166596949    -0.288415642537
    H           -1.355414662073     0.223148968706    -1.682083854633
    H           -0.061989941147    -0.811128614349    -2.165747885261
    C           -1.847465577092    -0.824130737246     0.808678204706
    H           -1.443649750844    -2.154313996925    -0.814635504908
    H           -0.048714644951    -1.811720000061     0.163186216993
    C           -2.261193281813    -1.891827718973     1.818006631949
    H           -2.738378447158    -0.402564187499     0.348456541468
    H           -1.365153613215    -0.006626417270     1.337436426870
    C           -3.191488694695    -1.362239372177     2.904339517730
    H           -2.748064526522    -2.710644334930     1.295053802421
    H           -1.371860175302    -2.312658202830     2.279664187034
    H           -4.107371977371    -0.967207118944     2.477091198815
    H           -3.463981339216    -2.144219934227     3.603873377781
    H           -2.720555992952    -0.563741645560     3.468490540348

  Mulliken Charges: (a.u.)
   Center  Symbol    Alpha    Beta     Spin     Total
       1     H     0.39240  0.39240  0.00000  0.21519
       2     O     4.20553  4.20553  0.00000 -0.41106
       3     C     2.98005  2.98005  0.00000  0.03989
       4     C     3.08579  3.08579  0.00000 -0.17159
       5     H     0.44886  0.44886  0.00000  0.10228
       6     H     0.46998  0.46998  0.00000  0.06004
       7     C     3.11318  3.11318  0.00000 -0.22635
       8     H     0.44961  0.44961  0.00000  0.10078
       9     H     0.45589  0.45589  0.00000  0.08822
      10     C     3.11001  3.11001  0.00000 -0.22003
      11     H     0.44933  0.44933  0.00000  0.10134
      12     H     0.45172  0.45172  0.00000  0.09655
      13     C     3.09623  3.09623  0.00000 -0.19247
      14     H     0.44505  0.44505  0.00000  0.10990
      15     H     0.44739  0.44739  0.00000  0.10522
      16     C     3.08764  3.08764  0.00000 -0.17527
      17     H     0.44752  0.44752  0.00000  0.10496
      18     H     0.45402  0.45402  0.00000  0.09197
      19     C     3.08436  3.08436  0.00000 -0.16872
      20     H     0.45417  0.45417  0.00000  0.09166
      21     H     0.45418  0.45418  0.00000  0.09165
      22     C     3.14977  3.14977  0.00000 -0.29954
      23     H     0.45384  0.45384  0.00000  0.09232
      24     H     0.45470  0.45470  0.00000  0.09061
      25     H     0.45500  0.45500  0.00000  0.09000
      26     H     0.44820  0.44820  0.00000  0.10360
      27     H     0.45558  0.45558  0.00000  0.08883

   Total alpha = 37.00000, Total beta = 37.00000, Total charge = -0.00000

*** Psi4 exiting successfully. Buy a developer a beer!
