  ==> Input File <==

--------------------------------------------------------------------------
set {
	reference rhf
	basis 6-31G*
}

set_num_threads( 4 )
memory 2 gb

molecule MOL {
0 1

O	 0.080733	 -0.162779	 -0.497877
C	 1.122059	 0.121804	 -0.000188
C	 1.433541	 1.420450	 0.702942
O	 2.172624	 -0.688929	 0.000216
C	 0.257611	 2.391915	 0.730986
H	 1.764685	 1.174071	 1.708126
H	 2.295186	 1.859469	 0.207377
C	 0.599996	 3.698649	 1.448331
H	 -0.588729	 1.916217	 1.216706
H	 -0.057798	 2.602231	 -0.286259
C	 -0.572273	 4.678338	 1.479930
H	 0.916136	 3.482138	 2.466788
H	 1.450205	 4.169800	 0.959216
H	 -1.427584	 4.248913	 1.993437
H	 -0.303357	 5.595768	 1.994015
H	 -0.889287	 4.941960	 0.475119
C	 3.452279	 -0.082609	 0.000533
H	 3.583069	 0.529321	 -0.880332
H	 4.163299	 -0.894027	 0.001117
H	 3.582335	 0.529955	 0.881077

	symmetry c1
}
set optking {
	frozen_dihedral = ("
		1 2 4 17
	")
}

ee = optimize('scf')
oeprop('DIPOLE', 'QUADRUPOLE', 'MULLIKEN_CHARGES')
f=open( 'psi4out.xyz', 'w' )
f.write( "20  " )
f.write( str(ee) + "\n" )
f.write( MOL.save_string_xyz() )
f.close()
--------------------------------------------------------------------------

    Molecular point group: c1
  Charge       = 0
  Multiplicity = 1
  Basis Set: 6-31G*
  Basis Set:
  @DF-RHF Final Energy:  -383.91576060133906
    Total Energy =                       -383.9157606013385475
    Molecular point group: c1
  Basis Set: 6-31G*
  Basis Set:
  Basis Set: 6-31G*
  Basis Set:
  @DF-RHF Final Energy:  -383.91543616001201
    Total Energy =                       -383.9154361600118364
  Basis Set: 6-31G*
  Basis Set:
  Basis Set: 6-31G*
  Basis Set:
  @DF-RHF Final Energy:  -383.92301518251116
    Total Energy =                       -383.9230151825112216
  Basis Set: 6-31G*
  Basis Set:
  Basis Set: 6-31G*
  Basis Set:
  @DF-RHF Final Energy:  -383.92433559505582
    Total Energy =                       -383.9243355950558225
  Basis Set: 6-31G*
  Basis Set:
  @DF-RHF Final Energy:  -383.92345265885655
    Total Energy =                       -383.9234526588570589
  Basis Set: 6-31G*
  Basis Set:
  @DF-RHF Final Energy:  -383.92469243578660
    Total Energy =                       -383.9246924357863691
  Basis Set: 6-31G*
  Basis Set:
  Basis Set: 6-31G*
  Basis Set:
  @DF-RHF Final Energy:  -383.92478097539333
    Total Energy =                       -383.9247809753933325
  Basis Set: 6-31G*
  Basis Set:
  Basis Set: 6-31G*
  Basis Set:
  @DF-RHF Final Energy:  -383.92478228795045
    Total Energy =                       -383.9247822879506202
  Basis Set: 6-31G*
  Basis Set:
  Charge       = 0
  Multiplicity = 1
  Basis Set: 6-31G*
  Basis Set:

    Orbital Energies (a.u.)
    -----------------------

    Doubly Occupied:

       1A    -20.598274     2A    -20.543667     3A    -11.374151
       4A    -11.296120     5A    -11.245049     6A    -11.224369
       7A    -11.223617     8A    -11.213472     9A     -1.461831
      10A     -1.366097    11A     -1.091692    12A     -1.017162
      13A     -0.983062    14A     -0.901560    15A     -0.810466
      16A     -0.766974    17A     -0.699359    18A     -0.687022
      19A     -0.673396    20A     -0.649726    21A     -0.606505
      22A     -0.592925    23A     -0.589517    24A     -0.553133
      25A     -0.540687    26A     -0.520897    27A     -0.506609
      28A     -0.482467    29A     -0.476589    30A     -0.474197
      31A     -0.448769    32A     -0.431554

  @DF-RHF Final Energy:  -383.92478233900118

   => Energetics <=

    Nuclear Repulsion Energy =            382.9477148076940125
    One-Electron Energy =               -1281.6431582607692690
    Two-Electron Energy =                 514.7706611140740733
    DFT Exchange-Correlation Energy =       0.0000000000000000
    Empirical Dispersion Energy =           0.0000000000000000
    PCM Polarization Energy =               0.0000000000000000
    EFP Energy =                            0.0000000000000000
    Total Energy =                       -383.9247823390012400
    Molecular point group: c1
  Basis Set: 6-31G*
  Basis Set:

  -Total Gradient:
     Atom            X                  Y                   Z
    ------   -----------------  -----------------  -----------------
       1        0.001115382191     0.001166757665    -0.002763516031
       2       -0.001585390596    -0.001677548507     0.002455264990
       3        0.000008311072    -0.000001192660    -0.000010178921
       4        0.000437036753     0.000539326120     0.003065906534
       5       -0.000007651121    -0.000007123628     0.000014446058
       6       -0.000004545080     0.000000674464    -0.000004490258
       7       -0.000001539397    -0.000004848343    -0.000003946887
       8        0.000002954241     0.000004076551    -0.000006092459
       9        0.000002417730    -0.000002702544     0.000000887116
      10       -0.000001475987     0.000001808271     0.000000692032
      11        0.000000058238     0.000001469974    -0.000003909493
      12       -0.000003472874    -0.000003149546    -0.000000847042
      13        0.000002764211     0.000000399695     0.000002149070
      14        0.000000726008    -0.000000479998     0.000000413897
      15        0.000000735171    -0.000000323131    -0.000001100161
      16       -0.000001358525     0.000000932293    -0.000000421957
      17        0.000016905881    -0.000023924387    -0.002744195612
      18        0.000008272511     0.000005115079     0.000000431195
      19        0.000008574949     0.000004274571     0.000004227826
      20        0.000001294623    -0.000003541935    -0.000005719891

  **** Optimization is complete! (in 9 steps) ****
    Final optimized geometry and variables:
    Molecular point group: c1

    Geometry (in Angstrom), charge = 0, multiplicity = 1:

    O           -0.929481644744    -1.468140586552    -1.017885801741
    C            0.099228063962    -1.208585914350    -0.494346031599
    C            0.374866776131     0.108919152673     0.203102548094
    O            1.078422721920    -2.122687256684    -0.479813803586
    C           -0.855495114636     1.009770845709     0.275872270956
    H            0.752423043236    -0.108684650132     1.199194797944
    H            1.181193655268     0.618826737887    -0.318554957263
    C           -0.563561538156     2.334282796500     0.982735501880
    H           -1.652658507402     0.483935334755     0.791311642983
    H           -1.218640662709     1.198229650048    -0.728733288517
    C           -1.790258466555     3.242224659176     1.060144747892
    H           -0.197198209620     2.137930649928     1.988457480704
    H            0.237730319610     2.855878763502     0.462714088770
    H           -2.597981405277     2.762828521209     1.605285024823
    H           -1.557030541372     4.174427816601     1.564874142591
    H           -2.160363729375     3.485263430207     0.068481759010
    C            2.437912941268    -1.754880920949    -0.469301306389
    H            2.675961045512    -1.111309167083    -1.307777387929
    H            2.993094962804    -2.674945177091    -0.564151997932
    H            2.719654590482    -1.266415409388     0.455165780524

  Mulliken Charges: (a.u.)
   Center  Symbol    Alpha    Beta     Spin     Total
       1     O     4.26261  4.26261  0.00000 -0.52521
       2     C     2.60104  2.60104  0.00000  0.79792
       3     C     3.23186  3.23186  0.00000 -0.46371
       4     O     4.30535  4.30535  0.00000 -0.61070
       5     C     3.14803  3.14803  0.00000 -0.29606
       6     H     0.40277  0.40277  0.00000  0.19447
       7     H     0.40512  0.40512  0.00000  0.18976
       8     C     3.15474  3.15474  0.00000 -0.30949
       9     H     0.41003  0.41003  0.00000  0.17994
      10     H     0.40863  0.40863  0.00000  0.18274
      11     C     3.23955  3.23955  0.00000 -0.47911
      12     H     0.42333  0.42333  0.00000  0.15334
      13     H     0.42398  0.42398  0.00000  0.15205
      14     H     0.41909  0.41909  0.00000  0.16183
      15     H     0.41843  0.41843  0.00000  0.16313
      16     H     0.41922  0.41922  0.00000  0.16157
      17     C     3.09420  3.09420  0.00000 -0.18841
      18     H     0.41576  0.41576  0.00000  0.16847
      19     H     0.39854  0.39854  0.00000  0.20291
      20     H     0.41773  0.41773  0.00000  0.16455

   Total alpha = 32.00000, Total beta = 32.00000, Total charge =  0.00000
