  ==> Input File <==

--------------------------------------------------------------------------
set {
	reference rhf
	basis cc-pvtz
}

set_num_threads( 4 )
memory 2 gb

molecule MOL {
0 1

H	 0.755540	 1.782746	 0.247019
O	 0.057669	 1.301365	 -0.158528
C	 0.004145	 -0.005141	 0.363049
C	 1.199168	 -0.827145	 -0.096690
C	 -1.316386	 -0.602081	 -0.083515
H	 0.012026	 0.043363	 1.450619
H	 1.216685	 -0.896776	 -1.178167
H	 2.129940	 -0.372354	 0.228035
H	 1.160783	 -1.829622	 0.314294
H	 -1.357882	 -0.655920	 -1.165207
H	 -2.140147	 0.011735	 0.257253
H	 -1.440790	 -1.601175	 0.317669

	symmetry c1
}
set optking {
	frozen_dihedral = ("
		1 2 3 4
	")
}

ee = optimize('scf')
oeprop('DIPOLE', 'QUADRUPOLE', 'MULLIKEN_CHARGES')
f=open( 'psi4out.xyz', 'w' )
f.write( "12  " )
f.write( str(ee) + "\n" )
f.write( MOL.save_string_xyz() )
f.close()
--------------------------------------------------------------------------

    Molecular point group: c1
  Charge       = 0
  Multiplicity = 1
  Basis Set: CC-PVTZ
  Basis Set:
  @DF-RHF Final Energy:  -193.19589259249545
    Total Energy =                       -193.1958925924954542
    Molecular point group: c1
  Basis Set: CC-PVTZ
  Basis Set:
  Basis Set: CC-PVTZ
  Basis Set:
  @DF-RHF Final Energy:  -193.19590109850731
    Total Energy =                       -193.1959010985071643
  Basis Set: CC-PVTZ
  Basis Set:
  Basis Set: CC-PVTZ
  Basis Set:
  @DF-RHF Final Energy:  -193.19590233789316
    Total Energy =                       -193.1959023378930738
  Basis Set: CC-PVTZ
  Basis Set:
  Charge       = 0
  Multiplicity = 1
  Basis Set: CC-PVTZ
  Basis Set:

    Orbital Energies (a.u.)
    -----------------------

    Doubly Occupied:

       1A    -20.544258     2A    -11.274197     3A    -11.209306
       4A    -11.204974     5A     -1.364583     6A     -1.043079
       7A     -0.939075     8A     -0.802419     9A     -0.706463
      10A     -0.622729    11A     -0.604599    12A     -0.548348
      13A     -0.537470    14A     -0.528618    15A     -0.510124
      16A     -0.467765    17A     -0.433461

  @DF-RHF Final Energy:  -193.19590237782936

   => Energetics <=

    Nuclear Repulsion Energy =            135.7029568888200686
    One-Electron Energy =                -531.1147876272610802
    Two-Electron Energy =                 202.2159283606117128
    DFT Exchange-Correlation Energy =       0.0000000000000000
    Empirical Dispersion Energy =           0.0000000000000000
    PCM Polarization Energy =               0.0000000000000000
    EFP Energy =                            0.0000000000000000
    Total Energy =                       -193.1959023778293272
    Molecular point group: c1
  Basis Set: CC-PVTZ
  Basis Set:

  -Total Gradient:
     Atom            X                  Y                   Z
    ------   -----------------  -----------------  -----------------
       1       -0.000605306312     0.000296108933     0.000683330151
       2        0.000611365232    -0.000451544085    -0.001022280578
       3        0.000306361765     0.000339750797     0.000817314271
       4       -0.000310392709    -0.000186326496    -0.000475983935
       5        0.000000735217     0.000006723411     0.000001746108
       6       -0.000004485642    -0.000000353814    -0.000001285512
       7        0.000003448178     0.000000369350    -0.000001013606
       8       -0.000006272222     0.000001147058     0.000000336295
       9        0.000000783275    -0.000006105595    -0.000001884304
      10        0.000000642324    -0.000000117014    -0.000000675063
      11       -0.000001122204     0.000000336544     0.000000703764
      12        0.000004243099     0.000000010913    -0.000000307591

  **** Optimization is complete! (in 4 steps) ****
    Final optimized geometry and variables:
    Molecular point group: c1

    Geometry (in Angstrom), charge = 0, multiplicity = 1:

    H            0.761289604574     1.781341205441     0.237872257252
    O            0.062006890599     1.299850511388    -0.164611254459
    C            0.004647532187    -0.004621115938     0.363186334824
    C            1.198722031618    -0.828564548310    -0.096114070056
    C           -1.314781572812    -0.603375330593    -0.085512540520
    H            0.009850787049     0.046963986924     1.450282849739
    H            1.213591686915    -0.898277382781    -1.177468963831
    H            2.129746519847    -0.372711588015     0.225141386919
    H            1.160225629257    -1.831003721562     0.315496043800
    H           -1.358171980053    -0.645363049278    -1.167706029416
    H           -2.141077684368     0.002347215901     0.263443547909
    H           -1.432985209772    -1.607981901384     0.303638438858

  Mulliken Charges: (a.u.)
   Center  Symbol    Alpha    Beta     Spin     Total
       1     H     0.39577  0.39577  0.00000  0.20847
       2     O     4.20496  4.20496  0.00000 -0.40993
       3     C     2.92310  2.92310  0.00000  0.15379
       4     C     3.14344  3.14344  0.00000 -0.28688
       5     C     3.14185  3.14185  0.00000 -0.28370
       6     H     0.46651  0.46651  0.00000  0.06698
       7     H     0.45137  0.45137  0.00000  0.09726
       8     H     0.45751  0.45751  0.00000  0.08498
       9     H     0.45709  0.45709  0.00000  0.08583
      10     H     0.45221  0.45221  0.00000  0.09558
      11     H     0.44724  0.44724  0.00000  0.10552
      12     H     0.45895  0.45895  0.00000  0.08211

   Total alpha = 17.00000, Total beta = 17.00000, Total charge = -0.00000
