                              Psi4 1.0.54 Driver

  ==> Input File <==

--------------------------------------------------------------------------
set {
	reference rhf
	basis cc-pvtz
}

set_num_threads( 4 )
memory 2 gb

molecule MOL {
0 1

O	 0.332857	 1.023368	 0.807855
C	 0.485107	 0.171416	 -0.000134
C	 1.606966	 -0.836201	 0.000174
O	 -0.325375	 -0.010571	 -1.028037
C	 2.988788	 -0.202529	 -0.000115
H	 1.465110	 -1.474645	 -0.864821
H	 1.465209	 -1.474077	 0.865596
H	 3.131767	 0.419673	 -0.873407
H	 3.750876	 -0.972315	 0.000098
H	 3.131883	 0.420264	 0.872742
C	 -1.434389	 0.867270	 -1.161344
C	 -2.198651	 0.460894	 -2.399589
H	 -1.073459	 1.883577	 -1.233429
H	 -2.048794	 0.797125	 -0.274828
H	 -1.573236	 0.534163	 -3.280418
H	 -3.054225	 1.112689	 -2.531452
H	 -2.554187	 -0.558438	 -2.316353

	symmetry c1
}
set optking {
	frozen_dihedral = ("
		4 2 3 6
	")
}

ee,wfn = optimize('scf', return_wfn=True)
oeprop( wfn, 'DIPOLE', 'QUADRUPOLE', 'MULLIKEN_CHARGES')
f=open( 'psi4out.xyz', 'w' )
f.write( "17  " )
f.write( str(ee) + "\n" )
f.write( MOL.save_string_xyz() )
f.close()
--------------------------------------------------------------------------

    Molecular point group: c1
  Charge       = 0
  Multiplicity = 1
  Basis Set: CC-PVTZ
  Basis Set:
  @DF-RHF Final Energy:  -345.03838765578615
    Total Energy =                       -345.0383876557862664
    Molecular point group: c1
  Basis Set: CC-PVTZ
  Basis Set:
  Basis Set: CC-PVTZ
  Basis Set:
  @DF-RHF Final Energy:  -345.03892504532104
    Total Energy =                       -345.0389250453212071
  Basis Set: CC-PVTZ
  Basis Set:
  Basis Set: CC-PVTZ
  Basis Set:
  @DF-RHF Final Energy:  -345.03884667461580
    Total Energy =                       -345.0388466746162521
  Basis Set: CC-PVTZ
  Basis Set:
  Basis Set: CC-PVTZ
  Basis Set:
  @DF-RHF Final Energy:  -345.03898144398607
    Total Energy =                       -345.0389814439861880
  Basis Set: CC-PVTZ
  Basis Set:
  Basis Set: CC-PVTZ
  Basis Set:
  @DF-RHF Final Energy:  -345.03898711552836
    Total Energy =                       -345.0389871155285277
  Basis Set: CC-PVTZ
  Basis Set:
  Charge       = 0
  Multiplicity = 1
  Basis Set: CC-PVTZ
  Basis Set:

    Orbital Energies (a.u.)
    -----------------------

    Doubly Occupied:

       1A    -20.596020     2A    -20.530021     3A    -11.363224
       4A    -11.282720     5A    -11.234603     6A    -11.220661
       7A    -11.220103     8A     -1.470996     9A     -1.363746
      10A     -1.070992    11A     -1.033183    12A     -0.910499
      13A     -0.851386    14A     -0.777991    15A     -0.696842
      16A     -0.689071    17A     -0.669239    18A     -0.621466
      19A     -0.595425    20A     -0.576492    21A     -0.556100
      22A     -0.532819    23A     -0.525847    24A     -0.511256
      25A     -0.503014    26A     -0.493732    27A     -0.455325
      28A     -0.436504

  @DF-RHF Final Energy:  -345.03898743130640

   => Energetics <=

    Nuclear Repulsion Energy =            315.6508194978747497
    One-Electron Energy =               -1095.8010499864594749
    Two-Electron Energy =                 435.1112430572783296
    DFT Exchange-Correlation Energy =       0.0000000000000000
    Empirical Dispersion Energy =           0.0000000000000000
    PCM Polarization Energy =               0.0000000000000000
    EFP Energy =                            0.0000000000000000
    Total Energy =                       -345.0389874313063956
    Molecular point group: c1
  Basis Set: CC-PVTZ
  Basis Set:

  -Total Gradient:
     Atom            X                  Y                   Z
    ------   -----------------  -----------------  -----------------
       1       -0.000024450269    -0.000001931043    -0.000016850396
       2       -0.000454568965    -0.000481038627     0.000528483436
       3        0.000569213755     0.000577406090    -0.000570310123
       4        0.000261734459     0.000289104642    -0.000255949875
       5       -0.000023654005    -0.000018832057     0.000034814539
       6       -0.000356025465    -0.000407230301     0.000311671777
       7        0.000016234717     0.000021613568    -0.000015817394
       8       -0.000029539392    -0.000015881025     0.000004794576
       9       -0.000008005006    -0.000004046791    -0.000001044832
      10        0.000017838395     0.000020188951     0.000014284907
      11        0.000087702553     0.000068035141    -0.000068476156
      12       -0.000031036899    -0.000021277749     0.000013282684
      13       -0.000022346689     0.000001757217     0.000008754533
      14       -0.000001506333    -0.000017908306     0.000014421152
      15        0.000007392539     0.000003873161     0.000008607447
      16        0.000001022990    -0.000003515682     0.000002856636
      17       -0.000010006381    -0.000010317188    -0.000013522909

  **** Optimization is complete! (in 6 steps) ****
    Final optimized geometry and variables:
    Molecular point group: c1

    Geometry (in Angstrom), charge = 0, multiplicity = 1:

    O            0.184451947487     0.781933580278     1.339754414142
    C            0.292492274358    -0.074034222910     0.527404921184
    C            1.388409361130    -1.112054106845     0.539943949441
    O           -0.536866476509    -0.219745733766    -0.488948765529
    C            2.774663630933    -0.471164904954     0.552173248378
    H            1.268164880645    -1.776559366285    -0.303052723992
    H            1.249064699469    -1.694717916402     1.443626333902
    H            2.948209501513     0.101023855128    -0.351842329911
    H            3.538661695875    -1.235742110616     0.615057418611
    H            2.880815812604     0.192941505854     1.398509095274
    C           -1.617013171834     0.697659113763    -0.597686859347
    C           -2.417660544565     0.324698621178    -1.823412097128
    H           -1.221270237998     1.700667685277    -0.670987127532
    H           -2.216298112082     0.643895120785     0.300139994540
    H           -1.806391008139     0.380771438902    -2.715371305655
    H           -3.251952371127     1.006888856334    -1.936283590632
    H           -2.807414124775    -0.681906215013    -1.738460741952

  Mulliken Charges: (a.u.)
   Center  Symbol    Alpha    Beta     Spin     Total
       1     O     4.20436  4.20436  0.00000 -0.40872
       2     C     2.81128  2.81128  0.00000  0.37743
       3     C     3.08515  3.08515  0.00000 -0.17031
       4     O     4.14803  4.14803  0.00000 -0.29605
       5     C     3.14521  3.14521  0.00000 -0.29042
       6     H     0.43995  0.43995  0.00000  0.12010
       7     H     0.44588  0.44588  0.00000  0.10824
       8     H     0.45355  0.45355  0.00000  0.09290
       9     H     0.44941  0.44941  0.00000  0.10119
      10     H     0.44169  0.44169  0.00000  0.11662
      11     C     2.97752  2.97752  0.00000  0.04497
      12     C     3.13319  3.13319  0.00000 -0.26638
      13     H     0.45389  0.45389  0.00000  0.09221
      14     H     0.45390  0.45390  0.00000  0.09219
      15     H     0.45147  0.45147  0.00000  0.09706
      16     H     0.45420  0.45420  0.00000  0.09159
      17     H     0.45131  0.45131  0.00000  0.09737

   Total alpha = 28.00000, Total beta = 28.00000, Total charge = -0.00000

*** Psi4 exiting successfully. Buy a developer a beer!
