  ==> Input File <==

--------------------------------------------------------------------------
set {
	reference rhf
	basis cc-pvtz
}

set_num_threads( 4 )
memory 2 gb

molecule MOL {
0 1

H	 3.083659	 -1.378387	 0.000000
O	 2.179005	 -1.633391	 0.000000
C	 1.366950	 -0.558201	 0.000000
C	 -0.000622	 -0.663033	 0.203565
C	 1.939309	 0.679321	 -0.212045
H	 -0.444830	 -1.627850	 0.368598
C	 -0.791615	 0.467987	 0.194668
H	 2.995211	 0.763589	 -0.369571
C	 1.139212	 1.807664	 -0.219376
H	 -1.848478	 0.374697	 0.353288
C	 -0.226863	 1.709670	 -0.016749
C	 1.743368	 3.146586	 -0.446671
H	 -0.839400	 2.590937	 -0.024214
O	 2.895261	 3.344186	 -0.629747
H	 1.031302	 3.977501	 -0.434781

	symmetry c1
}
set optking {
	frozen_dihedral = ("
		4 3 2 1
	")
}

ee = optimize('scf')
oeprop('DIPOLE', 'QUADRUPOLE', 'MULLIKEN_CHARGES')
f=open( 'psi4out.xyz', 'w' )
f.write( "15  " )
f.write( str(ee) + "\n" )
f.write( MOL.save_string_xyz() )
f.close()
--------------------------------------------------------------------------

    Molecular point group: c1
  Charge       = 0
  Multiplicity = 1
  Basis Set: CC-PVTZ
  Basis Set:
  @DF-RHF Final Energy:  -418.43804065555020
    Total Energy =                       -418.4380406555500258
    Molecular point group: c1
  Basis Set: CC-PVTZ
  Basis Set:
  Basis Set: CC-PVTZ
  Basis Set:
  @DF-RHF Final Energy:  -418.43996504168433
    Total Energy =                       -418.4399650416841041
  Basis Set: CC-PVTZ
  Basis Set:
  Basis Set: CC-PVTZ
  Basis Set:
  @DF-RHF Final Energy:  -418.44010415928466
    Total Energy =                       -418.4401041592844877
  Basis Set: CC-PVTZ
  Basis Set:
  Basis Set: CC-PVTZ
  Basis Set:
  @DF-RHF Final Energy:  -418.43785607312350
    Total Energy =                       -418.4378560731239531
  Basis Set: CC-PVTZ
  Basis Set:
  Basis Set: CC-PVTZ
  Basis Set:
  @DF-RHF Final Energy:  -418.44015393049926
    Total Energy =                       -418.4401539304997186
  Basis Set: CC-PVTZ
  Basis Set:
  Basis Set: CC-PVTZ
  Basis Set:
  @DF-RHF Final Energy:  -418.44016293000590
    Total Energy =                       -418.4401629300060677
  Basis Set: CC-PVTZ
  Basis Set:
  Charge       = 0
  Multiplicity = 1
  Basis Set: CC-PVTZ
  Basis Set:

    Orbital Energies (a.u.)
    -----------------------

    Doubly Occupied:

       1A    -20.595205     2A    -20.556687     3A    -11.330008
       4A    -11.311504     5A    -11.252129     6A    -11.249270
       7A    -11.244567     8A    -11.242977     9A    -11.241495
      10A     -1.426869    11A     -1.412374    12A     -1.174545
      13A     -1.053295    14A     -1.029587    15A     -0.904143
      16A     -0.857651    17A     -0.799777    18A     -0.759135
      19A     -0.704237    20A     -0.672033    21A     -0.665882
      22A     -0.633826    23A     -0.616690    24A     -0.609852
      25A     -0.578430    26A     -0.559360    27A     -0.539585
      28A     -0.521074    29A     -0.492569    30A     -0.429236
      31A     -0.358220    32A     -0.331978

  @DF-RHF Final Energy:  -418.44016377014674

   => Energetics <=

    Nuclear Repulsion Energy =            404.2461043158927509
    One-Electron Energy =               -1371.0641531157168629
    Two-Electron Energy =                 548.3778850296766905
    DFT Exchange-Correlation Energy =       0.0000000000000000
    Empirical Dispersion Energy =           0.0000000000000000
    PCM Polarization Energy =               0.0000000000000000
    EFP Energy =                            0.0000000000000000
    Total Energy =                       -418.4401637701473646
    Molecular point group: c1
  Basis Set: CC-PVTZ
  Basis Set:

  -Total Gradient:
     Atom            X                  Y                   Z
    ------   -----------------  -----------------  -----------------
       1        0.000004859619    -0.000000035410     0.001123004787
       2        0.000078251844     0.000029388132    -0.001012444224
       3       -0.000229435479    -0.000137879749    -0.000923127233
       4        0.000120762914     0.000086430211     0.000790605940
       5        0.000010698342     0.000024111164     0.000010246860
       6        0.000014788052    -0.000003729988    -0.000002479491
       7       -0.000000718363     0.000070867721     0.000012998362
       8       -0.000004974289     0.000007643109     0.000001023310
       9        0.000059642437    -0.000012635936     0.000004611635
      10       -0.000000884624    -0.000011501357     0.000000776357
      11       -0.000071577109    -0.000069433261    -0.000002330713
      12       -0.000018702690     0.000016115032     0.000000814375
      13        0.000017012913     0.000009161361    -0.000001703813
      14        0.000015683418     0.000002568721    -0.000002473510
      15        0.000004593015    -0.000011069752     0.000000477358

  **** Optimization is complete! (in 7 steps) ****
    Final optimized geometry and variables:
    Molecular point group: c1

    Geometry (in Angstrom), charge = 0, multiplicity = 1:

    H            1.834962874367    -2.402381930917     0.146636885655
    O            0.913537930796    -2.590698485504     0.143681090605
    C            0.186873999015    -1.456002993862     0.126741200858
    C           -1.183163447217    -1.574529115461     0.335286513437
    C            0.745813840546    -0.217209785611    -0.084407591213
    H           -1.597470592714    -2.549371163229     0.501926067839
    C           -1.979991695344    -0.454685658520     0.323853581362
    H            1.800512128394    -0.103311079631    -0.247925657657
    C           -0.065938909603     0.910067109170    -0.089491785401
    H           -3.035972028612    -0.554958717930     0.484191919767
    C           -1.425179533614     0.798465219913     0.111577911487
    C            0.530968420504     2.250608535948    -0.314993628314
    H           -2.046863453140     1.673426756936     0.104937833890
    O            1.683687977334     2.452199007951    -0.493250619657
    H           -0.184894958220     3.078041928374    -0.306572722818

  Mulliken Charges: (a.u.)
   Center  Symbol    Alpha    Beta     Spin     Total
       1     H     0.38450  0.38450  0.00000  0.23100
       2     O     4.17318  4.17318  0.00000 -0.34636
       3     C     2.84122  2.84122  0.00000  0.31755
       4     C     3.10183  3.10183  0.00000 -0.20367
       5     C     3.14295  3.14295  0.00000 -0.28590
       6     H     0.41535  0.41535  0.00000  0.16929
       7     C     3.05635  3.05635  0.00000 -0.11271
       8     H     0.41730  0.41730  0.00000  0.16540
       9     C     2.98005  2.98005  0.00000  0.03991
      10     H     0.41936  0.41936  0.00000  0.16128
      11     C     3.10826  3.10826  0.00000 -0.21651
      12     C     2.90930  2.90930  0.00000  0.18140
      13     H     0.42310  0.42310  0.00000  0.15379
      14     O     4.17226  4.17226  0.00000 -0.34452
      15     H     0.45498  0.45498  0.00000  0.09004

   Total alpha = 32.00000, Total beta = 32.00000, Total charge = -0.00000
