  ==> Input File <==

--------------------------------------------------------------------------
set {
	reference rhf
	basis 6-31G*
}

set_num_threads( 4 )
memory 2 gb

molecule MOL {
0 1

O	 -1.276010	 1.052711	 -0.768302
C	 -1.204840	 0.067374	 -0.106123
C	 -2.388195	 -0.672128	 0.458071
O	 -0.067104	 -0.527208	 0.221609
H	 -2.388023	 -1.694060	 0.097175
H	 -3.300579	 -0.174919	 0.164318
H	 -2.315377	 -0.706351	 1.539059
C	 -0.086406	 -1.578379	 1.197618
C	 1.303051	 -1.604812	 1.809418
C	 -0.468991	 -2.890884	 0.531581
H	 -0.820266	 -1.321573	 1.947290
H	 1.541982	 -0.647459	 2.258455
H	 1.358130	 -2.367735	 2.578994
H	 2.050348	 -1.824383	 1.054441
H	 -0.462990	 -3.694917	 1.260629
H	 -1.461962	 -2.829674	 0.104688
H	 0.237499	 -3.137106	 -0.254711

	symmetry c1
}
set optking {
	frozen_dihedral = ("
		8 4 2 1
	")
}

ee = optimize('scf')
oeprop('DIPOLE', 'QUADRUPOLE', 'MULLIKEN_CHARGES')
f=open( 'psi4out.xyz', 'w' )
f.write( "17  " )
f.write( str(ee) + "\n" )
f.write( MOL.save_string_xyz() )
f.close()
--------------------------------------------------------------------------

    Molecular point group: c1
  Charge       = 0
  Multiplicity = 1
  Basis Set: 6-31G*
  Basis Set:
  @DF-RHF Final Energy:  -344.87221052023250
    Total Energy =                       -344.8722105202324997
    Molecular point group: c1
  Basis Set: 6-31G*
  Basis Set:
  Basis Set: 6-31G*
  Basis Set:
  @DF-RHF Final Energy:  -344.89190854714377
    Total Energy =                       -344.8919085471437711
  Basis Set: 6-31G*
  Basis Set:
  Basis Set: 6-31G*
  Basis Set:
  @DF-RHF Final Energy:  -344.89646229904673
    Total Energy =                       -344.8964622990470161
  Basis Set: 6-31G*
  Basis Set:
  Basis Set: 6-31G*
  Basis Set:
  @DF-RHF Final Energy:  -344.89696103011710
    Total Energy =                       -344.8969610301169268
  Basis Set: 6-31G*
  Basis Set:
  @DF-RHF Final Energy:  -344.89778067024076
    Total Energy =                       -344.8977806702409907
  @DF-RHF Final Energy:  -344.89825276591716
    Total Energy =                       -344.8982527659171637
  @DF-RHF Final Energy:  -344.89870054552313
    Total Energy =                       -344.8987005455232975
  Basis Set: 6-31G*
  Basis Set:
  @DF-RHF Final Energy:  -344.89879694745696
    Total Energy =                       -344.8987969474569582
  Basis Set: 6-31G*
  Basis Set:
  Basis Set: 6-31G*
  Basis Set:
  @DF-RHF Final Energy:  -344.89883324123304
    Total Energy =                       -344.8988332412329214
  Basis Set: 6-31G*
  Basis Set:
  Basis Set: 6-31G*
  Basis Set:
  @DF-RHF Final Energy:  -344.89884039316229
    Total Energy =                       -344.8988403931624021
  Basis Set: 6-31G*
  Basis Set:
  Charge       = 0
  Multiplicity = 1
  Basis Set: 6-31G*
  Basis Set:

    Orbital Energies (a.u.)
    -----------------------

    Doubly Occupied:

       1A    -20.596759     2A    -20.535428     3A    -11.375397
       4A    -11.305397     5A    -11.242096     6A    -11.228912
       7A    -11.225563     8A     -1.459973     9A     -1.361780
      10A     -1.078875    11A     -1.016874    12A     -0.957222
      13A     -0.861487    14A     -0.776778    15A     -0.699255
      16A     -0.664104    17A     -0.660829    18A     -0.619417
      19A     -0.597388    20A     -0.588148    21A     -0.562112
      22A     -0.557301    23A     -0.546867    24A     -0.530212
      25A     -0.509280    26A     -0.490277    27A     -0.437220
      28A     -0.431200

  @DF-RHF Final Energy:  -344.89884074477209

   => Energetics <=

    Nuclear Repulsion Energy =            321.6797875410509278
    One-Electron Energy =               -1107.3249572777056073
    Two-Electron Energy =                 440.7463289918826490
    DFT Exchange-Correlation Energy =       0.0000000000000000
    Empirical Dispersion Energy =           0.0000000000000000
    PCM Polarization Energy =               0.0000000000000000
    EFP Energy =                            0.0000000000000000
    Total Energy =                       -344.8988407447720306
    Molecular point group: c1
  Basis Set: 6-31G*
  Basis Set:

  -Total Gradient:
     Atom            X                  Y                   Z
    ------   -----------------  -----------------  -----------------
       1        0.000389539130     0.000935181552     0.001224131423
       2       -0.000270138551    -0.000738080947    -0.001199321220
       3        0.000005571563     0.000010680664     0.000028842284
       4       -0.000599311147    -0.001175214021    -0.000953131159
       5       -0.000005275873     0.000021307971    -0.000015810002
       6       -0.000001629015     0.000002553876     0.000004242901
       7       -0.000008182344    -0.000009961683    -0.000003327442
       8        0.000493467272     0.000966139586     0.000913749816
       9       -0.000003186006     0.000012294318     0.000003264556
      10       -0.000019790966    -0.000005017805    -0.000027162713
      11       -0.000008759523     0.000001384905    -0.000000629321
      12        0.000003565537     0.000001352793     0.000003382171
      13       -0.000000471497    -0.000000843012     0.000000121215
      14       -0.000001439932     0.000000815283     0.000000204682
      15        0.000004189358     0.000001198075     0.000003316552
      16        0.000024262202    -0.000023512905     0.000012000169
      17       -0.000002410208    -0.000000278653     0.000006126091

  **** Optimization is complete! (in 11 steps) ****
    Final optimized geometry and variables:
    Molecular point group: c1

    Geometry (in Angstrom), charge = 0, multiplicity = 1:

    O           -0.554880008005     1.867088702769    -1.308163649064
    C           -0.652102443456     0.946065800955    -0.569467444173
    C           -1.958701277040     0.604303132879     0.114185099352
    O            0.417895795596     0.192023899501    -0.325454937048
    H           -2.202763137990    -0.447449823673     0.028924929048
    H           -2.733648454379     1.195160731497    -0.349667298638
    H           -1.915494047217     0.856240256703     1.168531707129
    C            0.508904935273    -0.813006806045     0.680790772891
    C            1.840797777314    -0.602899581268     1.382833300695
    C            0.401165927913    -2.181298884127     0.024028661688
    H           -0.290643080724    -0.687870884921     1.398300521139
    H            1.884795791381     0.384685494526     1.827082528552
    H            1.976226266904    -1.341431964364     2.166378604800
    H            2.657149822787    -0.693581458476     0.675537110242
    H            0.492171660273    -2.967490291853     0.766455542187
    H           -0.551026325462    -2.301171165989    -0.481395510808
    H            1.189541355265    -2.305372537221    -0.709790271709

  Mulliken Charges: (a.u.)
   Center  Symbol    Alpha    Beta     Spin     Total
       1     O     4.26824  4.26824  0.00000 -0.53648
       2     C     2.61283  2.61283  0.00000  0.77434
       3     C     3.31112  3.31112  0.00000 -0.62225
       4     O     4.30753  4.30753  0.00000 -0.61506
       5     H     0.40518  0.40518  0.00000  0.18965
       6     H     0.38704  0.38704  0.00000  0.22592
       7     H     0.40113  0.40113  0.00000  0.19774
       8     C     2.93127  2.93127  0.00000  0.13746
       9     C     3.23752  3.23752  0.00000 -0.47503
      10     C     3.24284  3.24284  0.00000 -0.48568
      11     H     0.41661  0.41661  0.00000  0.16678
      12     H     0.41038  0.41038  0.00000  0.17924
      13     H     0.41927  0.41927  0.00000  0.16145
      14     H     0.40810  0.40810  0.00000  0.18379
      15     H     0.41759  0.41759  0.00000  0.16482
      16     H     0.41605  0.41605  0.00000  0.16790
      17     H     0.40730  0.40730  0.00000  0.18540

   Total alpha = 28.00000, Total beta = 28.00000, Total charge = -0.00000
