  ==> Input File <==

--------------------------------------------------------------------------
set {
	reference rhf
	basis 6-31G*
}

set_num_threads( 4 )
memory 2 gb

molecule MOL {
0 1

H	 2.714978	 -0.113474	 0.662409
N	 1.736392	 0.095141	 0.676928
C	 0.991223	 -1.006381	 1.258380
C	 1.264389	 0.408481	 -0.659388
H	 1.363848	 -1.193550	 2.259823
H	 1.092636	 -1.929403	 0.682718
C	 -0.481831	 -0.631884	 1.323921
H	 1.834834	 1.245924	 -1.046752
H	 1.382347	 -0.428847	 -1.351203
C	 -0.208834	 0.782102	 -0.592660
H	 -0.607439	 0.201659	 2.021436
H	 -1.053337	 -1.471598	 1.705767
N	 -0.975995	 -0.298722	 0.000000
H	 -0.583192	 0.963519	 -1.594903
H	 -0.316153	 1.710376	 -0.023548
C	 -2.393863	 -0.024976	 0.000000
H	 -2.854032	 -0.467193	 -0.876721
H	 -2.854032	 -0.467193	 0.876721
H	 -2.623281	 1.044943	 0.000000

	symmetry c1
}
set optking {
	frozen_dihedral = ("
		7 13 16 19
	")
}

ee = optimize('scf')
oeprop('DIPOLE', 'QUADRUPOLE', 'MULLIKEN_CHARGES')
f=open( 'psi4out.xyz', 'w' )
f.write( "19  " )
f.write( str(ee) + "\n" )
f.write( MOL.save_string_xyz() )
f.close()
--------------------------------------------------------------------------

    Molecular point group: c1
  Charge       = 0
  Multiplicity = 1
  Basis Set: 6-31G*
  Basis Set:
  @DF-RHF Final Energy:  -305.19497371837400
    Total Energy =                       -305.1949737183741149
    Molecular point group: c1
  Basis Set: 6-31G*
  Basis Set:
  Basis Set: 6-31G*
  Basis Set:
  @DF-RHF Final Energy:  -305.19552734048676
    Total Energy =                       -305.1955273404868763
  Basis Set: 6-31G*
  Basis Set:
  Basis Set: 6-31G*
  Basis Set:
  @DF-RHF Final Energy:  -305.19564650323025
    Total Energy =                       -305.1956465032306482
  Basis Set: 6-31G*
  Basis Set:
  Charge       = 0
  Multiplicity = 1
  Basis Set: 6-31G*
  Basis Set:

    Orbital Energies (a.u.)
    -----------------------

    Doubly Occupied:

       1A    -15.537338     2A    -15.536200     3A    -11.238020
       4A    -11.237939     5A    -11.237131     6A    -11.236988
       7A    -11.234906     8A     -1.244835     9A     -1.183489
      10A     -1.022917    11A     -0.964179    12A     -0.860831
      13A     -0.857442    14A     -0.755514    15A     -0.690409
      16A     -0.631874    17A     -0.625213    18A     -0.605319
      19A     -0.602821    20A     -0.580250    21A     -0.544623
      22A     -0.530950    23A     -0.513030    24A     -0.488887
      25A     -0.467521    26A     -0.456617    27A     -0.362976
      28A     -0.337037

  @DF-RHF Final Energy:  -305.19565257747195

   => Energetics <=

    Nuclear Repulsion Energy =            339.3907404401682015
    One-Electron Energy =               -1086.0022755424306524
    Two-Electron Energy =                 441.4158825247904474
    DFT Exchange-Correlation Energy =       0.0000000000000000
    Empirical Dispersion Energy =           0.0000000000000000
    PCM Polarization Energy =               0.0000000000000000
    EFP Energy =                            0.0000000000000000
    Total Energy =                       -305.1956525774720035
    Molecular point group: c1
  Basis Set: 6-31G*
  Basis Set:

  -Total Gradient:
     Atom            X                  Y                   Z
    ------   -----------------  -----------------  -----------------
       1       -0.000043324341    -0.000013076385    -0.000022846664
       2       -0.000089353141     0.000013559463     0.000000716032
       3        0.000041733187     0.000033298959     0.000013127163
       4        0.000029531332    -0.000025619349    -0.000033397212
       5        0.000086710520    -0.000017572504     0.000035828204
       6       -0.000043860688     0.000034895653     0.000016206849
       7       -0.000480002283    -0.003512704762    -0.000662769728
       8        0.000068241881     0.000011217607    -0.000004065534
       9       -0.000003848453     0.000012696303     0.000014512551
      10        0.000070040410     0.000096650488     0.000058106098
      11        0.000014761667    -0.000046578932    -0.000062172507
      12       -0.000001546436     0.000026414884    -0.000055136964
      13        0.000790206155     0.004871462063    -0.000385004802
      14        0.000007089901    -0.000045290274     0.000040388145
      15       -0.000024830847    -0.000035995841    -0.000010515945
      16       -0.000766714137    -0.001448087341     0.005853355887
      17        0.000057257426    -0.000011615430    -0.000011074705
      18        0.000071189443    -0.000031890535     0.000000394304
      19        0.000216718406     0.000088235932    -0.004785651170

  **** Optimization is complete! (in 4 steps) ****
    Final optimized geometry and variables:
    Molecular point group: c1

    Geometry (in Angstrom), charge = 0, multiplicity = 1:

    H            2.736287433734    -0.033149688238     0.352111909622
    N            1.758973256891     0.180478619661     0.374286397739
    C            1.014433985407    -0.916235649959     0.965739096424
    C            1.278028144884     0.490514986823    -0.959591710415
    H            1.405084894448    -1.111611033861     1.958889978748
    H            1.096467539565    -1.837063719274     0.383371983866
    C           -0.454299445030    -0.530385702394     1.060748411923
    H            1.854720549523     1.318484822943    -1.358282314777
    H            1.380120208624    -0.353276602996    -1.646090135908
    C           -0.190104896128     0.880782038555    -0.880187486314
    H           -0.559100345395     0.287668045360     1.779963805429
    H           -1.024388374237    -1.374464548369     1.432862927553
    N           -0.958926688197    -0.172888328968    -0.251112136600
    H           -0.577291690528     1.040838923443    -1.881620870004
    H           -0.280953173219     1.824998686790    -0.334732392513
    C           -2.388661811014     0.057832185150    -0.304662075271
    H           -2.797560214914    -0.344696964162    -1.227844148606
    H           -2.887989312671    -0.433514687120     0.520739597976
    H           -2.643279560347     1.118600543995    -0.286341413278

  Mulliken Charges: (a.u.)
   Center  Symbol    Alpha    Beta     Spin     Total
       1     H     0.32950  0.32950  0.00000  0.34100
       2     N     3.85432  3.85432  0.00000 -0.70863
       3     C     3.06404  3.06404  0.00000 -0.12809
       4     C     3.06360  3.06360  0.00000 -0.12721
       5     H     0.41795  0.41795  0.00000  0.16411
       6     H     0.42815  0.42815  0.00000  0.14369
       7     C     3.05110  3.05110  0.00000 -0.10220
       8     H     0.41788  0.41788  0.00000  0.16424
       9     H     0.42812  0.42812  0.00000  0.14376
      10     C     3.05200  3.05200  0.00000 -0.10400
      11     H     0.42899  0.42899  0.00000  0.14202
      12     H     0.41906  0.41906  0.00000  0.16189
      13     N     3.79447  3.79447  0.00000 -0.58894
      14     H     0.41882  0.41882  0.00000  0.16236
      15     H     0.42829  0.42829  0.00000  0.14342
      16     C     3.13790  3.13790  0.00000 -0.27580
      17     H     0.41731  0.41731  0.00000  0.16537
      18     H     0.41919  0.41919  0.00000  0.16162
      19     H     0.42930  0.42930  0.00000  0.14140

   Total alpha = 28.00000, Total beta = 28.00000, Total charge = -0.00000
