  ==> Input File <==

--------------------------------------------------------------------------
set {
	reference rhf
	basis 6-31G*
}

set_num_threads( 4 )
memory 2 gb

molecule MOL {
0 1

O	 -0.682937	 1.318834	 -0.186099
C	 -0.860635	 0.152188	 -0.042321
C	 -2.173363	 -0.477127	 0.338347
O	 0.083258	 -0.765189	 -0.202595
H	 -2.477673	 -1.180929	 -0.427595
H	 -2.923125	 0.290956	 0.455536
H	 -2.058825	 -1.029004	 1.264191
C	 1.392086	 -0.334687	 -0.569248
C	 2.197188	 0.093489	 0.643651
H	 1.313707	 0.464735	 -1.290304
H	 1.837415	 -1.196496	 -1.045133
H	 3.210141	 0.342638	 0.342684
H	 1.757073	 0.965592	 1.110666
H	 2.245729	 -0.708839	 1.371887

	symmetry c1
}
set optking {
	frozen_dihedral = ("
		8 4 2 1
	")
}

ee = optimize('scf')
oeprop('DIPOLE', 'QUADRUPOLE', 'MULLIKEN_CHARGES')
f=open( 'psi4out.xyz', 'w' )
f.write( "14  " )
f.write( str(ee) + "\n" )
f.write( MOL.save_string_xyz() )
f.close()
--------------------------------------------------------------------------

    Molecular point group: c1
  Charge       = 0
  Multiplicity = 1
  Basis Set: 6-31G*
  Basis Set:

    Orbital Energies (a.u.)
    -----------------------

    Doubly Occupied:

       1A    -20.601927     2A    -20.544681     3A    -11.375970
       4A    -11.285289     5A    -11.233394     6A    -11.218421
       7A     -1.467686     8A     -1.362894     9A     -1.055052
      10A     -0.998748    11A     -0.882720    12A     -0.765302
      13A     -0.699317    14A     -0.681973    15A     -0.657139
      16A     -0.610372    17A     -0.587015    18A     -0.570138
      19A     -0.558892    20A     -0.528885    21A     -0.516444
      22A     -0.494318    23A     -0.450648    24A     -0.438943

  @DF-RHF Final Energy:  -305.87549733135666

   => Energetics <=

    Nuclear Repulsion Energy =            248.8325872984729870
    One-Electron Energy =                -910.2438380103935742
    Two-Electron Energy =                 355.5357533805641310
    DFT Exchange-Correlation Energy =       0.0000000000000000
    Empirical Dispersion Energy =           0.0000000000000000
    PCM Polarization Energy =               0.0000000000000000
    EFP Energy =                            0.0000000000000000
    Total Energy =                       -305.8754973313564847
    Molecular point group: c1
  Basis Set: 6-31G*
  Basis Set:

  -Total Gradient:
     Atom            X                  Y                   Z
    ------   -----------------  -----------------  -----------------
       1        0.000014974416     0.000009719343    -0.000017233453
       2        0.000034021059    -0.000049976524     0.000018612913
       3       -0.000008141457     0.000003737191    -0.000003831573
       4       -0.000036559429     0.000033268571    -0.000020759997
       5       -0.000000856111     0.000001260519     0.000007036985
       6        0.000003246524    -0.000002845581     0.000000436517
       7       -0.000002455783    -0.000001290560    -0.000002564127
       8        0.000006493372     0.000009291204     0.000012360221
       9       -0.000006192760     0.000008063686    -0.000003094858
      10       -0.000006968007    -0.000017323889     0.000020798342
      11       -0.000000492211     0.000004079579    -0.000006983947
      12        0.000002572544    -0.000001648897     0.000000365836
      13        0.000000136819     0.000000978774     0.000002345469
      14        0.000000221026     0.000002686580    -0.000007488328

  **** Optimization is complete! (in 1 steps) ****
    Final optimized geometry and variables:
    Molecular point group: c1

    Geometry (in Angstrom), charge = 0, multiplicity = 1:

    O           -0.682921860698     1.318896898338    -0.186370387536
    C           -0.860619860698     0.152250898338    -0.042592387536
    C           -2.173347860698    -0.477064101662     0.338075612464
    O            0.083273139302    -0.765126101662    -0.202866387536
    H           -2.477657860698    -1.180866101662    -0.427866387536
    H           -2.923109860698     0.291018898338     0.455264612464
    H           -2.058809860698    -1.028941101662     1.263919612464
    C            1.392101139302    -0.334624101662    -0.569519387536
    C            2.197203139302     0.093551898338     0.643379612464
    H            1.313722139302     0.464797898338    -1.290575387536
    H            1.837430139302    -1.196433101662    -1.045404387536
    H            3.210156139302     0.342700898338     0.342412612464
    H            1.757088139302     0.965654898338     1.110394612464
    H            2.245744139302    -0.708776101662     1.371615612464

  Mulliken Charges: (a.u.)
   Center  Symbol    Alpha    Beta     Spin     Total
       1     O     4.28456  4.28456  0.00000 -0.56913
       2     C     2.61995  2.61995  0.00000  0.76009
       3     C     3.28158  3.28158  0.00000 -0.56316
       4     O     4.30715  4.30715  0.00000 -0.61429
       5     H     0.40019  0.40019  0.00000  0.19961
       6     H     0.39706  0.39706  0.00000  0.20589
       7     H     0.40046  0.40046  0.00000  0.19909
       8     C     3.00680  3.00680  0.00000 -0.01361
       9     C     3.25489  3.25489  0.00000 -0.50978
      10     H     0.40290  0.40290  0.00000  0.19421
      11     H     0.41005  0.41005  0.00000  0.17990
      12     H     0.41759  0.41759  0.00000  0.16482
      13     H     0.40236  0.40236  0.00000  0.19529
      14     H     0.41446  0.41446  0.00000  0.17107

   Total alpha = 24.00000, Total beta = 24.00000, Total charge = -0.00000
