  ==> Input File <==

--------------------------------------------------------------------------
set {
	reference rhf
	basis 6-31G*
}

set_num_threads( 4 )
memory 2 gb

molecule MOL {
0 1

H	 2.652209	 0.763231	 0.000000
O	 2.263154	 -0.100023	 0.000000
C	 0.912879	 -0.015685	 0.000000
C	 0.323975	 0.815011	 0.944308
C	 0.124250	 -0.719347	 -0.895550
H	 0.953561	 1.351697	 1.629434
C	 -1.051625	 0.934089	 0.983748
H	 0.581818	 -1.363541	 -1.627783
C	 -1.256069	 -0.590338	 -0.844648
H	 -1.502878	 1.578684	 1.716928
C	 -1.852986	 0.233855	 0.091330
H	 -1.861097	 -1.140097	 -1.543501
H	 -2.922503	 0.331560	 0.128087

	symmetry c1
}
set optking {
	frozen_dihedral = ("
		4 3 2 1
	")
}

ee = optimize('scf')
oeprop('DIPOLE', 'QUADRUPOLE', 'MULLIKEN_CHARGES')
f=open( 'psi4out.xyz', 'w' )
f.write( "13  " )
f.write( str(ee) + "\n" )
f.write( MOL.save_string_xyz() )
f.close()
--------------------------------------------------------------------------

    Molecular point group: c1
  Charge       = 0
  Multiplicity = 1
  Basis Set: 6-31G*
  Basis Set:
  @DF-RHF Final Energy:  -305.55346138256948
    Total Energy =                       -305.5534613825694805
    Molecular point group: c1
  Basis Set: 6-31G*
  Basis Set:
  Basis Set: 6-31G*
  Basis Set:
  @DF-RHF Final Energy:  -305.55496375196788
    Total Energy =                       -305.5549637519683301
  Basis Set: 6-31G*
  Basis Set:
  Basis Set: 6-31G*
  Basis Set:
  @DF-RHF Final Energy:  -305.55506962574805
    Total Energy =                       -305.5550696257482741
  Basis Set: 6-31G*
  Basis Set:
  Basis Set: 6-31G*
  Basis Set:
  @DF-RHF Final Energy:  -305.55508163172533
    Total Energy =                       -305.5550816317253862
  Basis Set: 6-31G*
  Basis Set:
  Charge       = 0
  Multiplicity = 1
  Basis Set: 6-31G*
  Basis Set:

    Orbital Energies (a.u.)
    -----------------------

    Doubly Occupied:

       1A    -20.582298     2A    -11.292554     3A    -11.235829
       4A    -11.234377     5A    -11.227874     6A    -11.225160
       7A    -11.223828     8A     -1.398670     9A     -1.147426
      10A     -1.018152    11A     -1.003751    12A     -0.839922
      13A     -0.822502    14A     -0.733655    15A     -0.681592
      16A     -0.647104    17A     -0.620664    18A     -0.592728
      19A     -0.588381    20A     -0.534286    21A     -0.513469
      22A     -0.491364    23A     -0.472591    24A     -0.337116
      25A     -0.317241

  @DF-RHF Final Energy:  -305.55508413212351

   => Energetics <=

    Nuclear Repulsion Energy =            272.8484629860848827
    One-Electron Energy =                -955.2420264365591720
    Two-Electron Energy =                 376.8384793183507782
    DFT Exchange-Correlation Energy =       0.0000000000000000
    Empirical Dispersion Energy =           0.0000000000000000
    PCM Polarization Energy =               0.0000000000000000
    EFP Energy =                            0.0000000000000000
    Total Energy =                       -305.5550841321235112
    Molecular point group: c1
  Basis Set: 6-31G*
  Basis Set:

  -Total Gradient:
     Atom            X                  Y                   Z
    ------   -----------------  -----------------  -----------------
       1       -0.000095587012     0.000083386093    -0.002414199591
       2        0.000078346217    -0.000852489143     0.003578151066
       3       -0.000013277722     0.002028657165    -0.002381261335
       4       -0.000043743629    -0.001359069699     0.001172756964
       5        0.000159252684     0.000009323899     0.000000688879
       6       -0.000061565336    -0.000008640936    -0.000026262309
       7        0.000031667351     0.000034883231    -0.000022142469
       8        0.000071186914     0.000009274291     0.000013879486
       9       -0.000119574636     0.000091278023     0.000030801435
      10       -0.000054557267    -0.000007906712     0.000007643165
      11        0.000019125127    -0.000078250051    -0.000041702152
      12        0.000027253103     0.000005547590     0.000017402112
      13        0.000001474206     0.000044006248     0.000064244749

  **** Optimization is complete! (in 5 steps) ****
    Final optimized geometry and variables:
    Molecular point group: c1

    Geometry (in Angstrom), charge = 0, multiplicity = 1:

    H            2.695271410588     0.611008869308    -0.065145145619
    O            2.259508546719    -0.229879866378    -0.079163587900
    C            0.906419772649    -0.065635693072    -0.034965589653
    C            0.308849506608     0.747465914015     0.915408664140
    C            0.128597841481    -0.784306021442    -0.927482697722
    H            0.921077319462     1.281679585342     1.620878671491
    C           -1.071597453755     0.858555652645     0.952904582350
    H            0.613626190146    -1.415837233518    -1.648460975009
    C           -1.250979846172    -0.677444844027    -0.872919787482
    H           -1.531616727587     1.494664346656     1.688072336883
    C           -1.858061891698     0.146702337916     0.061973415594
    H           -1.852354285248    -1.236681314321    -1.567308276151
    H           -2.929085165989     0.230472870395     0.098167618988

  Mulliken Charges: (a.u.)
   Center  Symbol    Alpha    Beta     Spin     Total
       1     H     0.27234  0.27234  0.00000  0.45532
       2     O     4.38366  4.38366  0.00000 -0.76732
       3     C     2.80891  2.80891  0.00000  0.38217
       4     C     3.13058  3.13058  0.00000 -0.26117
       5     C     3.11924  3.11924  0.00000 -0.23848
       6     H     0.39986  0.39986  0.00000  0.20028
       7     C     3.09403  3.09403  0.00000 -0.18805
       8     H     0.39208  0.39208  0.00000  0.21585
       9     C     3.09443  3.09443  0.00000 -0.18886
      10     H     0.39826  0.39826  0.00000  0.20349
      11     C     3.10865  3.10865  0.00000 -0.21729
      12     H     0.39800  0.39800  0.00000  0.20400
      13     H     0.39997  0.39997  0.00000  0.20006

   Total alpha = 25.00000, Total beta = 25.00000, Total charge = -0.00000
