                              Psi4 1.0.54 Driver

  ==> Input File <==

--------------------------------------------------------------------------
set {
	reference rhf
	basis cc-pvtz
}

set_num_threads( 4 )
memory 2 gb

molecule MOL {
0 1

H	 -2.362939	 -1.309000	 -0.383250
C	 -1.359344	 -1.272457	 0.020748
C	 -0.684082	 0.000127	 -0.464918
H	 -0.825835	 -2.151141	 -0.318537
H	 -1.416276	 -1.292399	 1.099455
C	 -1.359089	 1.272668	 0.021259
N	 0.742439	 -0.000109	 0.007333
H	 -0.596914	 0.000345	 -1.538146
H	 -2.362696	 1.309620	 -0.382686
H	 -0.825392	 2.151374	 -0.317674
H	 -1.415983	 1.292181	 1.099973
O	 0.948406	 0.359555	 1.117227
O	 1.572164	 -0.360105	 -0.759641

	symmetry c1
}
set optking {
	frozen_dihedral = ("
		12 7 3 8
	")
}

ee,wfn = optimize('scf', return_wfn=True)
oeprop( wfn, 'DIPOLE', 'QUADRUPOLE', 'MULLIKEN_CHARGES')
f=open( 'psi4out.xyz', 'w' )
f.write( "13  " )
f.write( str(ee) + "\n" )
f.write( MOL.save_string_xyz() )
f.close()
--------------------------------------------------------------------------

    Molecular point group: c1
  Charge       = 0
  Multiplicity = 1
  Basis Set: CC-PVTZ
  Basis Set:
  @DF-RHF Final Energy:  -321.86415578573815
    Total Energy =                       -321.8641557857383191
    Molecular point group: c1
  Basis Set: CC-PVTZ
  Basis Set:
  Basis Set: CC-PVTZ
  Basis Set:
  @DF-RHF Final Energy:  -321.86024202198917
    Total Energy =                       -321.8602420219894498
  Basis Set: CC-PVTZ
  Basis Set:
  Basis Set: CC-PVTZ
  Basis Set:
  @DF-RHF Final Energy:  -321.86426239974435
    Total Energy =                       -321.8642623997443479
  Basis Set: CC-PVTZ
  Basis Set:
  Basis Set: CC-PVTZ
  Basis Set:
  @DF-RHF Final Energy:  -321.86431996967673
    Total Energy =                       -321.8643199696768420
  Basis Set: CC-PVTZ
  Basis Set:
  Basis Set: CC-PVTZ
  Basis Set:
  @DF-RHF Final Energy:  -321.86421764609270
    Total Energy =                       -321.8642176460926976
  Basis Set: CC-PVTZ
  Basis Set:
  Basis Set: CC-PVTZ
  Basis Set:
  @DF-RHF Final Energy:  -321.86441825110268
    Total Energy =                       -321.8644182511027338
  Basis Set: CC-PVTZ
  Basis Set:
  Charge       = 0
  Multiplicity = 1
  Basis Set: CC-PVTZ
  Basis Set:

    Orbital Energies (a.u.)
    -----------------------

    Doubly Occupied:

       1A    -20.589089     2A    -20.588722     3A    -15.832687
       4A    -11.304442     5A    -11.245323     6A    -11.240317
       7A     -1.633936     8A     -1.418176     9A     -1.142511
      10A     -0.973764    11A     -0.957271    12A     -0.816448
      13A     -0.753303    14A     -0.732361    15A     -0.726430
      16A     -0.649571    17A     -0.594868    18A     -0.588038
      19A     -0.571228    20A     -0.529979    21A     -0.522353
      22A     -0.485281    23A     -0.470125    24A     -0.452099

  @DF-RHF Final Energy:  -321.86441840192015

   => Energetics <=

    Nuclear Repulsion Energy =            257.3586322835038800
    One-Electron Energy =                -948.8094631523734961
    Two-Electron Energy =                 369.5864124669492412
    DFT Exchange-Correlation Energy =       0.0000000000000000
    Empirical Dispersion Energy =           0.0000000000000000
    PCM Polarization Energy =               0.0000000000000000
    EFP Energy =                            0.0000000000000000
    Total Energy =                       -321.8644184019203749
    Molecular point group: c1
  Basis Set: CC-PVTZ
  Basis Set:

  -Total Gradient:
     Atom            X                  Y                   Z
    ------   -----------------  -----------------  -----------------
       1       -0.000004781278    -0.000005525755     0.000000902282
       2        0.000001549004     0.000015761849    -0.000011864455
       3       -0.000004114986    -0.000498180049    -0.000052059724
       4        0.000000991069    -0.000009853405     0.000004234024
       5       -0.000001452029     0.000001899898    -0.000003368676
       6       -0.000009408947     0.000019750762     0.000000711576
       7       -0.000105865010    -0.000619380782     0.000284613738
       8        0.000014936709     0.000577605597     0.000006183746
       9        0.000004494117     0.000000781278     0.000001275115
      10        0.000000806746     0.000003791607     0.000000293060
      11        0.000001296777    -0.000008188708    -0.000001987385
      12        0.000086459794     0.000511388913    -0.000263921182
      13        0.000015088032     0.000010148794     0.000034987882

  **** Optimization is complete! (in 7 steps) ****
    Final optimized geometry and variables:
    Molecular point group: c1

    Geometry (in Angstrom), charge = 0, multiplicity = 1:

    H           -2.350016740997    -1.297063257464    -0.406306242143
    C           -1.347784939292    -1.255882259695    -0.000252432515
    C           -0.673522638936     0.023352832794    -0.477958724439
    H           -0.806386663341    -2.129332271941    -0.337979582594
    H           -1.411663329455    -1.274913679559     1.079486751519
    C           -1.373928094482     1.289132683284    -0.020401351147
    N            0.743370573215    -0.000878461565     0.024304667947
    H           -0.561898113010     0.011088269081    -1.549314555605
    H           -2.357739616474     1.318001407982    -0.472013740853
    H           -0.831831448382     2.172133878290    -0.332640994969
    H           -1.481464277602     1.312057385835     1.053602463061
    O            0.945148401571     0.363579387756     1.133760677315
    O            1.568841151315    -0.412331497253    -0.720146191314

  Mulliken Charges: (a.u.)
   Center  Symbol    Alpha    Beta     Spin     Total
       1     H     0.44844  0.44844  0.00000  0.10311
       2     C     3.14301  3.14301  0.00000 -0.28602
       3     C     3.00770  3.00770  0.00000 -0.01541
       4     H     0.43796  0.43796  0.00000  0.12408
       5     H     0.44150  0.44150  0.00000  0.11700
       6     C     3.14450  3.14450  0.00000 -0.28900
       7     N     3.27456  3.27456  0.00000  0.45087
       8     H     0.42528  0.42528  0.00000  0.14945
       9     H     0.44995  0.44995  0.00000  0.10009
      10     H     0.44118  0.44118  0.00000  0.11764
      11     H     0.43829  0.43829  0.00000  0.12343
      12     O     4.17597  4.17597  0.00000 -0.35195
      13     O     4.17165  4.17165  0.00000 -0.34330

   Total alpha = 24.00000, Total beta = 24.00000, Total charge = -0.00000

*** Psi4 exiting successfully. Buy a developer a beer!
