  ==> Input File <==

--------------------------------------------------------------------------
set {
	reference rhf
	basis cc-pvtz
}

set_num_threads( 4 )
memory 2 gb

molecule MOL {
0 1

H	 2.526990	 -1.049037	 -1.113216
N	 1.549174	 -0.858076	 -1.131069
C	 1.272756	 0.450512	 -0.573366
C	 0.811777	 -1.897598	 -0.441517
H	 1.821233	 1.197568	 -1.134108
H	 1.574909	 0.527207	 0.472789
C	 -0.214989	 0.735521	 -0.670635
H	 1.026218	 -2.852037	 -0.906719
H	 1.084805	 -1.969259	 0.612968
C	 -0.675364	 -1.609513	 -0.538960
H	 -0.493463	 0.815104	 -1.725486
H	 -0.432129	 1.687662	 -0.201172
N	 -0.976577	 -0.298712	 -0.000000
H	 -1.225385	 -2.352978	 0.025713
H	 -0.985554	 -1.691482	 -1.584739
C	 -2.391156	 -0.021003	 -0.000000
H	 -2.853954	 -0.458728	 -0.875714
H	 -2.853954	 -0.458728	 0.875714
H	 -2.614037	 1.049773	 -0.000000

	symmetry c1
}
set optking {
	frozen_dihedral = ("
		7 13 16 19
	")
}

ee = optimize('scf')
oeprop('DIPOLE', 'QUADRUPOLE', 'MULLIKEN_CHARGES')
f=open( 'psi4out.xyz', 'w' )
f.write( "19  " )
f.write( str(ee) + "\n" )
f.write( MOL.save_string_xyz() )
f.close()
--------------------------------------------------------------------------

    Molecular point group: c1
  Charge       = 0
  Multiplicity = 1
  Basis Set: CC-PVTZ
  Basis Set:
  @DF-RHF Final Energy:  -305.30574391156364
    Total Energy =                       -305.3057439115636384
    Molecular point group: c1
  Basis Set: CC-PVTZ
  Basis Set:
  Basis Set: CC-PVTZ
  Basis Set:
  @DF-RHF Final Energy:  -305.30662458287264
    Total Energy =                       -305.3066245828724732
  Basis Set: CC-PVTZ
  Basis Set:
  Basis Set: CC-PVTZ
  Basis Set:
  @DF-RHF Final Energy:  -305.30673215066150
    Total Energy =                       -305.3067321506614462
  Basis Set: CC-PVTZ
  Basis Set:
  Basis Set: CC-PVTZ
  Basis Set:
  @DF-RHF Final Energy:  -305.30673803155514
    Total Energy =                       -305.3067380315546870
  Basis Set: CC-PVTZ
  Basis Set:
  Charge       = 0
  Multiplicity = 1
  Basis Set: CC-PVTZ
  Basis Set:

    Orbital Energies (a.u.)
    -----------------------

    Doubly Occupied:

       1A    -15.534017     2A    -15.531112     3A    -11.237021
       4A    -11.237002     5A    -11.236072     6A    -11.235785
       7A    -11.233237     8A     -1.248109     9A     -1.186700
      10A     -1.024268    11A     -0.965654    12A     -0.862241
      13A     -0.858432    14A     -0.756428    15A     -0.692473
      16A     -0.634460    17A     -0.626937    18A     -0.607282
      19A     -0.605956    20A     -0.582276    21A     -0.544626
      22A     -0.531020    23A     -0.512291    24A     -0.489565
      25A     -0.469002    26A     -0.458513    27A     -0.365978
      28A     -0.342296

  @DF-RHF Final Energy:  -305.30673867344069

   => Energetics <=

    Nuclear Repulsion Energy =            340.0461920758240240
    One-Electron Energy =               -1087.4883527751492238
    Two-Electron Energy =                 442.1354220258842815
    DFT Exchange-Correlation Energy =       0.0000000000000000
    Empirical Dispersion Energy =           0.0000000000000000
    PCM Polarization Energy =               0.0000000000000000
    EFP Energy =                            0.0000000000000000
    Total Energy =                       -305.3067386734409183
    Molecular point group: c1
  Basis Set: CC-PVTZ
  Basis Set:

  -Total Gradient:
     Atom            X                  Y                   Z
    ------   -----------------  -----------------  -----------------
       1       -0.000000375858     0.000004472156     0.000000594077
       2       -0.000011973714     0.000005832119    -0.000001799746
       3        0.000013917004     0.000008060408     0.000014110683
       4       -0.000007124389    -0.000017965590    -0.000016072622
       5        0.000010102305    -0.000000465260    -0.000001865553
       6       -0.000000812655     0.000003323982     0.000002876867
       7        0.000388594122     0.001549524001     0.002900515621
       8        0.000015677707    -0.000007326962    -0.000001833983
       9       -0.000009536277     0.000004709475    -0.000010732742
      10       -0.000004147838    -0.000008587168     0.000021784392
      11       -0.000011330128    -0.000008480359     0.000012332715
      12        0.000004516402    -0.000004515583     0.000000940197
      13       -0.000548038069    -0.002137040166    -0.005229280591
      14       -0.000006119737     0.000000583845    -0.000002017599
      15        0.000007982648     0.000010247732     0.000015004732
      16        0.000274879050     0.000467853653     0.006683593317
      17       -0.000017668184    -0.000004708163    -0.000007530175
      18        0.000023838540    -0.000008151819    -0.000034238651
      19       -0.000122380932     0.000142633702    -0.004346380936

  **** Optimization is complete! (in 5 steps) ****
    Final optimized geometry and variables:
    Molecular point group: c1

    Geometry (in Angstrom), charge = 0, multiplicity = 1:

    H            2.628091379036    -0.549959124740    -0.619659053477
    N            1.649980989932    -0.360515368612    -0.640410003402
    C            1.371186243277     0.950364107260    -0.089415554235
    C            0.912756620419    -1.397671078770     0.052701785392
    H            1.929736710358     1.694376702719    -0.644397370382
    H            1.660677674159     1.027132316593     0.960518681666
    C           -0.114500378090     1.242642684846    -0.203945037758
    H            1.134406563301    -2.355290670143    -0.402695769368
    H            1.179308218530    -1.458759067995     1.109611954993
    C           -0.574508144046    -1.115140356952    -0.058322674552
    H           -0.374522963186     1.339214088301    -1.262693963469
    H           -0.331793279088     2.188929317718     0.275778712361
    N           -0.882979519241     0.203577731947     0.446896670530
    H           -1.127008466204    -1.847602246186     0.519361030397
    H           -0.880070772748    -1.221860918313    -1.103459148129
    C           -2.301883361348     0.465703737489     0.496269015430
    H           -2.823107715246     0.098305353240    -0.391619458472
    H           -2.751545341448    -0.002680844110     1.363655967912
    H           -2.483638230840     1.531546071180     0.535271572423

  Mulliken Charges: (a.u.)
   Center  Symbol    Alpha    Beta     Spin     Total
       1     H     0.43992  0.43992  0.00000  0.12016
       2     N     3.64280  3.64280  0.00000 -0.28560
       3     C     3.04180  3.04180  0.00000 -0.08360
       4     C     3.04098  3.04098  0.00000 -0.08197
       5     H     0.45259  0.45259  0.00000  0.09481
       6     H     0.46594  0.46594  0.00000  0.06812
       7     C     3.03193  3.03193  0.00000 -0.06386
       8     H     0.45255  0.45255  0.00000  0.09489
       9     H     0.46581  0.46581  0.00000  0.06838
      10     C     3.03382  3.03382  0.00000 -0.06764
      11     H     0.47033  0.47033  0.00000  0.05935
      12     H     0.45428  0.45428  0.00000  0.09145
      13     N     3.61463  3.61463  0.00000 -0.22927
      14     H     0.45458  0.45458  0.00000  0.09084
      15     H     0.46843  0.46843  0.00000  0.06314
      16     C     3.09516  3.09516  0.00000 -0.19032
      17     H     0.46904  0.46904  0.00000  0.06192
      18     H     0.45047  0.45047  0.00000  0.09906
      19     H     0.45494  0.45494  0.00000  0.09012

   Total alpha = 28.00000, Total beta = 28.00000, Total charge =  0.00000
