  ==> Input File <==

--------------------------------------------------------------------------
set {
	reference rhf
	basis 6-31G*
}

set_num_threads( 4 )
memory 2 gb

molecule MOL {
0 1

H	 -3.161837	 0.500524	 -0.000234
C	 -2.367097	 -0.232926	 -0.000000
O	 -1.158440	 0.455814	 -0.000122
H	 -2.468853	 -0.861886	 -0.882833
H	 -2.468942	 -0.861421	 0.883154
C	 -0.029776	 -0.365156	 0.000148
C	 0.528594	 -0.431323	 -1.410705
H	 -0.292346	 -1.364193	 0.350693
H	 0.720972	 0.029034	 0.686369
C	 1.772580	 -1.313523	 -1.506113
H	 -0.247805	 -0.805347	 -2.070987
H	 0.758495	 0.578094	 -1.737695
H	 1.557856	 -2.335415	 -1.206024
H	 2.149797	 -1.342314	 -2.522835
H	 2.571204	 -0.942526	 -0.869745

	symmetry c1
}
set optking {
	frozen_dihedral = ("
		8 6 3 2
	")
}

ee = optimize('scf')
oeprop('DIPOLE', 'QUADRUPOLE', 'MULLIKEN_CHARGES')
f=open( 'psi4out.xyz', 'w' )
f.write( "15  " )
f.write( str(ee) + "\n" )
f.write( MOL.save_string_xyz() )
f.close()
--------------------------------------------------------------------------

    Molecular point group: c1
  Charge       = 0
  Multiplicity = 1
  Basis Set: 6-31G*
  Basis Set:
  @DF-RHF Final Energy:  -232.13522685454288
    Total Energy =                       -232.1352268545428501
    Molecular point group: c1
  Basis Set: 6-31G*
  Basis Set:
  Basis Set: 6-31G*
  Basis Set:
  @DF-RHF Final Energy:  -232.13587396224469
    Total Energy =                       -232.1358739622450003
  Basis Set: 6-31G*
  Basis Set:
  Basis Set: 6-31G*
  Basis Set:
  @DF-RHF Final Energy:  -232.13605092397688
    Total Energy =                       -232.1360509239767680
  Basis Set: 6-31G*
  Basis Set:
  Basis Set: 6-31G*
  Basis Set:
  @DF-RHF Final Energy:  -232.13605286573139
    Total Energy =                       -232.1360528657313580
  Basis Set: 6-31G*
  Basis Set:
  Charge       = 0
  Multiplicity = 1
  Basis Set: 6-31G*
  Basis Set:

    Orbital Energies (a.u.)
    -----------------------

    Doubly Occupied:

       1A    -20.550695     2A    -11.266028     3A    -11.264641
       4A    -11.214746     5A    -11.213650     6A     -1.373829
       7A     -1.055935     8A     -0.957215     9A     -0.880701
      10A     -0.807452    11A     -0.669421    12A     -0.653676
      13A     -0.636183    14A     -0.598632    15A     -0.568817
      16A     -0.536248    17A     -0.511085    18A     -0.495746
      19A     -0.482372    20A     -0.460840    21A     -0.403900

  @DF-RHF Final Energy:  -232.13605302657231

   => Energetics <=

    Nuclear Repulsion Energy =            190.6449698385505371
    One-Electron Energy =                -692.3584249455070676
    Two-Electron Energy =                 269.5774020803843314
    DFT Exchange-Correlation Energy =       0.0000000000000000
    Empirical Dispersion Energy =           0.0000000000000000
    PCM Polarization Energy =               0.0000000000000000
    EFP Energy =                            0.0000000000000000
    Total Energy =                       -232.1360530265721991
    Molecular point group: c1
  Basis Set: 6-31G*
  Basis Set:

  -Total Gradient:
     Atom            X                  Y                   Z
    ------   -----------------  -----------------  -----------------
       1       -0.000002802976    -0.000006680262    -0.000000505422
       2        0.000028274842    -0.000017457834     0.001129421379
       3       -0.000113117254    -0.000060601249    -0.001977190784
       4        0.000000526039    -0.000001149577     0.000002014740
       5        0.000000459213    -0.000003311763    -0.000001115225
       6        0.000396950795     0.000479366010     0.002159899353
       7       -0.000018157607    -0.000016476486     0.000028448320
       8       -0.000318425464    -0.000367075648    -0.001314268749
       9        0.000005451211    -0.000004722837     0.000000591398
      10        0.000015876247     0.000017739769    -0.000017001227
      11       -0.000004537102    -0.000000282988     0.000001782832
      12        0.000000255088    -0.000004679066    -0.000006133352
      13       -0.000002725853     0.000002122448    -0.000005336414
      14        0.000016856158    -0.000007324985    -0.000002879476
      15       -0.000004883336    -0.000009465531     0.000002272626

  **** Optimization is complete! (in 5 steps) ****
    Final optimized geometry and variables:
    Molecular point group: c1

    Geometry (in Angstrom), charge = 0, multiplicity = 1:

    H           -2.893198035684     0.927857159134     0.609067552356
    C           -2.120716838815     0.170791194921     0.608604185998
    O           -0.892955825576     0.827437572453     0.586835229338
    H           -2.258929468630    -0.465158816005    -0.263543234356
    H           -2.229658386015    -0.440654468159     1.501960868032
    C            0.237428312673    -0.000380570179     0.541562690354
    C            0.825843095407    -0.058897103307    -0.862942228034
    H           -0.011507667966    -1.004706101109     0.879496949992
    H            0.966631242544     0.406972468784     1.233988506902
    C            2.085802319364    -0.921026642214    -0.932910405763
    H            0.074819726495    -0.444543011881    -1.547752741253
    H            1.046997668712     0.954631182862    -1.183372235637
    H            1.880163161500    -1.948312180961    -0.644263982997
    H            2.491720247399    -0.937758713020    -1.938866417443
    H            2.860349167026    -0.541628204827    -0.272146513616

  Mulliken Charges: (a.u.)
   Center  Symbol    Alpha    Beta     Spin     Total
       1     H     0.41264  0.41264  0.00000  0.17473
       2     C     3.07967  3.07967  0.00000 -0.15934
       3     O     4.30811  4.30811  0.00000 -0.61622
       4     H     0.43127  0.43127  0.00000  0.13745
       5     H     0.42915  0.42915  0.00000  0.14170
       6     C     2.98738  2.98738  0.00000  0.02524
       7     C     3.15923  3.15923  0.00000 -0.31847
       8     H     0.43229  0.43229  0.00000  0.13542
       9     H     0.41921  0.41921  0.00000  0.16159
      10     C     3.24862  3.24862  0.00000 -0.49725
      11     H     0.42132  0.42132  0.00000  0.15736
      12     H     0.41391  0.41391  0.00000  0.17218
      13     H     0.42158  0.42158  0.00000  0.15684
      14     H     0.41559  0.41559  0.00000  0.16882
      15     H     0.42003  0.42003  0.00000  0.15994

   Total alpha = 21.00000, Total beta = 21.00000, Total charge = -0.00000
