  ==> Input File <==

--------------------------------------------------------------------------
set {
	reference rhf
	basis 6-31G*
}

set_num_threads( 1 )
memory 2 gb

molecule MOL {
0 1

H	 -0.870250	 -1.043010	 -0.804926
O	 -1.422729	 -0.573567	 -0.196946
C	 -0.731407	 0.539437	 0.309156
C	 0.680193	 0.672443	 -0.251532
H	 -1.319765	 1.404033	 0.030086
H	 -0.700012	 0.506517	 1.397677
C	 1.599139	 -0.492137	 0.118598
H	 0.616402	 0.758534	 -1.332349
H	 1.107032	 1.602637	 0.117369
H	 1.239738	 -1.428634	 -0.297334
H	 2.601428	 -0.335055	 -0.265730
H	 1.674954	 -0.608418	 1.197020

	symmetry c1
}
set optking {
	frozen_dihedral = ("
		8 4 3 2
	")
}

ee = energy('scf')
oeprop('DIPOLE', 'QUADRUPOLE', 'MULLIKEN_CHARGES')
f=open( 'psi4out.xyz', 'w' )
f.write( "12  " )
f.write( str(ee) + "\n" )
f.write( MOL.save_string_xyz() )
f.close()
--------------------------------------------------------------------------

    Molecular point group: c1

    Geometry (in Angstrom), charge = 0, multiplicity = 1:

       Center              X                  Y                   Z               Mass
    ------------   -----------------  -----------------  -----------------  -----------------
           H         -0.873617327251    -1.048439258284    -0.788386350155     1.007825032070
           O         -1.426096327251    -0.578996258284    -0.180406350155    15.994914619560
           C         -0.734774327251     0.534007741716     0.325695649845    12.000000000000
           C          0.676825672749     0.667013741716    -0.234992350155    12.000000000000
           H         -1.323132327251     1.398603741716     0.046625649845     1.007825032070
           H         -0.703379327251     0.501087741716     1.414216649845     1.007825032070
           C          1.595771672749    -0.497566258284     0.135137649845    12.000000000000
           H          0.613034672749     0.753104741716    -1.315809350155     1.007825032070
           H          1.103664672749     1.597207741716     0.133908649845     1.007825032070
           H          1.236370672749    -1.434063258284    -0.280794350155     1.007825032070
           H          2.598060672749    -0.340484258284    -0.249190350155     1.007825032070
           H          1.671586672749    -0.613847258284     1.213559649845     1.007825032070

  Charge       = 0
  Multiplicity = 1
  Basis Set: 6-31G*
  Basis Set:

    Orbital Energies (a.u.)
    -----------------------

    Doubly Occupied:

       1A    -20.549683     2A    -11.266879     3A    -11.228190
       4A    -11.221961     5A     -1.358542     6A     -1.056019
       7A     -0.929008     8A     -0.819653     9A     -0.667951
      10A     -0.647694    11A     -0.629853    12A     -0.578809
      13A     -0.549063    14A     -0.511662    15A     -0.496174
      16A     -0.464956    17A     -0.430404

  @DF-RHF Final Energy:  -193.10634255137177

   => Energetics <=

    Nuclear Repulsion Energy =            133.3574613422260882
    One-Electron Energy =                -526.1147238024643684
    Two-Electron Energy =                 199.6509199088664559
    DFT Exchange-Correlation Energy =       0.0000000000000000
    Empirical Dispersion Energy =           0.0000000000000000
    PCM Polarization Energy =               0.0000000000000000
    EFP Energy =                            0.0000000000000000
    Total Energy =                       -193.1063425513718244

  Mulliken Charges: (a.u.)
   Center  Symbol    Alpha    Beta     Spin     Total
       1     H     0.27844  0.27844  0.00000  0.44312
       2     O     4.37749  4.37749  0.00000 -0.75497
       3     C     2.97569  2.97569  0.00000  0.04862
       4     C     3.18859  3.18859  0.00000 -0.37718
       5     H     0.42284  0.42284  0.00000  0.15433
       6     H     0.42617  0.42617  0.00000  0.14766
       7     C     3.24127  3.24127  0.00000 -0.48254
       8     H     0.41861  0.41861  0.00000  0.16278
       9     H     0.41554  0.41554  0.00000  0.16891
      10     H     0.42494  0.42494  0.00000  0.15012
      11     H     0.41469  0.41469  0.00000  0.17063
      12     H     0.41574  0.41574  0.00000  0.16852

   Total alpha = 17.00000, Total beta = 17.00000, Total charge = -0.00000
