                              Psi4 1.0.54 Driver

  ==> Input File <==

--------------------------------------------------------------------------
set {
	reference rhf
	basis cc-pvtz
}

set_num_threads( 4 )
memory 2 gb

molecule MOL {
0 1

H	 -3.110807	 0.384515	 1.057488
O	 -2.310331	 -0.116033	 1.106566
C	 -1.605397	 0.107680	 0.001145
C	 -0.310616	 -0.658853	 0.000791
O	 -1.989339	 0.827286	 -0.854849
C	 0.926581	 0.227233	 0.000178
H	 -0.327628	 -1.313681	 -0.864448
H	 -0.327041	 -1.313334	 0.866298
C	 2.220156	 -0.582071	 -0.000088
H	 0.899945	 0.878221	 -0.866390
H	 0.900542	 0.878581	 0.866486
C	 3.466689	 0.296012	 -0.000457
H	 2.239073	 -1.234095	 -0.869382
H	 2.239505	 -1.233985	 0.869270
H	 3.493549	 0.935857	 -0.875887
H	 4.368821	 -0.304526	 -0.001199
H	 3.494559	 0.935166	 0.875458

	symmetry c1
}
set optking {
	frozen_dihedral = ("
		2 3 4 7
	")
}

ee,wfn = optimize('scf', return_wfn=True)
oeprop( wfn, 'DIPOLE', 'QUADRUPOLE', 'MULLIKEN_CHARGES')
f=open( 'psi4out.xyz', 'w' )
f.write( "17  " )
f.write( str(ee) + "\n" )
f.write( MOL.save_string_xyz() )
f.close()
--------------------------------------------------------------------------

    Molecular point group: c1
  Charge       = 0
  Multiplicity = 1
  Basis Set: CC-PVTZ
  Basis Set:
  @DF-RHF Final Energy:  -345.04655863191272
    Total Energy =                       -345.0465586319122622
    Molecular point group: c1
  Basis Set: CC-PVTZ
  Basis Set:
  Basis Set: CC-PVTZ
  Basis Set:
  @DF-RHF Final Energy:  -345.04720865528327
    Total Energy =                       -345.0472086552834980
  Basis Set: CC-PVTZ
  Basis Set:
  Basis Set: CC-PVTZ
  Basis Set:
  @DF-RHF Final Energy:  -345.04708526079793
    Total Energy =                       -345.0470852607978713
  Basis Set: CC-PVTZ
  Basis Set:
  Basis Set: CC-PVTZ
  Basis Set:
  @DF-RHF Final Energy:  -345.04726405039503
    Total Energy =                       -345.0472640503948583
  Basis Set: CC-PVTZ
  Basis Set:
  Basis Set: CC-PVTZ
  Basis Set:
  @DF-RHF Final Energy:  -345.04731138247695
    Total Energy =                       -345.0473113824771190
  Basis Set: CC-PVTZ
  Basis Set:
  Charge       = 0
  Multiplicity = 1
  Basis Set: CC-PVTZ
  Basis Set:

    Orbital Energies (a.u.)
    -----------------------

    Doubly Occupied:

       1A    -20.606330     2A    -20.537717     3A    -11.373233
       4A    -11.237850     5A    -11.227780     6A    -11.223080
       7A    -11.212683     8A     -1.478044     9A     -1.368105
      10A     -1.094621    11A     -1.019964    12A     -0.913348
      13A     -0.826011    14A     -0.799997    15A     -0.705943
      16A     -0.687055    17A     -0.658504    18A     -0.638545
      19A     -0.592636    20A     -0.584282    21A     -0.581560
      22A     -0.538862    23A     -0.514989    24A     -0.491502
      25A     -0.482977    26A     -0.478456    27A     -0.471372
      28A     -0.441793

  @DF-RHF Final Energy:  -345.04731157775967

   => Energetics <=

    Nuclear Repulsion Energy =            304.9622749202144973
    One-Electron Energy =               -1074.4446932292789825
    Two-Electron Energy =                 424.4351067313046997
    DFT Exchange-Correlation Energy =       0.0000000000000000
    Empirical Dispersion Energy =           0.0000000000000000
    PCM Polarization Energy =               0.0000000000000000
    EFP Energy =                            0.0000000000000000
    Total Energy =                       -345.0473115777598423
    Molecular point group: c1
  Basis Set: CC-PVTZ
  Basis Set:

  -Total Gradient:
     Atom            X                  Y                   Z
    ------   -----------------  -----------------  -----------------
       1        0.000011852259     0.000000411874    -0.000019799797
       2        0.000092296929     0.000089384153     0.000176208476
       3       -0.000094856382    -0.000168056975    -0.000159976252
       4       -0.000107690290    -0.000121302415     0.000175926076
       5        0.000019841744     0.000049168132    -0.000073674365
       6       -0.000021214481     0.000004007520     0.000025067941
       7        0.000100205858     0.000158267122    -0.000109083334
       8        0.000001687186    -0.000012817857     0.000008388900
       9        0.000002111394    -0.000012048383    -0.000026898974
      10        0.000007272045     0.000001366049    -0.000003620797
      11        0.000000192921     0.000010034023     0.000003855817
      12       -0.000009971709     0.000005361260     0.000009385220
      13        0.000001829742    -0.000009977525    -0.000005588664
      14       -0.000003374486     0.000006108753    -0.000000272174
      15       -0.000000436746    -0.000000623823    -0.000003694811
      16       -0.000001419211    -0.000003659598     0.000002164400
      17        0.000001673227     0.000004377692     0.000001612341

  **** Optimization is complete! (in 6 steps) ****
    Final optimized geometry and variables:
    Molecular point group: c1

    Geometry (in Angstrom), charge = 0, multiplicity = 1:

    H           -3.179115415758     0.457860346220     0.846957742221
    O           -2.418570232323    -0.095136450878     0.949072021151
    C           -1.606827020364     0.117057720876    -0.080579112374
    C           -0.351635234534    -0.714085711893    -0.027498386500
    O           -1.866705652114     0.890629024924    -0.937569697638
    C            0.902990497706     0.161940063212     0.002869149304
    H           -0.346108955525    -1.325619536090    -0.922738982617
    H           -0.386918333394    -1.371163246169     0.829756283889
    C            2.186959530865    -0.661573282849    -0.008524258892
    H            0.884380735202     0.830466858873    -0.849348142627
    H            0.882740859173     0.787182282051     0.891200947680
    C            3.443012434991     0.202115540082     0.027126565514
    H            2.203398056765    -1.286111135751    -0.897388870444
    H            2.190330572330    -1.338626824566     0.841155256258
    H            3.484113871617     0.867332807664    -0.828519432387
    H            4.337820780452    -0.409025935834     0.015096613290
    H            3.472005565160     0.813862007995     0.922481679906

  Mulliken Charges: (a.u.)
   Center  Symbol    Alpha    Beta     Spin     Total
       1     H     0.38054  0.38054  0.00000  0.23893
       2     O     4.15846  4.15846  0.00000 -0.31692
       3     C     2.80843  2.80843  0.00000  0.38314
       4     C     3.09008  3.09008  0.00000 -0.18015
       5     O     4.19919  4.19919  0.00000 -0.39837
       6     C     3.09503  3.09503  0.00000 -0.19006
       7     H     0.44230  0.44230  0.00000  0.11541
       8     H     0.43850  0.43850  0.00000  0.12299
       9     C     3.08718  3.08718  0.00000 -0.17435
      10     H     0.43920  0.43920  0.00000  0.12159
      11     H     0.45051  0.45051  0.00000  0.09898
      12     C     3.14920  3.14920  0.00000 -0.29839
      13     H     0.45287  0.45287  0.00000  0.09427
      14     H     0.45375  0.45375  0.00000  0.09250
      15     H     0.45294  0.45294  0.00000  0.09413
      16     H     0.44756  0.44756  0.00000  0.10488
      17     H     0.45428  0.45428  0.00000  0.09144

   Total alpha = 28.00000, Total beta = 28.00000, Total charge =  0.00000

*** Psi4 exiting successfully. Buy a developer a beer!
