  ==> Input File <==

--------------------------------------------------------------------------
set {
	reference rhf
	basis 6-31G*
}

set_num_threads( 1 )
memory 2 gb

molecule MOL {
0 1

H	 -4.236494	 0.538104	 0.039757
O	 -3.517110	 -0.026191	 -0.205115
C	 -2.306886	 0.532354	 0.237577
C	 -1.177863	 -0.397191	 -0.171080
H	 -2.156308	 1.517575	 -0.201710
H	 -2.315015	 0.655684	 1.319734
C	 0.198102	 0.111031	 0.262842
H	 -1.208843	 -0.518759	 -1.250427
H	 -1.368741	 -1.376554	 0.258909
C	 1.331804	 -0.827780	 -0.158768
H	 0.361943	 1.100838	 -0.156218
H	 0.217265	 0.229072	 1.345532
C	 2.723619	 -0.410569	 0.329459
H	 1.342964	 -0.912588	 -1.244120
H	 1.116806	 -1.824343	 0.220779
C	 3.883918	 -1.084627	 -0.405174
H	 2.800060	 -0.643272	 1.388749
H	 2.823940	 0.670002	 0.249035
H	 3.802956	 -2.167068	 -0.352214
H	 3.918243	 -0.806371	 -1.453302
H	 4.834938	 -0.803458	 0.036708

	symmetry c1
}
set optking {
	frozen_dihedral = ("
		2 3 4 8,
		8 4 7 10,
		4 7 10 14,
		1 2 3 5
	")
}

ee = energy('scf')
oeprop('DIPOLE', 'QUADRUPOLE', 'MULLIKEN_CHARGES')
f=open( 'psi4out.xyz', 'w' )
f.write( "21  " )
f.write( str(ee) + "\n" )
f.write( MOL.save_string_xyz() )
f.close()
--------------------------------------------------------------------------

    Molecular point group: c1

    Geometry (in Angstrom), charge = 0, multiplicity = 1:

       Center              X                  Y                   Z               Mass
    ------------   -----------------  -----------------  -----------------  -----------------
           H         -4.330396842217     0.829133528757     0.058754586644     1.007825032070
           O         -3.611012842217     0.264838528757    -0.186117413356    15.994914619560
           C         -2.400788842217     0.823383528757     0.256574586644    12.000000000000
           C         -1.271765842217    -0.106161471243    -0.152082413356    12.000000000000
           H         -2.250210842217     1.808604528757    -0.182712413356     1.007825032070
           H         -2.408917842217     0.946713528757     1.338731586644     1.007825032070
           C          0.104199157783     0.402060528757     0.281839586644    12.000000000000
           H         -1.302745842217    -0.227729471243    -1.231429413356     1.007825032070
           H         -1.462643842217    -1.085524471243     0.277906586644     1.007825032070
           C          1.237901157783    -0.536750471243    -0.139770413356    12.000000000000
           H          0.268040157783     1.391867528757    -0.137220413356     1.007825032070
           H          0.123362157783     0.520101528757     1.364529586644     1.007825032070
           C          2.629716157783    -0.119539471243     0.348456586644    12.000000000000
           H          1.249061157783    -0.621558471243    -1.225122413356     1.007825032070
           H          1.022903157783    -1.533313471243     0.239776586644     1.007825032070
           C          3.790015157783    -0.793597471243    -0.386176413356    12.000000000000
           H          2.706157157783    -0.352242471243     1.407746586644     1.007825032070
           H          2.730037157783     0.961031528757     0.268032586644     1.007825032070
           H          3.709053157783    -1.876038471243    -0.333216413356     1.007825032070
           H          3.824340157783    -0.515341471243    -1.434304413356     1.007825032070
           H          4.741035157783    -0.512428471243     0.055705586644     1.007825032070

  Charge       = 0
  Multiplicity = 1
  Basis Set: 6-31G*
  Basis Set:

    Orbital Energies (a.u.)
    -----------------------

    Doubly Occupied:

       1A    -20.551964     2A    -11.267219     3A    -11.216666
       4A    -11.214828     5A    -11.213328     6A    -11.210840
       7A    -11.208604     8A     -1.358786     9A     -1.085392
      10A     -1.034293    11A     -0.957052    12A     -0.868430
      13A     -0.802472    14A     -0.789655    15A     -0.691971
      16A     -0.663499    17A     -0.630968    18A     -0.596654
      19A     -0.582311    20A     -0.561903    21A     -0.546732
      22A     -0.522260    23A     -0.507711    24A     -0.484081
      25A     -0.478283    26A     -0.460219    27A     -0.459315
      28A     -0.444316    29A     -0.434094

  @DF-RHF Final Energy:  -310.21299267835718

   => Energetics <=

    Nuclear Repulsion Energy =            308.5085954427313482
    One-Electron Energy =               -1031.7554895789139664
    Two-Electron Energy =                 413.0339014578260048
    DFT Exchange-Correlation Energy =       0.0000000000000000
    Empirical Dispersion Energy =           0.0000000000000000
    PCM Polarization Energy =               0.0000000000000000
    EFP Energy =                            0.0000000000000000
    Total Energy =                       -310.2129926783566134

  Mulliken Charges: (a.u.)
   Center  Symbol    Alpha    Beta     Spin     Total
       1     H     0.28115  0.28115  0.00000  0.43770
       2     O     4.37177  4.37177  0.00000 -0.74355
       3     C     2.98974  2.98974  0.00000  0.02053
       4     C     3.15963  3.15963  0.00000 -0.31925
       5     H     0.43288  0.43288  0.00000  0.13424
       6     H     0.43279  0.43279  0.00000  0.13443
       7     C     3.16063  3.16063  0.00000 -0.32127
       8     H     0.41462  0.41462  0.00000  0.17076
       9     H     0.41464  0.41464  0.00000  0.17071
      10     C     3.15063  3.15063  0.00000 -0.30126
      11     H     0.42303  0.42303  0.00000  0.15393
      12     H     0.42364  0.42364  0.00000  0.15273
      13     C     3.15169  3.15169  0.00000 -0.30338
      14     H     0.42281  0.42281  0.00000  0.15438
      15     H     0.42221  0.42221  0.00000  0.15558
      16     C     3.23961  3.23961  0.00000 -0.47921
      17     H     0.42281  0.42281  0.00000  0.15439
      18     H     0.42357  0.42357  0.00000  0.15287
      19     H     0.42154  0.42154  0.00000  0.15693
      20     H     0.42103  0.42103  0.00000  0.15795
      21     H     0.41960  0.41960  0.00000  0.16079

   Total alpha = 29.00000, Total beta = 29.00000, Total charge =  0.00000
