                              Psi4 1.0.54 Driver

  ==> Input File <==

--------------------------------------------------------------------------
set {
	reference rhf
	basis cc-pvtz
}

set_num_threads( 4 )
memory 2 gb

molecule MOL {
0 1

H	 -1.715651	 -0.047859	 -0.892608
N	 -1.173824	 -0.310545	 -0.096857
C	 -0.022588	 0.563366	 0.065815
H	 -1.774845	 -0.259464	 0.699244
C	 1.270420	 -0.230572	 -0.014245
H	 -0.045354	 1.293678	 -0.735129
H	 -0.043155	 1.123061	 1.001180
H	 1.336273	 -0.754933	 -0.959364
H	 2.130728	 0.422015	 0.082222
H	 1.323344	 -0.967006	 0.781773

	symmetry c1
}
set optking {
	frozen_dihedral = ("
		1 2 3 6
	")
}

ee,wfn = optimize('scf', return_wfn=True)
oeprop( wfn, 'DIPOLE', 'QUADRUPOLE', 'MULLIKEN_CHARGES')
f=open( 'psi4out.xyz', 'w' )
f.write( "10  " )
f.write( str(ee) + "\n" )
f.write( MOL.save_string_xyz() )
f.close()
--------------------------------------------------------------------------

    Molecular point group: c1
  Charge       = 0
  Multiplicity = 1
  Basis Set: CC-PVTZ
  Basis Set:
  @DF-RHF Final Energy:  -134.30092449808470
    Total Energy =                       -134.3009244980847257
    Molecular point group: c1
  Basis Set: CC-PVTZ
  Basis Set:
  Basis Set: CC-PVTZ
  Basis Set:
  @DF-RHF Final Energy:  -134.30147401700353
    Total Energy =                       -134.3014740170034997
  Basis Set: CC-PVTZ
  Basis Set:
  Basis Set: CC-PVTZ
  Basis Set:
  @DF-RHF Final Energy:  -134.30163836729480
    Total Energy =                       -134.3016383672947995
  Basis Set: CC-PVTZ
  Basis Set:
  Basis Set: CC-PVTZ
  Basis Set:
  @DF-RHF Final Energy:  -134.30164083237037
    Total Energy =                       -134.3016408323703672
  Basis Set: CC-PVTZ
  Basis Set:
  Charge       = 0
  Multiplicity = 1
  Basis Set: CC-PVTZ
  Basis Set:

    Orbital Energies (a.u.)
    -----------------------

    Doubly Occupied:

       1A    -15.525046     2A    -11.241641     3A    -11.198625
       4A     -1.174222     5A     -0.986925     6A     -0.820852
       7A     -0.674249     8A     -0.624012     9A     -0.569680
      10A     -0.527275    11A     -0.510909    12A     -0.476910
      13A     -0.381975

  @DF-RHF Final Energy:  -134.30164124904081

   => Energetics <=

    Nuclear Repulsion Energy =             83.1218447190396432
    One-Electron Energy =                -345.4223279762995844
    Two-Electron Energy =                 127.9988420082191425
    DFT Exchange-Correlation Energy =       0.0000000000000000
    Empirical Dispersion Energy =           0.0000000000000000
    PCM Polarization Energy =               0.0000000000000000
    EFP Energy =                            0.0000000000000000
    Total Energy =                       -134.3016412490408129
    Molecular point group: c1
  Basis Set: CC-PVTZ
  Basis Set:

  -Total Gradient:
     Atom            X                  Y                   Z
    ------   -----------------  -----------------  -----------------
       1        0.000196290547    -0.000186317998    -0.000190007105
       2       -0.000294470012     0.000235556850     0.000262181568
       3        0.000307127035    -0.000234210513    -0.000246143297
       4       -0.000018855372     0.000009872300     0.000016617602
       5       -0.000007197231     0.000009547650     0.000023303866
       6       -0.000164695814     0.000165011362     0.000160444437
       7        0.000000498080    -0.000011014041     0.000001429276
       8       -0.000006946846     0.000007093480     0.000000108772
       9       -0.000005665591    -0.000007376166    -0.000008532130
      10       -0.000006084796     0.000011837076    -0.000019402988

  **** Optimization is complete! (in 5 steps) ****
    Final optimized geometry and variables:
    Molecular point group: c1

    Geometry (in Angstrom), charge = 0, multiplicity = 1:

    H           -1.711617238225    -0.060934987267    -0.920605037137
    N           -1.177415934878    -0.315399812465    -0.120284714363
    C           -0.014968520417     0.550764894764     0.062770246437
    H           -1.784987450432    -0.299714632222     0.668029561162
    C            1.283820299348    -0.241697582142     0.060890955209
    H            0.019167281245     1.297663689054    -0.723712976056
    H           -0.096953729048     1.100833348354     0.995162350850
    H            1.403640944351    -0.772280201902    -0.876292771269
    H            2.139506848212     0.412280453256     0.197943676504
    H            1.282671997882    -0.975583743437     0.858340406406

  Mulliken Charges: (a.u.)
   Center  Symbol    Alpha    Beta     Spin     Total
       1     H     0.42597  0.42597  0.00000  0.14806
       2     N     3.69671  3.69671  0.00000 -0.39342
       3     C     3.03566  3.03566  0.00000 -0.07132
       4     H     0.42637  0.42637  0.00000  0.14725
       5     C     3.12049  3.12049  0.00000 -0.24098
       6     H     0.45876  0.45876  0.00000  0.08247
       7     H     0.45942  0.45942  0.00000  0.08117
       8     H     0.45707  0.45707  0.00000  0.08587
       9     H     0.46196  0.46196  0.00000  0.07608
      10     H     0.45759  0.45759  0.00000  0.08482

   Total alpha = 13.00000, Total beta = 13.00000, Total charge =  0.00000

*** Psi4 exiting successfully. Buy a developer a beer!
