  ==> Input File <==

--------------------------------------------------------------------------
set {
	reference rhf
	basis 6-31G*
}

set_num_threads( 1 )
memory 2 gb

molecule MOL {
0 1

H	 -4.101154	 0.485471	 -0.619971
C	 -3.323610	 0.089065	 0.003686
C	 -2.181916	 -0.280443	 -0.529229
H	 -3.504371	 0.005226	 1.058773
O	 -1.180634	 -0.819263	 0.215062
H	 -1.978426	 -0.197968	 -1.582312
C	 0.051604	 -1.018856	 -0.387932
C	 1.043764	 0.054862	 -0.001873
H	 -0.017620	 -1.041351	 -1.469781
H	 0.437898	 -1.966374	 -0.042284
F	 2.212596	 -0.199467	 -0.571921
F	 0.652529	 1.252447	 -0.405055
F	 1.230877	 0.110694	 1.300533

	symmetry c1
}
set optking {
	frozen_dihedral = ("
		11 8 7 9,
		6 3 2 1,
		6 3 5 7
	")
}

ee = energy('scf')
oeprop('DIPOLE', 'QUADRUPOLE', 'MULLIKEN_CHARGES')
f=open( 'psi4out.xyz', 'w' )
f.write( "13  " )
f.write( str(ee) + "\n" )
f.write( MOL.save_string_xyz() )
f.close()
--------------------------------------------------------------------------

    Molecular point group: c1

    Geometry (in Angstrom), charge = 0, multiplicity = 1:

       Center              X                  Y                   Z               Mass
    ------------   -----------------  -----------------  -----------------  -----------------
           H         -4.075573291762     0.545749061057    -0.587648612162     1.007825032070
           C         -3.298029291762     0.149343061057     0.036008387838    12.000000000000
           C         -2.156335291762    -0.220164938943    -0.496906612162    12.000000000000
           H         -3.478790291762     0.065504061057     1.091095387838     1.007825032070
           O         -1.155053291762    -0.758984938943     0.247384387838    15.994914619560
           H         -1.952845291762    -0.137689938943    -1.549989612162     1.007825032070
           C          0.077184708238    -0.958577938943    -0.355609612162    12.000000000000
           C          1.069344708238     0.115140061057     0.030449387838    12.000000000000
           H          0.007960708238    -0.981072938943    -1.437458612162     1.007825032070
           H          0.463478708238    -1.906095938943    -0.009961612162     1.007825032070
           F          2.238176708238    -0.139188938943    -0.539598612162    18.998403224000
           F          0.678109708238     1.312725061057    -0.372732612162    18.998403224000
           F          1.256457708238     0.170972061057     1.332855387838    18.998403224000

  Charge       = 0
  Multiplicity = 1
  Basis Set: 6-31G*
  Basis Set:

    Orbital Energies (a.u.)
    -----------------------

    Doubly Occupied:

       1A    -26.344087     2A    -26.341010     3A    -26.339747
       4A    -20.608930     5A    -11.502607     6A    -11.318855
       7A    -11.301031     8A    -11.216548     9A     -1.740392
      10A     -1.638716    11A     -1.636628    12A     -1.438617
      13A     -1.084970    14A     -1.016392    15A     -0.924280
      16A     -0.836305    17A     -0.829733    18A     -0.816034
      19A     -0.797449    20A     -0.720263    21A     -0.711098
      22A     -0.695982    23A     -0.676203    24A     -0.659285
      25A     -0.653477    26A     -0.641724    27A     -0.635661
      28A     -0.580688    29A     -0.563505    30A     -0.524238
      31A     -0.517578    32A     -0.351920

  @DF-RHF Final Energy:  -527.53524858114133

   => Energetics <=

    Nuclear Repulsion Energy =            410.9817565703376658
    One-Electron Energy =               -1545.7060125248626719
    Two-Electron Energy =                 607.1890073733820827
    DFT Exchange-Correlation Energy =       0.0000000000000000
    Empirical Dispersion Energy =           0.0000000000000000
    PCM Polarization Energy =               0.0000000000000000
    EFP Energy =                            0.0000000000000000
    Total Energy =                       -527.5352485811429233

  Mulliken Charges: (a.u.)
   Center  Symbol    Alpha    Beta     Spin     Total
       1     H     0.40711  0.40711  0.00000  0.18578
       2     C     3.23569  3.23569  0.00000 -0.47138
       3     C     2.89544  2.89544  0.00000  0.20913
       4     H     0.40124  0.40124  0.00000  0.19752
       5     O     4.30178  4.30178  0.00000 -0.60356
       6     H     0.40745  0.40745  0.00000  0.18509
       7     C     3.06014  3.06014  0.00000 -0.12028
       8     C     2.45476  2.45476  0.00000  1.09048
       9     H     0.40625  0.40625  0.00000  0.18750
      10     H     0.39304  0.39304  0.00000  0.21391
      11     F     4.68280  4.68280  0.00000 -0.36561
      12     F     4.67949  4.67949  0.00000 -0.35898
      13     F     4.67480  4.67480  0.00000 -0.34961

   Total alpha = 32.00000, Total beta = 32.00000, Total charge = -0.00000
