  ==> Input File <==

--------------------------------------------------------------------------
set {
	reference rhf
	basis cc-pvtz
}

set_num_threads( 4 )
memory 2 gb

molecule MOL {
0 1

H	 -2.266619	 1.169943	 0.000098
O	 -1.438073	 1.611259	 0.000041
C	 -0.408657	 0.734701	 0.000005
C	 0.205775	 0.492906	 1.214673
C	 0.022803	 0.098918	 -1.158328
H	 -0.156464	 1.003120	 2.085532
C	 1.262393	 -0.389758	 1.288367
C	 1.086453	 -0.782813	 -1.054756
C	 -0.648777	 0.363849	 -2.483090
H	 1.734503	 -0.572503	 2.234779
C	 1.709730	 -1.034130	 0.151220
H	 1.431814	 -1.282209	 -1.940926
H	 -0.580083	 1.410064	 -2.767754
H	 -0.183990	 -0.214009	 -3.268897
H	 -1.700917	 0.093824	 -2.462778
H	 2.531121	 -1.722035	 0.200958

	symmetry c1
}
set optking {
	frozen_dihedral = ("
		4 3 2 1
	")
}

ee = optimize('scf')
oeprop('DIPOLE', 'QUADRUPOLE', 'MULLIKEN_CHARGES')
f=open( 'psi4out.xyz', 'w' )
f.write( "16  " )
f.write( str(ee) + "\n" )
f.write( MOL.save_string_xyz() )
f.close()
--------------------------------------------------------------------------

    Molecular point group: c1
  Charge       = 0
  Multiplicity = 1
  Basis Set: CC-PVTZ
  Basis Set:
  @DF-RHF Final Energy:  -344.71528569693203
    Total Energy =                       -344.7152856969315735
    Molecular point group: c1
  Basis Set: CC-PVTZ
  Basis Set:
  Basis Set: CC-PVTZ
  Basis Set:
  @DF-RHF Final Energy:  -344.71611241439399
    Total Energy =                       -344.7161124143944448
  Basis Set: CC-PVTZ
  Basis Set:
  Basis Set: CC-PVTZ
  Basis Set:
  @DF-RHF Final Energy:  -344.71618505140333
    Total Energy =                       -344.7161850514031016
  Basis Set: CC-PVTZ
  Basis Set:
  Basis Set: CC-PVTZ
  Basis Set:
  @DF-RHF Final Energy:  -344.71619744611945
    Total Energy =                       -344.7161974461192244
  Basis Set: CC-PVTZ
  Basis Set:
  Basis Set: CC-PVTZ
  Basis Set:
  @DF-RHF Final Energy:  -344.71620056625045
    Total Energy =                       -344.7162005662505635
  Basis Set: CC-PVTZ
  Basis Set:
  Charge       = 0
  Multiplicity = 1
  Basis Set: CC-PVTZ
  Basis Set:

    Orbital Energies (a.u.)
    -----------------------

    Doubly Occupied:

       1A    -20.569932     2A    -11.282585     3A    -11.233883
       4A    -11.226990     5A    -11.226376     6A    -11.222948
       7A    -11.222496     8A    -11.219932     9A     -1.396206
      10A     -1.153647    11A     -1.048593    12A     -1.007135
      13A     -0.936340    14A     -0.831579    15A     -0.810803
      16A     -0.730132    17A     -0.671394    18A     -0.658377
      19A     -0.625576    20A     -0.594415    21A     -0.573815
      22A     -0.569140    23A     -0.547390    24A     -0.522133
      25A     -0.503035    26A     -0.488088    27A     -0.466449
      28A     -0.333628    29A     -0.322378

  @DF-RHF Final Energy:  -344.71620115299595

   => Energetics <=

    Nuclear Repulsion Energy =            350.4685799944674045
    One-Electron Energy =               -1162.3787751076802124
    Two-Electron Energy =                 467.1939939602171989
    DFT Exchange-Correlation Energy =       0.0000000000000000
    Empirical Dispersion Energy =           0.0000000000000000
    PCM Polarization Energy =               0.0000000000000000
    EFP Energy =                            0.0000000000000000
    Total Energy =                       -344.7162011529956089
    Molecular point group: c1
  Basis Set: CC-PVTZ
  Basis Set:

  -Total Gradient:
     Atom            X                  Y                   Z
    ------   -----------------  -----------------  -----------------
       1       -0.000003443134     0.000034224938     0.000667196831
       2       -0.000216784738    -0.000160120752    -0.000780038438
       3        0.000552088205     0.000439794430    -0.000010884853
       4       -0.000361559875    -0.000310730061     0.000135290153
       5       -0.000011166578     0.000005425245    -0.000006919862
       6        0.000007507081    -0.000007593813    -0.000018364057
       7        0.000022712627    -0.000031019761    -0.000011107947
       8       -0.000027655201     0.000045184119    -0.000011909249
       9        0.000002773636    -0.000017170735     0.000021323788
      10        0.000008902652    -0.000005570302     0.000005388889
      11        0.000018224159     0.000003269900     0.000026127477
      12       -0.000000071251    -0.000004785097    -0.000007620152
      13        0.000022599425     0.000002521344    -0.000009956169
      14       -0.000004282392    -0.000007684449    -0.000008474064
      15       -0.000002868452     0.000011481783     0.000008908575
      16       -0.000006976168     0.000002773211     0.000001039080

  **** Optimization is complete! (in 6 steps) ****
    Final optimized geometry and variables:
    Molecular point group: c1

    Geometry (in Angstrom), charge = 0, multiplicity = 1:

    H           -2.417134849084     1.022070710113     0.238798207123
    O           -1.582003502441     1.456313055475     0.233309445983
    C           -0.561280375950     0.544592688369     0.291158226422
    C            0.055238713088     0.310321291806     1.502039567333
    C           -0.134475656091    -0.090212255305    -0.868647090668
    H           -0.297975288370     0.831321947549     2.370683586515
    C            1.115549808451    -0.573155871323     1.580010747288
    C            0.927555119635    -0.973082811984    -0.767524441976
    C           -0.809470025502     0.185728964208    -2.186956035487
    H            1.594549936189    -0.751745008383     2.523539042916
    C            1.551759750378    -1.218747351696     0.441934996167
    H            1.274866401232    -1.474224761980    -1.651686439671
    H           -0.814885778794     1.245796392606    -2.405976644623
    H           -0.302462468442    -0.329211517525    -2.991496070493
    H           -1.842797305737    -0.145463462245    -2.181499302905
    H            2.374696004801    -1.905689669851     0.489911893266

  Mulliken Charges: (a.u.)
   Center  Symbol    Alpha    Beta     Spin     Total
       1     H     0.38991  0.38991  0.00000  0.22018
       2     O     4.18874  4.18874  0.00000 -0.37748
       3     C     2.88576  2.88576  0.00000  0.22848
       4     C     3.10643  3.10643  0.00000 -0.21287
       5     C     2.99509  2.99509  0.00000  0.00983
       6     H     0.41790  0.41790  0.00000  0.16420
       7     C     3.07694  3.07694  0.00000 -0.15387
       8     C     3.09436  3.09436  0.00000 -0.18873
       9     C     3.14759  3.14759  0.00000 -0.29517
      10     H     0.42204  0.42204  0.00000  0.15593
      11     C     3.07909  3.07909  0.00000 -0.15817
      12     H     0.42453  0.42453  0.00000  0.15094
      13     H     0.44059  0.44059  0.00000  0.11883
      14     H     0.45131  0.45131  0.00000  0.09738
      15     H     0.45575  0.45575  0.00000  0.08851
      16     H     0.42399  0.42399  0.00000  0.15202

   Total alpha = 29.00000, Total beta = 29.00000, Total charge = -0.00000
