  ==> Input File <==

--------------------------------------------------------------------------
set {
	reference rhf
	basis 6-31G*
}

set_num_threads( 1 )
memory 2 gb

molecule MOL {
0 1

H	 1.316714	 -1.591862	 -0.000360
O	 1.586534	 -0.678666	 -0.000226
C	 0.489431	 0.077273	 0.000046
C	 -0.764129	 -0.759190	 0.000191
O	 0.537743	 1.263962	 0.000257
C	 -2.038368	 0.075731	 -0.000248
H	 -0.717284	 -1.412404	 -0.866059
H	 -0.717458	 -1.411724	 0.866967
H	 -2.086483	 0.712501	 -0.875098
H	 -2.908485	 -0.571682	 -0.000042
H	 -2.086576	 0.713280	 0.874068

	symmetry c1
}
set optking {
	frozen_dihedral = ("
		2 3 4 7
	")
}

ee = energy('scf')
oeprop('DIPOLE', 'QUADRUPOLE', 'MULLIKEN_CHARGES')
f=open( 'psi4out.xyz', 'w' )
f.write( "11  " )
f.write( str(ee) + "\n" )
f.write( MOL.save_string_xyz() )
f.close()
--------------------------------------------------------------------------

    Molecular point group: c1

    Geometry (in Angstrom), charge = 0, multiplicity = 1:

       Center              X                  Y                   Z               Mass
    ------------   -----------------  -----------------  -----------------  -----------------
           H          1.330694505992    -1.571571606824    -0.000357781400     1.007825032070
           O          1.600514505992    -0.658375606824    -0.000223781400    15.994914619560
           C          0.503411505992     0.097563393176     0.000048218600    12.000000000000
           C         -0.750148494008    -0.738899606824     0.000193218600    12.000000000000
           O          0.551723505992     1.284252393176     0.000259218600    15.994914619560
           C         -2.024387494008     0.096021393176    -0.000245781400    12.000000000000
           H         -0.703303494008    -1.392113606824    -0.866056781400     1.007825032070
           H         -0.703477494008    -1.391433606824     0.866969218600     1.007825032070
           H         -2.072502494008     0.732791393176    -0.875095781400     1.007825032070
           H         -2.894504494008    -0.551391606824    -0.000039781400     1.007825032070
           H         -2.072595494008     0.733570393176     0.874070218600     1.007825032070

  Charge       = 0
  Multiplicity = 1
  Basis Set: 6-31G*
  Basis Set:

    Orbital Energies (a.u.)
    -----------------------

    Doubly Occupied:

       1A    -20.617064     2A    -20.550114     3A    -11.382245
       4A    -11.257013     5A    -11.228037     6A     -1.472476
       7A     -1.371987     8A     -1.072963     9A     -0.911530
      10A     -0.828503    11A     -0.719830    12A     -0.670536
      13A     -0.661641    14A     -0.611731    15A     -0.598807
      16A     -0.537515    17A     -0.529258    18A     -0.515955
      19A     -0.476847    20A     -0.442591

  @DF-RHF Final Energy:  -266.83345354655103

   => Energetics <=

    Nuclear Repulsion Energy =            180.0983212959829700
    One-Electron Energy =                -720.9502352883222329
    Two-Electron Energy =                 274.0184604457876958
    DFT Exchange-Correlation Energy =       0.0000000000000000
    Empirical Dispersion Energy =           0.0000000000000000
    PCM Polarization Energy =               0.0000000000000000
    EFP Energy =                            0.0000000000000000
    Total Energy =                       -266.8334535465515955

  Mulliken Charges: (a.u.)
   Center  Symbol    Alpha    Beta     Spin     Total
       1     H     0.26710  0.26710  0.00000  0.46580
       2     O     4.34759  4.34759  0.00000 -0.69518
       3     C     2.60385  2.60385  0.00000  0.79230
       4     C     3.24216  3.24216  0.00000 -0.48432
       5     O     4.26853  4.26853  0.00000 -0.53706
       6     C     3.23740  3.23740  0.00000 -0.47480
       7     H     0.40287  0.40287  0.00000  0.19426
       8     H     0.40283  0.40283  0.00000  0.19433
       9     H     0.40543  0.40543  0.00000  0.18915
      10     H     0.41683  0.41683  0.00000  0.16634
      11     H     0.40541  0.40541  0.00000  0.18918

   Total alpha = 20.00000, Total beta = 20.00000, Total charge = -0.00000
