  ==> Input File <==

--------------------------------------------------------------------------
set {
	reference rhf
	basis 6-31G*
}

set_num_threads( 4 )
memory 2 gb

molecule MOL {
0 1

O	 2.860807	 1.359730	 -0.048598
C	 2.838899	 0.171901	 -0.155084
C	 1.542070	 -0.617504	 -0.151198
C	 4.115320	 -0.630766	 -0.302155
C	 0.291004	 0.242674	 0.000989
H	 1.501547	 -1.196228	 -1.073057
H	 1.602617	 -1.353963	 0.649029
C	 -0.994322	 -0.586602	 0.000262
H	 0.260571	 0.971618	 -0.802656
H	 0.361585	 0.813553	 0.921458
C	 -2.259874	 0.272531	 0.000494
H	 -1.004862	 -1.240012	 -0.870939
H	 -1.005220	 -1.241071	 0.870675
C	 -3.549786	 -0.549746	 -0.000374
H	 -2.250389	 0.926680	 -0.869574
H	 -2.250838	 0.925513	 0.871430
C	 -4.809590	 0.315458	 -0.000369
H	 -3.560515	 -1.202009	 -0.871156
H	 -3.561123	 -1.202955	 0.869711
H	 -4.844746	 0.956611	 -0.876632
H	 -5.706986	 -0.295590	 -0.001609
H	 -4.845960	 0.954827	 0.877144
H	 4.104233	 -1.193548	 -1.231010
H	 4.967596	 0.034351	 -0.293246
H	 4.206962	 -1.348192	 0.508115

	symmetry c1
}
set optking {
	frozen_dihedral = ("
		9 5 8 12
	")
}

ee = optimize('scf')
oeprop('DIPOLE', 'QUADRUPOLE', 'MULLIKEN_CHARGES')
f=open( 'psi4out.xyz', 'w' )
f.write( "25  " )
f.write( str(ee) + "\n" )
f.write( MOL.save_string_xyz() )
f.close()
--------------------------------------------------------------------------

    Molecular point group: c1
  Charge       = 0
  Multiplicity = 1
  Basis Set: 6-31G*
  Basis Set:
  @DF-RHF Final Energy:  -387.13639236436774
    Total Energy =                       -387.1363923643679072
    Molecular point group: c1
  Basis Set: 6-31G*
  Basis Set:
  Basis Set: 6-31G*
  Basis Set:
  @DF-RHF Final Energy:  -387.13640300042954
    Total Energy =                       -387.1364030004293681
  Basis Set: 6-31G*
  Basis Set:
  Basis Set: 6-31G*
  Basis Set:
  @DF-RHF Final Energy:  -387.13637658867106
    Total Energy =                       -387.1363765886706005
  Basis Set: 6-31G*
  Basis Set:
  Basis Set: 6-31G*
  Basis Set:
  @DF-RHF Final Energy:  -387.13641767753711
    Total Energy =                       -387.1364176775364285
  Basis Set: 6-31G*
  Basis Set:
  Basis Set: 6-31G*
  Basis Set:
  @DF-RHF Final Energy:  -387.13641616856836
    Total Energy =                       -387.1364161685679619
  Basis Set: 6-31G*
  Basis Set:
  Basis Set: 6-31G*
  Basis Set:
  @DF-RHF Final Energy:  -387.13641851006309
    Total Energy =                       -387.1364185100636632
  Basis Set: 6-31G*
  Basis Set:
  Charge       = 0
  Multiplicity = 1
  Basis Set: 6-31G*
  Basis Set:

    Orbital Energies (a.u.)
    -----------------------

    Doubly Occupied:

       1A    -20.550513     2A    -11.326360     3A    -11.232006
       4A    -11.228384     5A    -11.217066     6A    -11.216469
       7A    -11.215414     8A    -11.213628     9A    -11.208347
      10A     -1.395820    11A     -1.093596    12A     -1.056387
      13A     -1.014528    14A     -0.969313    15A     -0.890800
      16A     -0.814157    17A     -0.790963    18A     -0.730048
      19A     -0.661179    20A     -0.651930    21A     -0.631972
      22A     -0.624206    23A     -0.595813    24A     -0.584367
      25A     -0.566378    26A     -0.559942    27A     -0.540316
      28A     -0.526371    29A     -0.512652    30A     -0.490067
      31A     -0.487751    32A     -0.472812    33A     -0.464031
      34A     -0.462006    35A     -0.450906    36A     -0.399507

  @DF-RHF Final Energy:  -387.13641851144803

   => Energetics <=

    Nuclear Repulsion Energy =            438.3174483841908113
    One-Electron Energy =               -1393.2157191707190123
    Two-Electron Energy =                 567.7618522750800594
    DFT Exchange-Correlation Energy =       0.0000000000000000
    Empirical Dispersion Energy =           0.0000000000000000
    PCM Polarization Energy =               0.0000000000000000
    EFP Energy =                            0.0000000000000000
    Total Energy =                       -387.1364185114481415
    Molecular point group: c1
  Basis Set: 6-31G*
  Basis Set:

  -Total Gradient:
     Atom            X                  Y                   Z
    ------   -----------------  -----------------  -----------------
       1       -0.000000518512    -0.000001086751     0.000003718490
       2        0.000000324094    -0.000000679085    -0.000007854545
       3        0.000000324554     0.000000996395     0.000007345150
       4        0.000000786604     0.000000872798    -0.000001612847
       5        0.000755383979    -0.001176209810    -0.000770911049
       6        0.000000707232     0.000003150545    -0.000000098788
       7       -0.000000958515    -0.000001217660    -0.000001097792
       8       -0.000790349367     0.001233730683    -0.000584918639
       9       -0.000502061229     0.000781891777     0.000728050692
      10       -0.000002205854     0.000001260242     0.000002042465
      11        0.000000191486    -0.000001638461     0.000008198122
      12        0.000538258877    -0.000837466581     0.000620451786
      13        0.000000826009    -0.000004019923     0.000002087279
      14       -0.000000309266     0.000001451282    -0.000011615890
      15        0.000002004710    -0.000004101099     0.000000863739
      16       -0.000001897855     0.000003171423    -0.000000216017
      17       -0.000001203672    -0.000000582801     0.000006856049
      18        0.000000039234     0.000000725031    -0.000002797199
      19        0.000000736558     0.000000242765    -0.000002947396
      20       -0.000000427643    -0.000003245780    -0.000001136090
      21       -0.000000416239     0.000000247998     0.000003364749
      22        0.000000584486     0.000003085284    -0.000001276519
      23       -0.000000144054    -0.000000932524     0.000001413519
      24        0.000000257674    -0.000000129639     0.000000531522
      25        0.000000066696     0.000000483885     0.000001559209

  **** Optimization is complete! (in 7 steps) ****
    Final optimized geometry and variables:
    Molecular point group: c1

    Geometry (in Angstrom), charge = 0, multiplicity = 1:

    O            2.863894933700     1.354831989299     0.043548138014
    C            2.842492703953     0.167806799471    -0.071432299214
    C            1.545048660856    -0.620338479438    -0.092420104673
    C            4.120180073388    -0.635167238738    -0.205176992826
    C            0.292858126907     0.239709535137     0.045660345235
    H            1.518331653452    -1.193392953094    -1.018234615606
    H            1.592305329060    -1.361709506715     0.704250121597
    C           -0.993743388275    -0.588183148458     0.043412197278
    H            0.265912482157     0.970652929070    -0.756448743452
    H            0.356023999381     0.814099357288     0.964604638381
    C           -2.259383780915     0.269893463732     0.058877322755
    H           -1.007785490726    -1.241745466758    -0.827751168421
    H           -0.997497960595    -1.247934449413     0.910090218607
    C           -3.548675169834    -0.552994741281     0.082105211161
    H           -2.263579516735     0.919517374555    -0.814543711222
    H           -2.237156828792     0.927401985074     0.926229986211
    C           -4.808821337484     0.311618902106     0.094528401324
    H           -3.571517333345    -1.211095236441    -0.784073510723
    H           -3.547079676789    -1.200308522787     0.956599725877
    H           -4.857830524824     0.945726519362    -0.786181384158
    H           -5.705754339816    -0.299839390137     0.111955308769
    H           -4.832068083768     0.957951038585     0.967366969426
    H            4.122623950720    -1.190847950991    -1.138360184396
    H            4.972886181458     0.028901870962    -0.178335856938
    H            4.198809112126    -1.358838617077     0.600901596406

  Mulliken Charges: (a.u.)
   Center  Symbol    Alpha    Beta     Spin     Total
       1     O     4.26112  4.26112  0.00000 -0.52223
       2     C     2.73571  2.73571  0.00000  0.52858
       3     C     3.21086  3.21086  0.00000 -0.42172
       4     C     3.28664  3.28664  0.00000 -0.57327
       5     C     3.14824  3.14824  0.00000 -0.29649
       6     H     0.40992  0.40992  0.00000  0.18017
       7     H     0.40993  0.40993  0.00000  0.18013
       8     C     3.15399  3.15399  0.00000 -0.30798
       9     H     0.41237  0.41237  0.00000  0.17526
      10     H     0.41192  0.41192  0.00000  0.17617
      11     C     3.15075  3.15075  0.00000 -0.30150
      12     H     0.42523  0.42523  0.00000  0.14954
      13     H     0.42458  0.42458  0.00000  0.15085
      14     C     3.15155  3.15155  0.00000 -0.30310
      15     H     0.42253  0.42253  0.00000  0.15494
      16     H     0.42223  0.42223  0.00000  0.15554
      17     C     3.23935  3.23935  0.00000 -0.47869
      18     H     0.42356  0.42356  0.00000  0.15288
      19     H     0.42343  0.42343  0.00000  0.15314
      20     H     0.42142  0.42142  0.00000  0.15717
      21     H     0.41952  0.41952  0.00000  0.16096
      22     H     0.42131  0.42131  0.00000  0.15738
      23     H     0.40872  0.40872  0.00000  0.18257
      24     H     0.39645  0.39645  0.00000  0.20711
      25     H     0.40870  0.40870  0.00000  0.18260

   Total alpha = 36.00000, Total beta = 36.00000, Total charge = -0.00000
