  ==> Input File <==

--------------------------------------------------------------------------
set {
	reference rhf
	basis 6-31G*
}

set_num_threads( 4 )
memory 2 gb

molecule MOL {
0 1

O	 -2.042549	 -1.228399	 -0.269030
C	 -1.653912	 -0.146171	 0.050137
C	 -0.332303	 0.024011	 0.778412
C	 -2.438579	 1.106236	 -0.272369
C	 0.845713	 -0.001731	 -0.208243
H	 -0.323783	 0.953829	 1.340327
H	 -0.235459	 -0.796807	 1.480410
C	 2.200309	 0.136118	 0.488247
H	 0.733710	 0.800019	 -0.936072
H	 0.811185	 -0.933796	 -0.764304
C	 2.133429	 1.003208	 1.744786
H	 2.574870	 -0.851302	 0.749268
H	 2.918723	 0.562479	 -0.207932
H	 1.447503	 0.583866	 2.475340
H	 1.792797	 2.007327	 1.509928
H	 3.107877	 1.085722	 2.215605
H	 -3.277823	 0.863061	 -0.908988
H	 -1.806773	 1.843019	 -0.759671
H	 -2.802853	 1.554979	 0.648059

	symmetry c1
}
set optking {
	frozen_dihedral = ("
		11 8 5 9
	")
}

ee = optimize('scf')
oeprop('DIPOLE', 'QUADRUPOLE', 'MULLIKEN_CHARGES')
f=open( 'psi4out.xyz', 'w' )
f.write( "19  " )
f.write( str(ee) + "\n" )
f.write( MOL.save_string_xyz() )
f.close()
--------------------------------------------------------------------------

    Molecular point group: c1
  Charge       = 0
  Multiplicity = 1
  Basis Set: 6-31G*
  Basis Set:
  @DF-RHF Final Energy:  -309.05736807791430
    Total Energy =                       -309.0573680779144752
    Molecular point group: c1
  Basis Set: 6-31G*
  Basis Set:
  Basis Set: 6-31G*
  Basis Set:
  @DF-RHF Final Energy:  -309.05815034262724
    Total Energy =                       -309.0581503426270729
  Basis Set: 6-31G*
  Basis Set:
  Basis Set: 6-31G*
  Basis Set:
  @DF-RHF Final Energy:  -309.05988896550394
    Total Energy =                       -309.0598889655038874
  Basis Set: 6-31G*
  Basis Set:
  Basis Set: 6-31G*
  Basis Set:
  @DF-RHF Final Energy:  -309.06001255796957
    Total Energy =                       -309.0600125579697988
  Basis Set: 6-31G*
  Basis Set:
  @DF-RHF Final Energy:  -309.05993262394253
    Total Energy =                       -309.0599326239424727
  @DF-RHF Final Energy:  -309.06006029991062
    Total Energy =                       -309.0600602999107878
  @DF-RHF Final Energy:  -309.06007148881088
    Total Energy =                       -309.0600714888106495
  Basis Set: 6-31G*
  Basis Set:
  @DF-RHF Final Energy:  -309.06005983483146
    Total Energy =                       -309.0600598348312928
  Basis Set: 6-31G*
  Basis Set:
  Basis Set: 6-31G*
  Basis Set:
  @DF-RHF Final Energy:  -309.06006968745749
    Total Energy =                       -309.0600696874575988
  Basis Set: 6-31G*
  Basis Set:
  Basis Set: 6-31G*
  Basis Set:
  @DF-RHF Final Energy:  -309.06007291581051
    Total Energy =                       -309.0600729158105651
  Basis Set: 6-31G*
  Basis Set:
  Charge       = 0
  Multiplicity = 1
  Basis Set: 6-31G*
  Basis Set:

    Orbital Energies (a.u.)
    -----------------------

    Doubly Occupied:

       1A    -20.547583     2A    -11.324732     3A    -11.230577
       4A    -11.229480     5A    -11.228279     6A    -11.225128
       7A    -11.216409     8A     -1.393402     9A     -1.089791
      10A     -1.027226    11A     -0.981522    12A     -0.902964
      13A     -0.795865    14A     -0.734584    15A     -0.659234
      16A     -0.652309    17A     -0.619798    18A     -0.604433
      19A     -0.592372    20A     -0.569335    21A     -0.553170
      22A     -0.542865    23A     -0.522779    24A     -0.499372
      25A     -0.479905    26A     -0.468521    27A     -0.461742
      28A     -0.397698

  @DF-RHF Final Energy:  -309.06007371424442

   => Energetics <=

    Nuclear Repulsion Energy =            304.9297780168170107
    One-Electron Energy =               -1022.8775548417844448
    Two-Electron Energy =                 408.8877031107228959
    DFT Exchange-Correlation Energy =       0.0000000000000000
    Empirical Dispersion Energy =           0.0000000000000000
    PCM Polarization Energy =               0.0000000000000000
    EFP Energy =                            0.0000000000000000
    Total Energy =                       -309.0600737142444814
    Molecular point group: c1
  Basis Set: 6-31G*
  Basis Set:

  -Total Gradient:
     Atom            X                  Y                   Z
    ------   -----------------  -----------------  -----------------
       1        0.000010319654     0.000000609538     0.000006909543
       2       -0.000002284144     0.000015073214    -0.000023781301
       3       -0.000020835470    -0.000005363855     0.000015730627
       4       -0.000015441067    -0.000007223641     0.000019727103
       5       -0.003138338474     0.002766990139     0.006156435899
       6       -0.000011109480    -0.000011678935    -0.000006920057
       7       -0.000005312895    -0.000000295678     0.000012234347
       8        0.001933573362     0.004187636878    -0.004447265960
       9        0.002215693816    -0.003475172831    -0.004140000831
      10       -0.000004194352    -0.000003912320     0.000000804527
      11       -0.000976470221    -0.003478830222     0.002415935043
      12       -0.000006124153    -0.000005860067    -0.000008944123
      13        0.000002813940     0.000005693546     0.000002528581
      14        0.000007515136     0.000003774657    -0.000008806221
      15        0.000002578798     0.000003099383     0.000003919883
      16       -0.000002766963     0.000001032623     0.000007477883
      17        0.000001540061    -0.000000478606    -0.000000672467
      18        0.000005591479     0.000000358817    -0.000003345245
      19        0.000003250972     0.000004547363    -0.000001967232

  **** Optimization is complete! (in 11 steps) ****
    Final optimized geometry and variables:
    Molecular point group: c1

    Geometry (in Angstrom), charge = 0, multiplicity = 1:

    O           -1.835313194506    -1.393435700456    -0.641863417826
    C           -1.493437384152    -0.298365484470    -0.313393937534
    C           -0.205724564992    -0.081504013227     0.462373068590
    C           -2.307143572044     0.926892927726    -0.667098616655
    C            0.996323436721    -0.063509696144    -0.493923711480
    H           -0.260209626570     0.842136133078     1.028435084125
    H           -0.102913067705    -0.904189029690     1.161799671910
    C            2.380777934361     0.008762458786     0.179282341533
    H            0.900965306904     0.740777976671    -1.220776701413
    H            0.958147103488    -0.974328381836    -1.083855728052
    C            2.465847899949     0.860381397722     1.447505619807
    H            2.691325799392    -1.001139452807     0.435867617253
    H            3.100089296762     0.368111377426    -0.550394726108
    H            1.852318352919     0.455474955003     2.244683486665
    H            2.147873330578     1.884538500182     1.269380749854
    H            3.488525807665     0.894804127483     1.809372392212
    H           -3.112532088540     0.655402287827    -1.335223373645
    H           -1.682524671284     1.684978882877    -1.130301992242
    H           -2.721915775186     1.362406184912     0.238191156909

  Mulliken Charges: (a.u.)
   Center  Symbol    Alpha    Beta     Spin     Total
       1     O     4.26202  4.26202  0.00000 -0.52405
       2     C     2.73700  2.73700  0.00000  0.52601
       3     C     3.20245  3.20245  0.00000 -0.40489
       4     C     3.28950  3.28950  0.00000 -0.57900
       5     C     3.16584  3.16584  0.00000 -0.33167
       6     H     0.41396  0.41396  0.00000  0.17209
       7     H     0.40118  0.40118  0.00000  0.19764
       8     C     3.15243  3.15243  0.00000 -0.30486
       9     H     0.42018  0.42018  0.00000  0.15964
      10     H     0.40466  0.40466  0.00000  0.19068
      11     C     3.24437  3.24437  0.00000 -0.48873
      12     H     0.41818  0.41818  0.00000  0.16363
      13     H     0.41740  0.41740  0.00000  0.16521
      14     H     0.41870  0.41870  0.00000  0.16260
      15     H     0.42249  0.42249  0.00000  0.15502
      16     H     0.41625  0.41625  0.00000  0.16751
      17     H     0.39700  0.39700  0.00000  0.20600
      18     H     0.40966  0.40966  0.00000  0.18069
      19     H     0.40675  0.40675  0.00000  0.18650

   Total alpha = 28.00000, Total beta = 28.00000, Total charge = -0.00000
