  ==> Input File <==

--------------------------------------------------------------------------
set {
	reference rhf
	basis cc-pvtz
}

set_num_threads( 4 )
memory 2 gb

molecule MOL {
0 1

H	 1.818022	 2.415730	 0.421748
N	 0.976891	 1.885960	 0.335536
C	 1.263552	 0.494993	 0.021953
H	 0.434580	 2.309929	 -0.387987
C	 -0.016533	 -0.325589	 -0.026925
H	 1.908347	 0.105431	 0.802641
H	 1.802995	 0.374426	 -0.918498
C	 -1.280353	 0.525521	 0.047747
H	 -0.016686	 -0.912532	 -0.939714
H	 -0.014099	 -1.037598	 0.796369
C	 -2.560681	 -0.301323	 -0.007747
H	 -1.279957	 1.241025	 -0.770189
H	 -1.270445	 1.110526	 0.963468
H	 -2.617064	 -0.872870	 -0.928010
H	 -3.439525	 0.331102	 0.043462
H	 -2.609427	 -1.002736	 0.818585

	symmetry c1
}
set optking {
	frozen_dihedral = ("
		6 3 5 9
	")
}

ee = optimize('scf')
oeprop('DIPOLE', 'QUADRUPOLE', 'MULLIKEN_CHARGES')
f=open( 'psi4out.xyz', 'w' )
f.write( "16  " )
f.write( str(ee) + "\n" )
f.write( MOL.save_string_xyz() )
f.close()
--------------------------------------------------------------------------

    Molecular point group: c1
  Charge       = 0
  Multiplicity = 1
  Basis Set: CC-PVTZ
  Basis Set:
  @DF-RHF Final Energy:  -212.38777783037079
    Total Energy =                       -212.3877778303707373
    Molecular point group: c1
  Basis Set: CC-PVTZ
  Basis Set:
  Basis Set: CC-PVTZ
  Basis Set:
  @DF-RHF Final Energy:  -212.38816101778897
    Total Energy =                       -212.3881610177889456
  Basis Set: CC-PVTZ
  Basis Set:
  Basis Set: CC-PVTZ
  Basis Set:
  @DF-RHF Final Energy:  -212.39066302270328
    Total Energy =                       -212.3906630227033929
  Basis Set: CC-PVTZ
  Basis Set:
  Basis Set: CC-PVTZ
  Basis Set:
  @DF-RHF Final Energy:  -212.39088784394247
    Total Energy =                       -212.3908878439426644
  Basis Set: CC-PVTZ
  Basis Set:
  Basis Set: CC-PVTZ
  Basis Set:
  @DF-RHF Final Energy:  -212.39089812463021
    Total Energy =                       -212.3908981246305530
  Basis Set: CC-PVTZ
  Basis Set:
  Basis Set: CC-PVTZ
  Basis Set:
  @DF-RHF Final Energy:  -212.39090749307744
    Total Energy =                       -212.3909074930775205
  Basis Set: CC-PVTZ
  Basis Set:
  Basis Set: CC-PVTZ
  Basis Set:
  @DF-RHF Final Energy:  -212.39091026905479
    Total Energy =                       -212.3909102690549844
  Basis Set: CC-PVTZ
  Basis Set:
  Charge       = 0
  Multiplicity = 1
  Basis Set: CC-PVTZ
  Basis Set:

    Orbital Energies (a.u.)
    -----------------------

    Doubly Occupied:

       1A    -15.526270     2A    -11.239409     3A    -11.208541
       4A    -11.206919     5A    -11.202492     6A     -1.176935
       7A     -1.053367     8A     -0.957165     9A     -0.852404
      10A     -0.776296    11A     -0.667929    12A     -0.639387
      13A     -0.601032    14A     -0.581137    15A     -0.552287
      16A     -0.524716    17A     -0.503127    18A     -0.468672
      19A     -0.465566    20A     -0.452188    21A     -0.380025

  @DF-RHF Final Energy:  -212.39091043385181

   => Energetics <=

    Nuclear Repulsion Energy =            189.3578847165884724
    One-Electron Energy =                -661.4258663824966789
    Two-Electron Energy =                 259.6770712320564485
    DFT Exchange-Correlation Energy =       0.0000000000000000
    Empirical Dispersion Energy =           0.0000000000000000
    PCM Polarization Energy =               0.0000000000000000
    EFP Energy =                            0.0000000000000000
    Total Energy =                       -212.3909104338517295
    Molecular point group: c1
  Basis Set: CC-PVTZ
  Basis Set:

  -Total Gradient:
     Atom            X                  Y                   Z
    ------   -----------------  -----------------  -----------------
       1        0.000000153022    -0.000007976264    -0.000000736907
       2        0.000004383180    -0.000016398754    -0.000001005141
       3        0.001115560408    -0.001713039938    -0.002629120591
       4       -0.000000587219    -0.000006981531    -0.000002206702
       5        0.001306768682    -0.002224344961     0.002072866031
       6       -0.001139250549     0.001813736245     0.001906544032
       7        0.000000292113     0.000004590246     0.000002271885
       8        0.000003468726    -0.000005867634    -0.000000797656
       9       -0.001288086501     0.002157569053    -0.001350098838
      10       -0.000003940260     0.000002986845    -0.000002870895
      11       -0.000001678027    -0.000004597910     0.000002901261
      12        0.000002224574     0.000001773338    -0.000000614167
      13        0.000000993694    -0.000000494749     0.000001881514
      14        0.000002236853     0.000000512892     0.000001544126
      15        0.000000903869     0.000000845541    -0.000001814866
      16       -0.000003442568    -0.000002312420     0.000001256913

  **** Optimization is complete! (in 8 steps) ****
    Final optimized geometry and variables:
    Molecular point group: c1

    Geometry (in Angstrom), charge = 0, multiplicity = 1:

    H            2.286706866248     1.872018981345     0.423293775922
    N            1.400247959399     1.438681819732     0.275747625220
    C            1.577838920434     0.030932193761    -0.060421229780
    H            0.951166656962     1.938280781972    -0.461880151376
    C            0.256501165163    -0.775953004697    -0.089021789599
    H            2.216917321155    -0.379205340862     0.711292936012
    H            2.098133972378    -0.102217940116    -1.006803983866
    C           -1.037099839835     0.037626935220    -0.030837933169
    H            0.230883725109    -1.362675929807    -1.002155636317
    H            0.250378057071    -1.483019874223     0.733516707141
    C           -2.274149837334    -0.854152848645    -0.070689203878
    H           -1.077144396439     0.729961502535    -0.867788779378
    H           -1.050374349349     0.641914050409     0.866446539529
    H           -2.304567544692    -1.448820966998    -0.978007278797
    H           -3.182743019021    -0.264056503459    -0.032117557079
    H           -2.289583411673    -1.538658560275     0.771127995020

  Mulliken Charges: (a.u.)
   Center  Symbol    Alpha    Beta     Spin     Total
       1     H     0.42924  0.42924  0.00000  0.14151
       2     N     3.68796  3.68796  0.00000 -0.37592
       3     C     3.03443  3.03443  0.00000 -0.06885
       4     H     0.42906  0.42906  0.00000  0.14189
       5     C     3.09013  3.09013  0.00000 -0.18025
       6     H     0.45632  0.45632  0.00000  0.08736
       7     H     0.46189  0.46189  0.00000  0.07622
       8     C     3.08761  3.08761  0.00000 -0.17523
       9     H     0.45473  0.45473  0.00000  0.09055
      10     H     0.45403  0.45403  0.00000  0.09195
      11     C     3.15126  3.15126  0.00000 -0.30252
      12     H     0.45992  0.45992  0.00000  0.08015
      13     H     0.44209  0.44209  0.00000  0.11582
      14     H     0.45723  0.45723  0.00000  0.08553
      15     H     0.44887  0.44887  0.00000  0.10226
      16     H     0.45524  0.45524  0.00000  0.08953

   Total alpha = 21.00000, Total beta = 21.00000, Total charge = -0.00000
