  ==> Input File <==

--------------------------------------------------------------------------
set {
	reference rhf
	basis cc-pvtz
}

set_num_threads( 4 )
memory 2 gb

molecule MOL {
0 1

H	 -2.613419	 -1.573634	 -0.696314
N	 -1.696331	 -1.486277	 -0.313705
C	 -1.437386	 -0.123526	 0.112907
H	 -1.046677	 -1.751342	 -1.023414
C	 -0.041985	 -0.002107	 0.681027
H	 -1.548099	 0.608984	 -0.685664
H	 -2.144572	 0.136370	 0.892903
O	 0.881195	 -0.248324	 -0.336237
H	 0.106190	 0.997743	 1.086634
H	 0.087915	 -0.719957	 1.487715
C	 2.208068	 -0.234417	 0.074171
H	 2.725499	 -1.027054	 -0.446768
H	 2.688377	 0.712084	 -0.164856
H	 2.295137	 -0.403407	 1.144883

	symmetry c1
}
set optking {
	frozen_dihedral = ("
		5 8 11 13
	")
}

ee = optimize('scf')
oeprop('DIPOLE', 'QUADRUPOLE', 'MULLIKEN_CHARGES')
f=open( 'psi4out.xyz', 'w' )
f.write( "14  " )
f.write( str(ee) + "\n" )
f.write( MOL.save_string_xyz() )
f.close()
--------------------------------------------------------------------------

    Molecular point group: c1
  Charge       = 0
  Multiplicity = 1
  Basis Set: CC-PVTZ
  Basis Set:
  @DF-RHF Final Energy:  -248.22335235889426
    Total Energy =                       -248.2233523588944308
    Molecular point group: c1
  Basis Set: CC-PVTZ
  Basis Set:
  Basis Set: CC-PVTZ
  Basis Set:
  @DF-RHF Final Energy:  -248.22351926396354
    Total Energy =                       -248.2235192639633965
  Basis Set: CC-PVTZ
  Basis Set:
  Basis Set: CC-PVTZ
  Basis Set:
  @DF-RHF Final Energy:  -248.22355754169692
    Total Energy =                       -248.2235575416970619
  Basis Set: CC-PVTZ
  Basis Set:
  Charge       = 0
  Multiplicity = 1
  Basis Set: CC-PVTZ
  Basis Set:

    Orbital Energies (a.u.)
    -----------------------

    Doubly Occupied:

       1A    -20.548292     2A    -15.523164     3A    -11.264352
       4A    -11.263273     5A    -11.239498     6A     -1.381049
       7A     -1.175624     8A     -1.000575     9A     -0.907835
      10A     -0.815398    11A     -0.683915    12A     -0.674307
      13A     -0.646103    14A     -0.611064    15A     -0.608135
      16A     -0.540849    17A     -0.534253    18A     -0.497704
      19A     -0.473743    20A     -0.416072    21A     -0.383547

  @DF-RHF Final Energy:  -248.22355797266343

   => Energetics <=

    Nuclear Repulsion Energy =            194.4864936020495918
    One-Electron Energy =                -723.0426072159564228
    Two-Electron Energy =                 280.3325556412431752
    DFT Exchange-Correlation Energy =       0.0000000000000000
    Empirical Dispersion Energy =           0.0000000000000000
    PCM Polarization Energy =               0.0000000000000000
    EFP Energy =                            0.0000000000000000
    Total Energy =                       -248.2235579726636843
    Molecular point group: c1
  Basis Set: CC-PVTZ
  Basis Set:

  -Total Gradient:
     Atom            X                  Y                   Z
    ------   -----------------  -----------------  -----------------
       1        0.000007751188     0.000003876615    -0.000000381074
       2        0.000007057859     0.000010412051    -0.000016111953
       3       -0.000040853540    -0.000017946581     0.000077516771
       4       -0.000002553587     0.000000309708    -0.000005899909
       5       -0.000155822275    -0.001930186498     0.000361635213
       6        0.000032109954    -0.000024343374     0.000020282402
       7       -0.000047464455     0.000002785730     0.000003138542
       8        0.000449639438     0.002592104059    -0.001198675762
       9        0.000002547914    -0.000011225616     0.000006302380
      10       -0.000000475387     0.000003053129    -0.000029812473
      11       -0.000916580937     0.000323295502     0.003039627170
      12        0.000010855125    -0.000005067321     0.000003486753
      13        0.000659212390    -0.000941389406    -0.002264027256
      14       -0.000005423689    -0.000005677997     0.000002919197

  **** Optimization is complete! (in 4 steps) ****
    Final optimized geometry and variables:
    Molecular point group: c1

    Geometry (in Angstrom), charge = 0, multiplicity = 1:

    H           -2.599765083968    -1.148032196693    -0.742697632687
    N           -1.686923631078    -1.057679439244    -0.350800961198
    C           -1.436585698804     0.305981050182     0.077835647854
    H           -1.029304762780    -1.320476618547    -1.053920645134
    C           -0.046577659989     0.432342690339     0.658160716108
    H           -1.542758732546     1.037843917332    -0.721874154289
    H           -2.151376466946     0.563978510672     0.851666681067
    O            0.884071828150     0.179377452663    -0.351966619986
    H            0.092520102799     1.434429201373     1.061374835120
    H            0.076527914437    -0.282302450817     1.467626354988
    C            2.221678566025     0.187256067978     0.037510702845
    H            2.740290646532    -0.598946086808    -0.496283456999
    H            2.692713221972     1.132070879889    -0.217538132147
    H            2.335625445974     0.009632886434     1.101747124392

  Mulliken Charges: (a.u.)
   Center  Symbol    Alpha    Beta     Spin     Total
       1     H     0.43032  0.43032  0.00000  0.13935
       2     N     3.69425  3.69425  0.00000 -0.38849
       3     C     3.02352  3.02352  0.00000 -0.04704
       4     H     0.42224  0.42224  0.00000  0.15553
       5     C     2.96851  2.96851  0.00000  0.06297
       6     H     0.46471  0.46471  0.00000  0.07058
       7     H     0.45870  0.45870  0.00000  0.08260
       8     O     4.18346  4.18346  0.00000 -0.36693
       9     H     0.47059  0.47059  0.00000  0.05882
      10     H     0.46769  0.46769  0.00000  0.06461
      11     C     3.02851  3.02851  0.00000 -0.05702
      12     H     0.45288  0.45288  0.00000  0.09423
      13     H     0.46273  0.46273  0.00000  0.07453
      14     H     0.47187  0.47187  0.00000  0.05625

   Total alpha = 21.00000, Total beta = 21.00000, Total charge = -0.00000
