                              Psi4 1.0.54 Driver

  ==> Input File <==

--------------------------------------------------------------------------
set {
	reference rhf
	basis cc-pvtz
}

set_num_threads( 4 )
memory 2 gb

molecule MOL {
0 1

H	 -0.366580	 2.045936	 -0.305741
C	 0.351829	 1.335402	 0.083179
N	 -0.000018	 0.000080	 -0.334836
H	 1.327156	 1.599860	 -0.305475
H	 0.380566	 1.445403	 1.171445
C	 -0.467932	 -0.032584	 -1.699522
C	 1.074185	 -0.936808	 -0.109957
H	 -0.788177	 -1.034299	 -1.956624
H	 -1.316727	 0.629473	 -1.815349
H	 0.298797	 0.272042	 -2.418132
H	 1.352739	 -0.935978	 0.936269
H	 0.752392	 -1.937547	 -0.368984
H	 1.967919	 -0.706390	 -0.697543

	symmetry c1
}
set optking {
	frozen_dihedral = ("
		6 3 2 1
	")
}

ee,wfn = optimize('scf', return_wfn=True)
oeprop( wfn, 'DIPOLE', 'QUADRUPOLE', 'MULLIKEN_CHARGES')
f=open( 'psi4out.xyz', 'w' )
f.write( "13  " )
f.write( str(ee) + "\n" )
f.write( MOL.save_string_xyz() )
f.close()
--------------------------------------------------------------------------

    Molecular point group: c1
  Charge       = 0
  Multiplicity = 1
  Basis Set: CC-PVTZ
  Basis Set:
  @DF-RHF Final Energy:  -173.33226555026690
    Total Energy =                       -173.3322655502669249
    Molecular point group: c1
  Basis Set: CC-PVTZ
  Basis Set:
  Basis Set: CC-PVTZ
  Basis Set:
  @DF-RHF Final Energy:  -173.33290408749170
    Total Energy =                       -173.3329040874917553
  Basis Set: CC-PVTZ
  Basis Set:
  Basis Set: CC-PVTZ
  Basis Set:
  @DF-RHF Final Energy:  -173.33296584687849
    Total Energy =                       -173.3329658468784373
  Basis Set: CC-PVTZ
  Basis Set:
  Charge       = 0
  Multiplicity = 1
  Basis Set: CC-PVTZ
  Basis Set:

    Orbital Energies (a.u.)
    -----------------------

    Doubly Occupied:

       1A    -15.537770     2A    -11.234481     3A    -11.234282
       4A    -11.234249     5A     -1.225941     6A     -0.953171
       7A     -0.952381     8A     -0.806156     9A     -0.641764
      10A     -0.632285    11A     -0.631157    12A     -0.545487
      13A     -0.542946    14A     -0.517187    15A     -0.503897
      16A     -0.502863    17A     -0.345446

  @DF-RHF Final Energy:  -173.33296764106672

   => Energetics <=

    Nuclear Repulsion Energy =            139.3157683806001614
    One-Electron Energy =                -509.2145453515129248
    Two-Electron Energy =                 196.5658093298459903
    DFT Exchange-Correlation Energy =       0.0000000000000000
    Empirical Dispersion Energy =           0.0000000000000000
    PCM Polarization Energy =               0.0000000000000000
    EFP Energy =                            0.0000000000000000
    Total Energy =                       -173.3329676410667730
    Molecular point group: c1
  Basis Set: CC-PVTZ
  Basis Set:

  -Total Gradient:
     Atom            X                  Y                   Z
    ------   -----------------  -----------------  -----------------
       1        0.001871925146     0.000408590051    -0.002864902048
       2       -0.003296745334    -0.000310589083     0.003942534894
       3        0.003826395863    -0.000400603406    -0.001871379060
       4        0.000002621800    -0.000012222439    -0.000028019860
       5       -0.000012979468    -0.000061638311    -0.000046039645
       6       -0.002481686121     0.000445336190     0.000679677648
       7        0.000133756153    -0.000064285063     0.000022195501
       8        0.000025758040     0.000000672049     0.000060593724
       9       -0.000015591179     0.000012634765     0.000010059154
      10       -0.000010102337    -0.000021627019     0.000065142169
      11        0.000010231150    -0.000004630736     0.000007792200
      12       -0.000004803319    -0.000001725291     0.000006467320
      13       -0.000048780393     0.000010088292     0.000015878004

  **** Optimization is complete! (in 4 steps) ****
    Final optimized geometry and variables:
    Molecular point group: c1

    Geometry (in Angstrom), charge = 0, multiplicity = 1:

    H           -0.643730330260     1.948382993016     0.225622142524
    C            0.086145805396     1.246242378049     0.606230515714
    N           -0.245316880118    -0.091649819388     0.178259436211
    H            1.062837112959     1.574892581885     0.237010502451
    H            0.100776791617     1.306445110428     1.687450264729
    C           -0.719036982011    -0.148564506546    -1.182031226208
    C            0.814969957174    -1.029662502594     0.444671048125
    H           -1.018122457629    -1.160822358807    -1.423839089972
    H           -1.583957432605     0.491368566331    -1.299715118605
    H            0.033817736925     0.161461512473    -1.913932163688
    H            1.081063498519    -0.996999367935     1.494148369421
    H            0.488757757689    -2.036282469975     0.214946979753
    H            1.719095134808    -0.824879220276    -0.137152506791

  Mulliken Charges: (a.u.)
   Center  Symbol    Alpha    Beta     Spin     Total
       1     H     0.45435  0.45435  0.00000  0.09130
       2     C     3.08820  3.08820  0.00000 -0.17640
       3     N     3.59573  3.59573  0.00000 -0.19146
       4     H     0.47375  0.47375  0.00000  0.05250
       5     H     0.45117  0.45117  0.00000  0.09766
       6     C     3.08841  3.08841  0.00000 -0.17681
       7     C     3.08907  3.08907  0.00000 -0.17815
       8     H     0.45298  0.45298  0.00000  0.09405
       9     H     0.45243  0.45243  0.00000  0.09515
      10     H     0.47448  0.47448  0.00000  0.05104
      11     H     0.45308  0.45308  0.00000  0.09384
      12     H     0.45290  0.45290  0.00000  0.09420
      13     H     0.47346  0.47346  0.00000  0.05308

   Total alpha = 17.00000, Total beta = 17.00000, Total charge = -0.00000

*** Psi4 exiting successfully. Buy a developer a beer!
