  ==> Input File <==

--------------------------------------------------------------------------
set {
	reference rhf
	basis 6-31G*
}

set_num_threads( 4 )
memory 2 gb

molecule MOL {
0 1

H	 2.359330	 1.416714	 0.391368
O	 1.435095	 1.477635	 0.585264
C	 0.702312	 0.627605	 -0.264544
C	 -0.714990	 0.596302	 0.266387
H	 1.116067	 -0.377150	 -0.253181
H	 0.712890	 0.996002	 -1.288114
O	 -1.405996	 -0.526611	 -0.195820
H	 -1.257453	 1.468809	 -0.075599
H	 -0.688972	 0.618407	 1.353696
H	 -0.890587	 -1.292708	 0.022039

	symmetry c1
}
set optking {
	frozen_dihedral = ("
		5 3 4 7
	")
}

ee = optimize('scf')
oeprop('DIPOLE', 'QUADRUPOLE', 'MULLIKEN_CHARGES')
f=open( 'psi4out.xyz', 'w' )
f.write( "10  " )
f.write( str(ee) + "\n" )
f.write( MOL.save_string_xyz() )
f.close()
--------------------------------------------------------------------------

    Molecular point group: c1
  Charge       = 0
  Multiplicity = 1
  Basis Set: 6-31G*
  Basis Set:
  @DF-RHF Final Energy:  -228.91867378368303
    Total Energy =                       -228.9186737836830332
    Molecular point group: c1
  Basis Set: 6-31G*
  Basis Set:
  Basis Set: 6-31G*
  Basis Set:
  @DF-RHF Final Energy:  -228.91995894519818
    Total Energy =                       -228.9199589451981751
  Basis Set: 6-31G*
  Basis Set:
  Basis Set: 6-31G*
  Basis Set:
  @DF-RHF Final Energy:  -228.92035754363084
    Total Energy =                       -228.9203575436309848
  Basis Set: 6-31G*
  Basis Set:
  Basis Set: 6-31G*
  Basis Set:
  @DF-RHF Final Energy:  -228.92039093551449
    Total Energy =                       -228.9203909355144901
  Basis Set: 6-31G*
  Basis Set:
  Charge       = 0
  Multiplicity = 1
  Basis Set: 6-31G*
  Basis Set:

    Orbital Energies (a.u.)
    -----------------------

    Doubly Occupied:

       1A    -20.563803     2A    -20.559189     3A    -11.273584
       4A    -11.268950     5A     -1.375834     6A     -1.361723
       7A     -0.997217     8A     -0.846717     9A     -0.725628
      10A     -0.678612    11A     -0.647108    12A     -0.613405
      13A     -0.573599    14A     -0.525168    15A     -0.494093
      16A     -0.444024    17A     -0.437960

  @DF-RHF Final Energy:  -228.92039257792570

   => Energetics <=

    Nuclear Repulsion Energy =            131.2885213256049326
    One-Electron Energy =                -573.6446012029772419
    Two-Electron Energy =                 213.4356872994466414
    DFT Exchange-Correlation Energy =       0.0000000000000000
    Empirical Dispersion Energy =           0.0000000000000000
    PCM Polarization Energy =               0.0000000000000000
    EFP Energy =                            0.0000000000000000
    Total Energy =                       -228.9203925779256394
    Molecular point group: c1
  Basis Set: 6-31G*
  Basis Set:

  -Total Gradient:
     Atom            X                  Y                   Z
    ------   -----------------  -----------------  -----------------
       1       -0.000018541849    -0.000006075685     0.000004423723
       2       -0.000094392078    -0.000094114912    -0.000125520729
       3        0.001874706540    -0.000059683159     0.005353047922
       4       -0.001464644881     0.002190929525    -0.003996117269
       5       -0.001184139061    -0.000380921015    -0.003608107652
       6        0.000024718605     0.000020728643    -0.000016295943
       7        0.000869638782    -0.001673525717     0.002356467788
       8        0.000002309066     0.000026549237     0.000017521087
       9       -0.000014428754     0.000005628498     0.000014562564
      10        0.000004773630    -0.000029515414     0.000000018509

  **** Optimization is complete! (in 5 steps) ****
    Final optimized geometry and variables:
    Molecular point group: c1

    Geometry (in Angstrom), charge = 0, multiplicity = 1:

    H            2.285754431726     1.081523826415     0.193762698198
    O            1.419463823513     0.925624415358     0.541133416193
    C            0.696948853376     0.099770249833    -0.328713826350
    C           -0.745184173874     0.057233701204     0.156888044064
    H            1.096868946634    -0.913424261007    -0.360104450745
    H            0.729614521623     0.476795830734    -1.348473549220
    O           -1.443139596647    -1.030053560397    -0.387523223155
    H           -1.272375040843     0.952404273825    -0.141367407514
    H           -0.743298121169     0.021456049096     1.242882039008
    H           -1.146483339580    -1.830808552598     0.021295587714

  Mulliken Charges: (a.u.)
   Center  Symbol    Alpha    Beta     Spin     Total
       1     H     0.27804  0.27804  0.00000  0.44393
       2     O     4.37126  4.37126  0.00000 -0.74251
       3     C     3.00595  3.00595  0.00000 -0.01190
       4     C     3.00478  3.00478  0.00000 -0.00955
       5     H     0.43433  0.43433  0.00000  0.13134
       6     H     0.42477  0.42477  0.00000  0.15045
       7     O     4.37098  4.37098  0.00000 -0.74197
       8     H     0.40994  0.40994  0.00000  0.18012
       9     H     0.41884  0.41884  0.00000  0.16233
      10     H     0.28112  0.28112  0.00000  0.43776

   Total alpha = 17.00000, Total beta = 17.00000, Total charge = -0.00000
