                              Psi4 1.0.54 Driver

  ==> Input File <==

--------------------------------------------------------------------------
set {
	reference rhf
	basis cc-pvtz
}

set_num_threads( 4 )
memory 2 gb

molecule MOL {
0 1

O	 0.599156	 1.312370	 0.433129
C	 0.471959	 0.152940	 0.229679
C	 1.595684	 -0.852054	 0.196701
O	 -0.695554	 -0.422406	 0.000602
C	 2.962617	 -0.239305	 0.455552
H	 1.559355	 -1.342454	 -0.769808
H	 1.361970	 -1.618907	 0.926941
H	 3.198588	 0.513325	 -0.284775
H	 3.726758	 -1.006206	 0.419497
H	 2.999425	 0.234376	 1.427405
C	 -1.852370	 0.402254	 0.000718
C	 -3.063338	 -0.501097	 -0.000437
H	 -1.831732	 1.039442	 -0.872158
H	 -1.832493	 1.038301	 0.874430
H	 -3.071944	 -1.133732	 -0.879113
H	 -3.966302	 0.097976	 -0.000483
H	 -3.072764	 -1.134834	 0.877435

	symmetry c1
}
set optking {
	frozen_dihedral = ("
		2 4 11 13
	")
}

ee,wfn = optimize('scf', return_wfn=True)
oeprop( wfn, 'DIPOLE', 'QUADRUPOLE', 'MULLIKEN_CHARGES')
f=open( 'psi4out.xyz', 'w' )
f.write( "17  " )
f.write( str(ee) + "\n" )
f.write( MOL.save_string_xyz() )
f.close()
--------------------------------------------------------------------------

    Molecular point group: c1
  Charge       = 0
  Multiplicity = 1
  Basis Set: CC-PVTZ
  Basis Set:
  @DF-RHF Final Energy:  -345.04041122777073
    Total Energy =                       -345.0404112277708464
    Molecular point group: c1
  Basis Set: CC-PVTZ
  Basis Set:
  Basis Set: CC-PVTZ
  Basis Set:
  @DF-RHF Final Energy:  -345.04042220001168
    Total Energy =                       -345.0404222000113350
  Basis Set: CC-PVTZ
  Basis Set:
  Basis Set: CC-PVTZ
  Basis Set:
  @DF-RHF Final Energy:  -345.04029433988643
    Total Energy =                       -345.0402943398866569
  Basis Set: CC-PVTZ
  Basis Set:
  Basis Set: CC-PVTZ
  Basis Set:
  @DF-RHF Final Energy:  -345.04044021199763
    Total Energy =                       -345.0404402119978613
  Basis Set: CC-PVTZ
  Basis Set:
  Charge       = 0
  Multiplicity = 1
  Basis Set: CC-PVTZ
  Basis Set:

    Orbital Energies (a.u.)
    -----------------------

    Doubly Occupied:

       1A    -20.593387     2A    -20.532822     3A    -11.363597
       4A    -11.282525     5A    -11.235827     6A    -11.220277
       7A    -11.213778     8A     -1.470258     9A     -1.364941
      10A     -1.070871    11A     -1.032511    12A     -0.911924
      13A     -0.847699    14A     -0.774596    15A     -0.698753
      16A     -0.691931    17A     -0.667642    18A     -0.630431
      19A     -0.584813    20A     -0.573664    21A     -0.558428
      22A     -0.525089    23A     -0.520105    24A     -0.515349
      25A     -0.504950    26A     -0.494005    27A     -0.455941
      28A     -0.439186

  @DF-RHF Final Energy:  -345.04044246436479

   => Energetics <=

    Nuclear Repulsion Energy =            315.2092419760095936
    One-Electron Energy =               -1094.9487714199569837
    Two-Electron Energy =                 434.6990869795825461
    DFT Exchange-Correlation Energy =       0.0000000000000000
    Empirical Dispersion Energy =           0.0000000000000000
    PCM Polarization Energy =               0.0000000000000000
    EFP Energy =                            0.0000000000000000
    Total Energy =                       -345.0404424643648440
    Molecular point group: c1
  Basis Set: CC-PVTZ
  Basis Set:

  -Total Gradient:
     Atom            X                  Y                   Z
    ------   -----------------  -----------------  -----------------
       1       -0.000011945808     0.000001452432    -0.000009752243
       2       -0.000097303102    -0.000168218957     0.000885951720
       3       -0.000005025121    -0.000001438094     0.000014143090
       4        0.000033425326     0.000052421447    -0.001384422533
       5        0.000000010847     0.000005673634    -0.000005817775
       6        0.000000207878     0.000001880348    -0.000006608814
       7        0.000000035965    -0.000001523065    -0.000007371244
       8       -0.000000643923    -0.000001528662     0.000002375665
       9       -0.000003312331    -0.000000596472     0.000000481896
      10        0.000001388518     0.000000483851     0.000001548288
      11        0.000576604283     0.000815351856     0.001047935712
      12        0.000005083351     0.000009574930    -0.000008217702
      13       -0.000503214765    -0.000705572069    -0.000537199818
      14        0.000005857674    -0.000006485954    -0.000000123636
      15       -0.000002744998     0.000002516923     0.000004775271
      16       -0.000003367633    -0.000004097643    -0.000000214613
      17        0.000004943835     0.000000105494     0.000002516738

  **** Optimization is complete! (in 5 steps) ****
    Final optimized geometry and variables:
    Molecular point group: c1

    Geometry (in Angstrom), charge = 0, multiplicity = 1:

    O            0.617337769836     1.331629589538     0.228778912163
    C            0.484089238864     0.170846485360     0.037549187047
    C            1.603395757194    -0.839355737095     0.012263514600
    O           -0.685795609244    -0.402473489408    -0.185172397311
    C            2.973657460793    -0.229992733535     0.261340333720
    H            1.562435659846    -1.339118637055    -0.949261411576
    H            1.368292322478    -1.597955994101     0.750593833773
    H            3.210906239323     0.514101994860    -0.487140241868
    H            3.734334525549    -1.000569516243     0.231030595563
    H            3.015141181665     0.253266510711     1.228273406792
    C           -1.845336016333     0.418448839340    -0.171826437954
    C           -3.053488173582    -0.489351038038    -0.186297801267
    H           -1.829634256430     1.059095895247    -1.043414925024
    H           -1.828423944762     1.045901768556     0.706484811075
    H           -3.053750692450    -1.118123581661    -1.067746691841
    H           -3.958579479889     0.106556121790    -0.190343533665
    H           -3.066941761929    -1.127006599372     0.688735198947

  Mulliken Charges: (a.u.)
   Center  Symbol    Alpha    Beta     Spin     Total
       1     O     4.19707  4.19707  0.00000 -0.39413
       2     C     2.80849  2.80849  0.00000  0.38303
       3     C     3.09373  3.09373  0.00000 -0.18746
       4     O     4.15157  4.15157  0.00000 -0.30315
       5     C     3.13973  3.13973  0.00000 -0.27947
       6     H     0.44143  0.44143  0.00000  0.11714
       7     H     0.44187  0.44187  0.00000  0.11626
       8     H     0.44839  0.44839  0.00000  0.10321
       9     H     0.45058  0.45058  0.00000  0.09884
      10     H     0.44850  0.44850  0.00000  0.10300
      11     C     2.98102  2.98102  0.00000  0.03796
      12     C     3.13292  3.13292  0.00000 -0.26584
      13     H     0.45569  0.45569  0.00000  0.08862
      14     H     0.45148  0.45148  0.00000  0.09704
      15     H     0.45137  0.45137  0.00000  0.09727
      16     H     0.45454  0.45454  0.00000  0.09093
      17     H     0.45162  0.45162  0.00000  0.09675

   Total alpha = 28.00000, Total beta = 28.00000, Total charge =  0.00000

*** Psi4 exiting successfully. Buy a developer a beer!
