                              Psi4 1.0.54 Driver

  ==> Input File <==

--------------------------------------------------------------------------
set {
	reference rhf
	basis cc-pvtz
}

set_num_threads( 4 )
memory 2 gb

molecule MOL {
0 1

H	 -2.422505	 1.541272	 -1.826908
O	 -2.451128	 2.023938	 -1.020269
C	 -1.207678	 1.966058	 -0.392489
C	 -0.793473	 0.591216	 0.050087
H	 -1.270447	 2.615403	 0.472794
H	 -0.430222	 2.378093	 -1.033183
C	 -1.534243	 -0.493009	 -0.013340
H	 0.205059	 0.530400	 0.450692
H	 -1.101195	 -1.466332	 -0.144046
H	 -2.604242	 -0.437780	 0.050785

	symmetry c1
}
set optking {
	frozen_dihedral = ("
		3 4 7 9
	")
}

ee,wfn = optimize('scf', return_wfn=True)
oeprop( wfn, 'DIPOLE', 'QUADRUPOLE', 'MULLIKEN_CHARGES')
f=open( 'psi4out.xyz', 'w' )
f.write( "10  " )
f.write( str(ee) + "\n" )
f.write( MOL.save_string_xyz() )
f.close()
--------------------------------------------------------------------------

    Molecular point group: c1
  Charge       = 0
  Multiplicity = 1
  Basis Set: CC-PVTZ
  Basis Set:
  @DF-RHF Final Energy:  -191.97904016239593
    Total Energy =                       -191.9790401623959610
    Molecular point group: c1
  Basis Set: CC-PVTZ
  Basis Set:
  Basis Set: CC-PVTZ
  Basis Set:
  @DF-RHF Final Energy:  -191.98809826837680
    Total Energy =                       -191.9880982683768593
  Basis Set: CC-PVTZ
  Basis Set:
  Basis Set: CC-PVTZ
  Basis Set:
  @DF-RHF Final Energy:  -191.99021397753813
    Total Energy =                       -191.9902139775380761
  Basis Set: CC-PVTZ
  Basis Set:
  Basis Set: CC-PVTZ
  Basis Set:
  @DF-RHF Final Energy:  -191.99027384756442
    Total Energy =                       -191.9902738475643105
  Basis Set: CC-PVTZ
  Basis Set:
  Basis Set: CC-PVTZ
  Basis Set:
  @DF-RHF Final Energy:  -191.99027783323587
    Total Energy =                       -191.9902778332358366
  Basis Set: CC-PVTZ
  Basis Set:
  Charge       = 0
  Multiplicity = 1
  Basis Set: CC-PVTZ
  Basis Set:

    Orbital Energies (a.u.)
    -----------------------

    Doubly Occupied:

       1A    -20.555097     2A    -11.280578     3A    -11.233871
       4A    -11.218465     5A     -1.376125     6A     -1.063715
       7A     -0.934295     8A     -0.773166     9A     -0.694342
      10A     -0.664379    11A     -0.622111    12A     -0.576762
      13A     -0.537606    14A     -0.501604    15A     -0.452354
      16A     -0.366239

  @DF-RHF Final Energy:  -191.99027824492376

   => Energetics <=

    Nuclear Repulsion Energy =            119.4759591344615899
    One-Electron Energy =                -497.2310547322129537
    Two-Electron Energy =                 185.7648173528275493
    DFT Exchange-Correlation Energy =       0.0000000000000000
    Empirical Dispersion Energy =           0.0000000000000000
    PCM Polarization Energy =               0.0000000000000000
    EFP Energy =                            0.0000000000000000
    Total Energy =                       -191.9902782449238430
    Molecular point group: c1
  Basis Set: CC-PVTZ
  Basis Set:

  -Total Gradient:
     Atom            X                  Y                   Z
    ------   -----------------  -----------------  -----------------
       1       -0.000013366914    -0.000001461144     0.000007666386
       2        0.000018346620    -0.000008742687    -0.000054968679
       3        0.006807278452    -0.002814409189    -0.012044210661
       4       -0.011012149928     0.005200770205     0.012139994169
       5        0.000028468690    -0.000017971687     0.000004666946
       6       -0.000025421411    -0.000012074769    -0.000013851818
       7        0.003094069368    -0.003387955390     0.018671646549
       8       -0.000052232547    -0.000032801446     0.000083913325
       9        0.001089125943     0.001082265662    -0.018805845298
      10        0.000065881726    -0.000007619554     0.000010989081

  **** Optimization is complete! (in 6 steps) ****
    Final optimized geometry and variables:
    Molecular point group: c1

    Geometry (in Angstrom), charge = 0, multiplicity = 1:

    H           -0.992631461444     0.325308292712    -1.347484969763
    O           -0.958284660373     0.921778834310    -0.621178931962
    C            0.312518848496     0.897374424150    -0.052401047937
    C            0.735084684977    -0.436075334562     0.499400103757
    H            0.316875213631     1.660432464318     0.717023164809
    H            1.072067782330     1.183040114509    -0.777488148155
    C            0.078112876211    -1.572346667496     0.394925187462
    H            1.771036521693    -0.464952837740     0.799118448797
    H            0.585516052554    -2.518182714540     0.368564143202
    H           -0.947903575131    -1.585891168575     0.074180060382

  Mulliken Charges: (a.u.)
   Center  Symbol    Alpha    Beta     Spin     Total
       1     H     0.39118  0.39118  0.00000  0.21765
       2     O     4.19901  4.19901  0.00000 -0.39801
       3     C     2.94858  2.94858  0.00000  0.10284
       4     C     3.07900  3.07900  0.00000 -0.15801
       5     H     0.45286  0.45286  0.00000  0.09429
       6     H     0.46913  0.46913  0.00000  0.06174
       7     C     3.17743  3.17743  0.00000 -0.35487
       8     H     0.42616  0.42616  0.00000  0.14768
       9     H     0.42676  0.42676  0.00000  0.14647
      10     H     0.42989  0.42989  0.00000  0.14023

   Total alpha = 16.00000, Total beta = 16.00000, Total charge =  0.00000

*** Psi4 exiting successfully. Buy a developer a beer!
