                              Psi4 1.0.54 Driver

  ==> Input File <==

--------------------------------------------------------------------------
set {
	reference rhf
	basis cc-pvtz
}

set_num_threads( 4 )
memory 2 gb

molecule MOL {
0 1

H	 -2.498963	 -0.741158	 -0.729149
O	 -2.346257	 -0.289210	 0.080372
C	 -1.183935	 0.486039	 -0.009831
C	 0.062853	 -0.375310	 0.027457
H	 -1.178881	 1.094526	 -0.908634
H	 -1.184406	 1.155156	 0.838676
O	 0.261113	 -0.800495	 1.335647
H	 0.922386	 0.198745	 -0.322628
H	 -0.059883	 -1.221751	 -0.644888
C	 1.361026	 -1.630798	 1.514563
H	 2.285815	 -1.131265	 1.234373
H	 1.410786	 -1.893496	 2.561081
H	 1.270597	 -2.541928	 0.927890

	symmetry c1
}
set optking {
	frozen_dihedral = ("
		8 4 3 5
	")
}

ee,wfn = optimize('scf', return_wfn=True)
oeprop( wfn, 'DIPOLE', 'QUADRUPOLE', 'MULLIKEN_CHARGES')
f=open( 'psi4out.xyz', 'w' )
f.write( "13  " )
f.write( str(ee) + "\n" )
f.write( MOL.save_string_xyz() )
f.close()
--------------------------------------------------------------------------

    Molecular point group: c1
  Charge       = 0
  Multiplicity = 1
  Basis Set: CC-PVTZ
  Basis Set:
  @DF-RHF Final Energy:  -268.05963076614410
    Total Energy =                       -268.0596307661440392
    Molecular point group: c1
  Basis Set: CC-PVTZ
  Basis Set:
  Basis Set: CC-PVTZ
  Basis Set:
  @DF-RHF Final Energy:  -268.06000906961606
    Total Energy =                       -268.0600090696161715
  Basis Set: CC-PVTZ
  Basis Set:
  Basis Set: CC-PVTZ
  Basis Set:
  @DF-RHF Final Energy:  -268.06011216842535
    Total Energy =                       -268.0601121684252348
  Basis Set: CC-PVTZ
  Basis Set:
  Basis Set: CC-PVTZ
  Basis Set:
  @DF-RHF Final Energy:  -268.06013489801285
    Total Energy =                       -268.0601348980126204
  Basis Set: CC-PVTZ
  Basis Set:
  Basis Set: CC-PVTZ
  Basis Set:
  @DF-RHF Final Energy:  -268.06013902763664
    Total Energy =                       -268.0601390276365237
  Basis Set: CC-PVTZ
  Basis Set:
  Charge       = 0
  Multiplicity = 1
  Basis Set: CC-PVTZ
  Basis Set:

    Orbital Energies (a.u.)
    -----------------------

    Doubly Occupied:

       1A    -20.552899     2A    -20.547646     3A    -11.272321
       4A    -11.268722     5A    -11.265841     6A     -1.391617
       7A     -1.363943     8A     -1.020854     9A     -0.917115
      10A     -0.841917    11A     -0.700446    12A     -0.680227
      13A     -0.664122    14A     -0.634315    15A     -0.605260
      16A     -0.567768    17A     -0.536646    18A     -0.502698
      19A     -0.475116    20A     -0.440039    21A     -0.422818

  @DF-RHF Final Energy:  -268.06013919370105

   => Energetics <=

    Nuclear Repulsion Energy =            192.8381830908057566
    One-Electron Energy =                -748.4519799228860393
    Two-Electron Energy =                 287.5536576383792067
    DFT Exchange-Correlation Energy =       0.0000000000000000
    Empirical Dispersion Energy =           0.0000000000000000
    PCM Polarization Energy =               0.0000000000000000
    EFP Energy =                            0.0000000000000000
    Total Energy =                       -268.0601391937011044
    Molecular point group: c1
  Basis Set: CC-PVTZ
  Basis Set:

  -Total Gradient:
     Atom            X                  Y                   Z
    ------   -----------------  -----------------  -----------------
       1        0.000002102794     0.000001007426    -0.000002969721
       2        0.000042224433     0.000032945690     0.000010978219
       3       -0.001282180946    -0.001920271228    -0.001666235078
       4        0.000637512333     0.001015455686     0.002558504197
       5        0.000948681062     0.001432495649     0.000982645405
       6       -0.000013628038    -0.000004498624    -0.000000587475
       7        0.000021180192     0.000000974343    -0.000017745373
       8       -0.000339498907    -0.000580283074    -0.001858974354
       9       -0.000001883334     0.000010770305    -0.000014638408
      10       -0.000011783219     0.000006969278     0.000013317056
      11       -0.000001036779     0.000002112701    -0.000002446365
      12        0.000002469718    -0.000001611240     0.000001992633
      13       -0.000004159308     0.000003933088    -0.000003840735

  **** Optimization is complete! (in 6 steps) ****
    Final optimized geometry and variables:
    Molecular point group: c1

    Geometry (in Angstrom), charge = 0, multiplicity = 1:

    H           -2.077947507185    -0.247909981224    -1.224759621104
    O           -1.981990596067     0.318985707003    -0.481310460249
    C           -0.788387870093     1.038458573724    -0.574522797889
    C            0.453848722985     0.174487116179    -0.531568356739
    H           -0.761118221600     1.646362096739    -1.476342763891
    H           -0.771460412867     1.712443546697     0.270545949542
    O            0.661994369947    -0.299311795333     0.755484597395
    H            1.307628520417     0.760047570522    -0.874165651846
    H            0.343897712807    -0.657745870014    -1.230175634470
    C            1.745425359887    -1.158298306044     0.886289718016
    H            2.676559823090    -0.673108539900     0.600315955314
    H            1.810648419027    -1.452062026740     1.923539093483
    H            1.621909244736    -2.050943088916     0.276838203370

  Mulliken Charges: (a.u.)
   Center  Symbol    Alpha    Beta     Spin     Total
       1     H     0.39661  0.39661  0.00000  0.20679
       2     O     4.19721  4.19721  0.00000 -0.39442
       3     C     2.96383  2.96383  0.00000  0.07233
       4     C     2.96531  2.96531  0.00000  0.06938
       5     H     0.47381  0.47381  0.00000  0.05238
       6     H     0.45525  0.45525  0.00000  0.08951
       7     O     4.16760  4.16760  0.00000 -0.33520
       8     H     0.47595  0.47595  0.00000  0.04810
       9     H     0.48404  0.48404  0.00000  0.03192
      10     C     3.03102  3.03102  0.00000 -0.06203
      11     H     0.47237  0.47237  0.00000  0.05526
      12     H     0.44538  0.44538  0.00000  0.10924
      13     H     0.47162  0.47162  0.00000  0.05676

   Total alpha = 21.00000, Total beta = 21.00000, Total charge = -0.00000

*** Psi4 exiting successfully. Buy a developer a beer!
