  ==> Input File <==

--------------------------------------------------------------------------
set {
	reference rhf
	basis cc-pvtz
}

set_num_threads( 4 )
memory 2 gb

molecule MOL {
0 1

H	 -2.698799	 -0.000846	 0.036018
C	 -1.694291	 -0.000483	 0.434279
O	 -0.828718	 -0.000608	 -0.655022
H	 -1.576855	 0.881100	 1.056504
H	 -1.576401	 -0.881658	 1.057001
C	 0.557892	 0.000078	 -0.420099
C	 1.350163	 -0.575005	 -1.588799
C	 1.077441	 1.365625	 0.015331
H	 0.667246	 -0.677143	 0.417774
H	 0.931807	 -1.525474	 -1.896443
H	 2.379562	 -0.736856	 -1.290656
H	 1.359080	 0.089843	 -2.444650
H	 0.470013	 1.760944	 0.820190
H	 2.096975	 1.274362	 0.371692
H	 1.079015	 2.081977	 -0.797921

	symmetry c1
}
set optking {
	frozen_dihedral = ("
		9 6 3 2
	")
}

ee = optimize('scf')
oeprop('DIPOLE', 'QUADRUPOLE', 'MULLIKEN_CHARGES')
f=open( 'psi4out.xyz', 'w' )
f.write( "15  " )
f.write( str(ee) + "\n" )
f.write( MOL.save_string_xyz() )
f.close()
--------------------------------------------------------------------------

    Molecular point group: c1
  Charge       = 0
  Multiplicity = 1
  Basis Set: CC-PVTZ
  Basis Set:
  @DF-RHF Final Energy:  -232.22595084241777
    Total Energy =                       -232.2259508424177170
    Molecular point group: c1
  Basis Set: CC-PVTZ
  Basis Set:
  Basis Set: CC-PVTZ
  Basis Set:
  @DF-RHF Final Energy:  -232.22933548897188
    Total Energy =                       -232.2293354889720831
  Basis Set: CC-PVTZ
  Basis Set:
  Basis Set: CC-PVTZ
  Basis Set:
  @DF-RHF Final Energy:  -232.22999514169351
    Total Energy =                       -232.2299951416935073
  Basis Set: CC-PVTZ
  Basis Set:
  Basis Set: CC-PVTZ
  Basis Set:
  @DF-RHF Final Energy:  -232.23001729133469
    Total Energy =                       -232.2300172913346046
  Basis Set: CC-PVTZ
  Basis Set:
  Basis Set: CC-PVTZ
  Basis Set:
  @DF-RHF Final Energy:  -232.23002153293712
    Total Energy =                       -232.2300215329372008
  Basis Set: CC-PVTZ
  Basis Set:
  Charge       = 0
  Multiplicity = 1
  Basis Set: CC-PVTZ
  Basis Set:

    Orbital Energies (a.u.)
    -----------------------

    Doubly Occupied:

       1A    -20.544187     2A    -11.272794     3A    -11.260888
       4A    -11.207253     5A    -11.204610     6A     -1.378366
       7A     -1.053757     8A     -0.941415     9A     -0.916482
      10A     -0.794147    11A     -0.674192    12A     -0.640392
      13A     -0.639017    14A     -0.588090    15A     -0.550473
      16A     -0.541953    17A     -0.531020    18A     -0.499000
      19A     -0.490950    20A     -0.456389    21A     -0.410789

  @DF-RHF Final Energy:  -232.23002171566287

   => Energetics <=

    Nuclear Repulsion Energy =            197.5811017406664405
    One-Electron Energy =                -706.4299301720589028
    Two-Electron Energy =                 276.6188067157295336
    DFT Exchange-Correlation Energy =       0.0000000000000000
    Empirical Dispersion Energy =           0.0000000000000000
    PCM Polarization Energy =               0.0000000000000000
    EFP Energy =                            0.0000000000000000
    Total Energy =                       -232.2300217156629287
    Molecular point group: c1
  Basis Set: CC-PVTZ
  Basis Set:

  -Total Gradient:
     Atom            X                  Y                   Z
    ------   -----------------  -----------------  -----------------
       1        0.000006906643     0.000001559473    -0.000007676925
       2       -0.000017034221    -0.000159658186     0.000014325890
       3       -0.000005029105     0.000279924084     0.000047041965
       4        0.000009127902    -0.000001074618    -0.000005490955
       5        0.000002251186     0.000002687683    -0.000008820679
       6        0.000020660713    -0.000279269019    -0.000143274946
       7        0.000040338482     0.000007661281    -0.000010437675
       8        0.000006298171    -0.000016199328    -0.000005257424
       9       -0.000023715552     0.000157593531     0.000131004370
      10       -0.000002238309    -0.000002768766     0.000008099155
      11       -0.000023076482     0.000008860437    -0.000001860858
      12        0.000001486689     0.000005760366    -0.000013444437
      13       -0.000006713452     0.000001025608     0.000005259158
      14       -0.000009840941    -0.000002442267    -0.000004178392
      15        0.000000578275    -0.000003660283    -0.000005288247

  **** Optimization is complete! (in 6 steps) ****
    Final optimized geometry and variables:
    Molecular point group: c1

    Geometry (in Angstrom), charge = 0, multiplicity = 1:

    H           -2.764321726447    -0.175642125089     0.373182515675
    C           -1.769560370576    -0.139945122679     0.793776328649
    O           -0.868207380137    -0.139899187184    -0.263395753358
    H           -1.690128003860     0.752880529696     1.407124773934
    H           -1.631620041871    -1.009454668676     1.432829855340
    C            0.492998377712    -0.184329798875     0.074934971419
    C            1.232453859817    -0.735703296906    -1.130654375351
    C            1.014112977285     1.188904506998     0.481452532475
    H            0.624741272882    -0.870558393382     0.910992338900
    H            0.856460384415    -1.717822442665    -1.386801716680
    H            2.294409112347    -0.812880431809    -0.928147973760
    H            1.091737749323    -0.085253487376    -1.986023231842
    H            0.491437583207     1.576352314915     1.346954833436
    H            2.067938132626     1.135224603791     0.730142699290
    H            0.888745200026     1.892352493103    -0.333633848157

  Mulliken Charges: (a.u.)
   Center  Symbol    Alpha    Beta     Spin     Total
       1     H     0.44606  0.44606  0.00000  0.10788
       2     C     3.03555  3.03555  0.00000 -0.07109
       3     O     4.18350  4.18350  0.00000 -0.36701
       4     H     0.47135  0.47135  0.00000  0.05730
       5     H     0.47142  0.47142  0.00000  0.05715
       6     C     2.91985  2.91985  0.00000  0.16031
       7     C     3.14050  3.14050  0.00000 -0.28101
       8     C     3.14810  3.14810  0.00000 -0.29620
       9     H     0.46870  0.46870  0.00000  0.06261
      10     H     0.44793  0.44793  0.00000  0.10414
      11     H     0.45858  0.45858  0.00000  0.08284
      12     H     0.45237  0.45237  0.00000  0.09525
      13     H     0.45181  0.45181  0.00000  0.09638
      14     H     0.45246  0.45246  0.00000  0.09507
      15     H     0.45182  0.45182  0.00000  0.09636

   Total alpha = 21.00000, Total beta = 21.00000, Total charge = -0.00000
