  ==> Input File <==

--------------------------------------------------------------------------
set {
	reference rhf
	basis 6-31G*
}

set_num_threads( 4 )
memory 2 gb

molecule MOL {
0 1

H	 3.810316	 0.506074	 -0.841049
N	 3.020588	 -0.109554	 -0.811445
C	 1.831396	 0.598036	 -0.359047
H	 3.253109	 -0.848113	 -0.174817
C	 0.611664	 -0.316078	 -0.408052
H	 1.675258	 1.440270	 -1.026222
H	 1.934659	 1.011017	 0.647523
C	 -0.679275	 0.379305	 0.025956
H	 0.510265	 -0.698719	 -1.419555
H	 0.788442	 -1.179912	 0.232165
C	 -1.903357	 -0.536963	 -0.023547
H	 -0.854946	 1.244457	 -0.611618
H	 -0.562924	 0.765544	 1.037454
C	 -3.225172	 0.228290	 0.028445
H	 -1.867824	 -1.134999	 -0.931459
H	 -1.860449	 -1.239604	 0.805977
H	 -3.313397	 0.915643	 -0.808262
H	 -4.073500	 -0.448134	 -0.008893
H	 -3.306061	 0.809945	 0.942516

	symmetry c1
}
set optking {
	frozen_dihedral = ("
		12 8 11 15
	")
}

ee = optimize('scf')
oeprop('DIPOLE', 'QUADRUPOLE', 'MULLIKEN_CHARGES')
f=open( 'psi4out.xyz', 'w' )
f.write( "19  " )
f.write( str(ee) + "\n" )
f.write( MOL.save_string_xyz() )
f.close()
--------------------------------------------------------------------------

    Molecular point group: c1
  Charge       = 0
  Multiplicity = 1
  Basis Set: 6-31G*
  Basis Set:
  @DF-RHF Final Energy:  -251.35079951491639
    Total Energy =                       -251.3507995149163321
    Molecular point group: c1
  Basis Set: 6-31G*
  Basis Set:
  Basis Set: 6-31G*
  Basis Set:
  @DF-RHF Final Energy:  -251.35090032418506
    Total Energy =                       -251.3509003241849769
  Basis Set: 6-31G*
  Basis Set:
  Basis Set: 6-31G*
  Basis Set:
  @DF-RHF Final Energy:  -251.35094434384456
    Total Energy =                       -251.3509443438445032
  Basis Set: 6-31G*
  Basis Set:
  Charge       = 0
  Multiplicity = 1
  Basis Set: 6-31G*
  Basis Set:

    Orbital Energies (a.u.)
    -----------------------

    Doubly Occupied:

       1A    -15.532545     2A    -11.239800     3A    -11.213866
       4A    -11.212629     5A    -11.209734     6A    -11.207716
       7A     -1.176647     8A     -1.072575     9A     -0.998549
      10A     -0.900305    11A     -0.813351    12A     -0.789668
      13A     -0.665042    14A     -0.639725    15A     -0.616706
      16A     -0.589263    17A     -0.566683    18A     -0.545024
      19A     -0.532407    20A     -0.497732    21A     -0.481977
      22A     -0.465789    23A     -0.458628    24A     -0.449919
      25A     -0.381032

  @DF-RHF Final Energy:  -251.35094532433254

   => Energetics <=

    Nuclear Repulsion Energy =            245.6105049823554509
    One-Electron Energy =                -825.4082813340703524
    Two-Electron Energy =                 328.4468310273823590
    DFT Exchange-Correlation Energy =       0.0000000000000000
    Empirical Dispersion Energy =           0.0000000000000000
    PCM Polarization Energy =               0.0000000000000000
    EFP Energy =                            0.0000000000000000
    Total Energy =                       -251.3509453243325424
    Molecular point group: c1
  Basis Set: 6-31G*
  Basis Set:

  -Total Gradient:
     Atom            X                  Y                   Z
    ------   -----------------  -----------------  -----------------
       1        0.000007390466    -0.000005967718     0.000006447679
       2        0.000025142316     0.000002590747     0.000012625961
       3       -0.000016319979    -0.000009400136    -0.000021162308
       4        0.000007821297    -0.000003085199    -0.000001450050
       5        0.000005275609     0.000004898128    -0.000007282197
       6       -0.000004755655    -0.000007115614    -0.000003049840
       7       -0.000007407105     0.000004593731    -0.000002501852
       8        0.001733792489    -0.002246273119    -0.002438809366
       9       -0.000006805195     0.000027120144    -0.000000966921
      10       -0.000002318784     0.000002647066     0.000004467084
      11       -0.002118052024     0.002848068419    -0.001218724568
      12       -0.001097542087     0.001425692876     0.002234543370
      13       -0.000001146034     0.000002855602     0.000001716303
      14       -0.000024829348    -0.000003167575     0.000019677525
      15        0.001492814019    -0.002038800940     0.001404751578
      16       -0.000015641776     0.000009849006    -0.000000606159
      17        0.000025638973    -0.000011010041     0.000010629330
      18       -0.000001839301    -0.000001957369    -0.000007509824
      19       -0.000001217878    -0.000001538010     0.000007204255

  **** Optimization is complete! (in 4 steps) ****
    Final optimized geometry and variables:
    Molecular point group: c1

    Geometry (in Angstrom), charge = 0, multiplicity = 1:

    H            3.846168002696     0.451313079045    -0.534061488385
    N            3.052236844755    -0.159543999086    -0.526150053309
    C            1.858785230894     0.550997275866    -0.089715079408
    H            3.267768254038    -0.905985049263     0.107294501159
    C            0.634614266872    -0.354598659397    -0.172030461339
    H            1.720634397848     1.401101031967    -0.750938285098
    H            1.944921255351     0.952760865014     0.922885199582
    C           -0.660377997388     0.344289257002     0.239975402607
    H            0.551636953144    -0.728145514957    -1.188398531136
    H            0.791928939134    -1.224991780447     0.464708838432
    C           -1.884225404017    -0.576829881049     0.216377948345
    H           -0.840792891319     1.205542099142    -0.401549968523
    H           -0.549783754967     0.751437623854     1.244298314122
    C           -3.209103776264     0.176234438017     0.314850341849
    H           -1.865579647683    -1.186291093516    -0.684469868455
    H           -1.809461027978    -1.280942673480     1.042859472527
    H           -3.342169720035     0.846618661906    -0.529408872070
    H           -4.051548356054    -0.508330384125     0.330451782648
    H           -3.252645226375     0.774616772235     1.220811101560

  Mulliken Charges: (a.u.)
   Center  Symbol    Alpha    Beta     Spin     Total
       1     H     0.33246  0.33246  0.00000  0.33508
       2     N     3.92192  3.92192  0.00000 -0.84383
       3     C     3.06036  3.06036  0.00000 -0.12071
       4     H     0.33536  0.33536  0.00000  0.32927
       5     C     3.15181  3.15181  0.00000 -0.30362
       6     H     0.42075  0.42075  0.00000  0.15850
       7     H     0.43468  0.43468  0.00000  0.13064
       8     C     3.15556  3.15556  0.00000 -0.31113
       9     H     0.41278  0.41278  0.00000  0.17445
      10     H     0.42759  0.42759  0.00000  0.14483
      11     C     3.15133  3.15133  0.00000 -0.30266
      12     H     0.42342  0.42342  0.00000  0.15317
      13     H     0.42462  0.42462  0.00000  0.15075
      14     C     3.23944  3.23944  0.00000 -0.47888
      15     H     0.42172  0.42172  0.00000  0.15655
      16     H     0.42326  0.42326  0.00000  0.15348
      17     H     0.42138  0.42138  0.00000  0.15723
      18     H     0.41942  0.41942  0.00000  0.16117
      19     H     0.42215  0.42215  0.00000  0.15571

   Total alpha = 25.00000, Total beta = 25.00000, Total charge = -0.00000
