  ==> Input File <==

--------------------------------------------------------------------------
set {
	reference rhf
	basis cc-pvtz
}

set_num_threads( 4 )
memory 2 gb

molecule MOL {
0 1

H	 2.646708	 0.758099	 0.000000
O	 2.258158	 -0.097743	 0.000000
C	 0.911162	 -0.015915	 0.000000
C	 0.284807	 0.235812	 1.209593
C	 0.159878	 -0.173327	 -1.149441
H	 0.883529	 0.355134	 2.090952
C	 -1.089340	 0.327816	 1.257862
H	 0.645831	 -0.368688	 -2.088235
C	 -1.219042	 -0.078359	 -1.086037
H	 -1.569320	 0.523055	 2.198022
C	 -1.852971	 0.171943	 0.112885
H	 -1.794948	 -0.201908	 -1.983475
H	 -2.921853	 0.244902	 0.158318

	symmetry c1
}
set optking {
	frozen_dihedral = ("
		4 3 2 1
	")
}

ee = optimize('scf')
oeprop('DIPOLE', 'QUADRUPOLE', 'MULLIKEN_CHARGES')
f=open( 'psi4out.xyz', 'w' )
f.write( "13  " )
f.write( str(ee) + "\n" )
f.write( MOL.save_string_xyz() )
f.close()
--------------------------------------------------------------------------

    Molecular point group: c1
  Charge       = 0
  Multiplicity = 1
  Basis Set: CC-PVTZ
  Basis Set:
  @DF-RHF Final Energy:  -305.66532572655666
    Total Energy =                       -305.6653257265568300
    Molecular point group: c1
  Basis Set: CC-PVTZ
  Basis Set:
  Basis Set: CC-PVTZ
  Basis Set:
  @DF-RHF Final Energy:  -305.66632261629155
    Total Energy =                       -305.6663226162914953
  Basis Set: CC-PVTZ
  Basis Set:
  Basis Set: CC-PVTZ
  Basis Set:
  @DF-RHF Final Energy:  -305.66638945183098
    Total Energy =                       -305.6663894518309235
  Basis Set: CC-PVTZ
  Basis Set:
  Basis Set: CC-PVTZ
  Basis Set:
  @DF-RHF Final Energy:  -305.66639697020304
    Total Energy =                       -305.6663969702029817
  Basis Set: CC-PVTZ
  Basis Set:
  Charge       = 0
  Multiplicity = 1
  Basis Set: CC-PVTZ
  Basis Set:

    Orbital Energies (a.u.)
    -----------------------

    Doubly Occupied:

       1A    -20.571386     2A    -11.288945     3A    -11.233518
       4A    -11.233131     5A    -11.225947     6A    -11.225640
       7A    -11.224872     8A     -1.398194     9A     -1.153316
      10A     -1.022358    11A     -1.008347    12A     -0.840019
      13A     -0.828538    14A     -0.738109    15A     -0.684275
      16A     -0.651635    17A     -0.632321    18A     -0.596926
      19A     -0.592046    20A     -0.526722    21A     -0.517729
      22A     -0.498450    23A     -0.471918    24A     -0.341866
      25A     -0.329186

  @DF-RHF Final Energy:  -305.66639828719963

   => Energetics <=

    Nuclear Repulsion Energy =            273.3169699580391807
    One-Electron Energy =                -956.2959495696842396
    Two-Electron Energy =                 377.3125813244453184
    DFT Exchange-Correlation Energy =       0.0000000000000000
    Empirical Dispersion Energy =           0.0000000000000000
    PCM Polarization Energy =               0.0000000000000000
    EFP Energy =                            0.0000000000000000
    Total Energy =                       -305.6663982871997405
    Molecular point group: c1
  Basis Set: CC-PVTZ
  Basis Set:

  -Total Gradient:
     Atom            X                  Y                   Z
    ------   -----------------  -----------------  -----------------
       1       -0.000034527948     0.000034439664    -0.000893014816
       2        0.000179926179    -0.000368885730     0.001180811482
       3       -0.000179616116     0.000933235100    -0.000585018660
       4       -0.000063452608    -0.000634153826     0.000191598805
       5        0.000192477181     0.000004519633     0.000046726658
       6       -0.000030863531    -0.000008033917    -0.000018666579
       7        0.000091296802     0.000052545350     0.000041760063
       8        0.000036099851    -0.000006884554     0.000012655435
       9       -0.000167335491     0.000058684905     0.000097272482
      10       -0.000040849256    -0.000009949859    -0.000005625384
      11        0.000005497914    -0.000058633311    -0.000134327465
      12        0.000017104502    -0.000001317758     0.000016115250
      13       -0.000005757476     0.000004434304     0.000049712730

  **** Optimization is complete! (in 5 steps) ****
    Final optimized geometry and variables:
    Molecular point group: c1

    Geometry (in Angstrom), charge = 0, multiplicity = 1:

    H            2.674672414466     0.670740945000    -0.080673031266
    O            2.264212860825    -0.176004208039    -0.089185403005
    C            0.903609871949    -0.050556141332    -0.035222063213
    C            0.273446471156     0.186756468405     1.171678089436
    C            0.160791446642    -0.219087139419    -1.186801157618
    H            0.864242757017     0.293992276968     2.060936826469
    C           -1.104885553273     0.271099745412     1.219588638368
    H            0.667827857641    -0.418014880774    -2.110770735138
    C           -1.218190730088    -0.138882156609    -1.130120864813
    H           -1.592231659196     0.456634171640     2.157790733421
    C           -1.855964239745     0.109433608146     0.070317584765
    H           -1.793390398084    -0.271348058144    -2.026579844355
    H           -2.926227038457     0.170929721468     0.111647083732

  Mulliken Charges: (a.u.)
   Center  Symbol    Alpha    Beta     Spin     Total
       1     H     0.38801  0.38801  0.00000  0.22397
       2     O     4.19213  4.19213  0.00000 -0.38427
       3     C     2.87265  2.87265  0.00000  0.25469
       4     C     3.11312  3.11312  0.00000 -0.22623
       5     C     3.10775  3.10775  0.00000 -0.21551
       6     H     0.41835  0.41835  0.00000  0.16330
       7     C     3.06945  3.06945  0.00000 -0.13890
       8     H     0.41656  0.41656  0.00000  0.16689
       9     C     3.06866  3.06866  0.00000 -0.13732
      10     H     0.42170  0.42170  0.00000  0.15660
      11     C     3.08695  3.08695  0.00000 -0.17390
      12     H     0.42160  0.42160  0.00000  0.15680
      13     H     0.42306  0.42306  0.00000  0.15389

   Total alpha = 25.00000, Total beta = 25.00000, Total charge = -0.00000
