                              Psi4 1.0.54 Driver

  ==> Input File <==

--------------------------------------------------------------------------
set {
	reference rhf
	basis cc-pvtz
}

set_num_threads( 4 )
memory 2 gb

molecule MOL {
0 1

H	 2.828711	 -0.346904	 0.001083
C	 1.876752	 0.015931	 -0.363450
C	 0.776285	 -0.474665	 0.563092
H	 1.728113	 -0.357244	 -1.367440
H	 1.906171	 1.096574	 -0.386153
N	 -0.540022	 0.017605	 0.071630
H	 0.707111	 -1.548969	 0.573035
H	 0.886169	 -0.084184	 1.560432
O	 -1.040562	 -0.574977	 -0.824194
O	 -0.984398	 0.985791	 0.590805

	symmetry c1
}
set optking {
	frozen_dihedral = ("
		9 6 3 2
	")
}

ee,wfn = optimize('scf', return_wfn=True)
oeprop( wfn, 'DIPOLE', 'QUADRUPOLE', 'MULLIKEN_CHARGES')
f=open( 'psi4out.xyz', 'w' )
f.write( "10  " )
f.write( str(ee) + "\n" )
f.write( MOL.save_string_xyz() )
f.close()
--------------------------------------------------------------------------

    Molecular point group: c1
  Charge       = 0
  Multiplicity = 1
  Basis Set: CC-PVTZ
  Basis Set:
  @DF-RHF Final Energy:  -282.81332927638562
    Total Energy =                       -282.8133292763857298
    Molecular point group: c1
  Basis Set: CC-PVTZ
  Basis Set:
  Basis Set: CC-PVTZ
  Basis Set:
  @DF-RHF Final Energy:  -282.81320833308718
    Total Energy =                       -282.8132083330872319
  Basis Set: CC-PVTZ
  Basis Set:
  Basis Set: CC-PVTZ
  Basis Set:
  @DF-RHF Final Energy:  -282.81331288724198
    Total Energy =                       -282.8133128872419775
  Basis Set: CC-PVTZ
  Basis Set:
  Basis Set: CC-PVTZ
  Basis Set:
  @DF-RHF Final Energy:  -282.81334221421196
    Total Energy =                       -282.8133422142118434
  Basis Set: CC-PVTZ
  Basis Set:
  Charge       = 0
  Multiplicity = 1
  Basis Set: CC-PVTZ
  Basis Set:

    Orbital Energies (a.u.)
    -----------------------

    Doubly Occupied:

       1A    -20.592775     2A    -20.591006     3A    -15.838395
       4A    -11.301834     5A    -11.250760     6A     -1.637649
       7A     -1.422079     8A     -1.126531     9A     -0.966840
      10A     -0.839698    11A     -0.763590    12A     -0.739774
      13A     -0.730153    14A     -0.659635    15A     -0.590575
      16A     -0.560284    17A     -0.549512    18A     -0.488520
      19A     -0.479350    20A     -0.454874

  @DF-RHF Final Energy:  -282.81334239685879

   => Energetics <=

    Nuclear Repulsion Energy =            186.7750213148460716
    One-Electron Energy =                -756.0090641821129793
    Two-Electron Energy =                 286.4207004704079509
    DFT Exchange-Correlation Energy =       0.0000000000000000
    Empirical Dispersion Energy =           0.0000000000000000
    PCM Polarization Energy =               0.0000000000000000
    EFP Energy =                            0.0000000000000000
    Total Energy =                       -282.8133423968589568
    Molecular point group: c1
  Basis Set: CC-PVTZ
  Basis Set:

  -Total Gradient:
     Atom            X                  Y                   Z
    ------   -----------------  -----------------  -----------------
       1       -0.000001472772    -0.000001311363    -0.000000664880
       2        0.000001168584    -0.000045158881    -0.000037418843
       3        0.000008194867     0.000099449771     0.000037922809
       4        0.000000248887    -0.000000320449    -0.000002288326
       5       -0.000003523377    -0.000005533508     0.000003124190
       6       -0.000046658756    -0.000262386647    -0.000077227230
       7        0.000003022562     0.000001682759    -0.000000169311
       8       -0.000001105402    -0.000000022397    -0.000003459278
       9        0.000077681239     0.000113882064     0.000026269761
      10       -0.000037555840     0.000099718648     0.000053911107

  **** Optimization is complete! (in 5 steps) ****
    Final optimized geometry and variables:
    Molecular point group: c1

    Geometry (in Angstrom), charge = 0, multiplicity = 1:

    H            2.832711142466    -0.324921064251    -0.007514159995
    C            1.876414771516     0.022271506195    -0.376017397810
    C            0.783669397711    -0.460102320908     0.563476977007
    H            1.726782397467    -0.369246166933    -1.372135227265
    H            1.897820528582     1.103090856183    -0.418062351102
    N           -0.539849120842     0.015755580343     0.074427009610
    H            0.720884523550    -1.535447447105     0.584004783549
    H            0.895509895258    -0.061113702851     1.556544565770
    O           -1.039366601431    -0.596577356453    -0.809001143109
    O           -0.992425948158     0.986093286602     0.581601229658

  Mulliken Charges: (a.u.)
   Center  Symbol    Alpha    Beta     Spin     Total
       1     H     0.44795  0.44795  0.00000  0.10410
       2     C     3.14083  3.14083  0.00000 -0.28165
       3     C     3.03743  3.03743  0.00000 -0.07486
       4     H     0.43935  0.43935  0.00000  0.12131
       5     H     0.44228  0.44228  0.00000  0.11544
       6     N     3.27657  3.27657  0.00000  0.44685
       7     H     0.43565  0.43565  0.00000  0.12870
       8     H     0.43401  0.43401  0.00000  0.13198
       9     O     4.17445  4.17445  0.00000 -0.34891
      10     O     4.17148  4.17148  0.00000 -0.34296

   Total alpha = 20.00000, Total beta = 20.00000, Total charge =  0.00000

*** Psi4 exiting successfully. Buy a developer a beer!
