  ==> Input File <==

--------------------------------------------------------------------------
set {
	reference rhf
	basis 6-31G*
}

set_num_threads( 4 )
memory 2 gb

molecule MOL {
0 1

H	 2.594836	 -0.689124	 -0.379852
O	 1.654024	 -0.625927	 -0.460906
C	 1.135793	 0.118896	 0.612333
C	 0.031547	 1.023609	 0.088541
H	 1.915668	 0.729681	 1.063582
H	 0.754543	 -0.542641	 1.387006
C	 -1.134819	 0.293262	 -0.585751
H	 0.474374	 1.714721	 -0.623187
H	 -0.338529	 1.620940	 0.920081
C	 -1.917817	 -0.639439	 0.339494
H	 -0.758119	 -0.268455	 -1.433105
H	 -1.813832	 1.041889	 -0.986690
H	 -2.777680	 -1.057197	 -0.174994
H	 -1.310268	 -1.471279	 0.680599
H	 -2.283753	 -0.111424	 1.216626

	symmetry c1
}
set optking {
	frozen_dihedral = ("
		1 2 3 4
	")
}

ee = optimize('scf')
oeprop('DIPOLE', 'QUADRUPOLE', 'MULLIKEN_CHARGES')
f=open( 'psi4out.xyz', 'w' )
f.write( "15  " )
f.write( str(ee) + "\n" )
f.write( MOL.save_string_xyz() )
f.close()
--------------------------------------------------------------------------

    Molecular point group: c1
  Charge       = 0
  Multiplicity = 1
  Basis Set: 6-31G*
  Basis Set:
  @DF-RHF Final Energy:  -232.14215213582278
    Total Energy =                       -232.1421521358230393
    Molecular point group: c1
  Basis Set: 6-31G*
  Basis Set:
  Basis Set: 6-31G*
  Basis Set:
  @DF-RHF Final Energy:  -232.14223769817798
    Total Energy =                       -232.1422376981779507
  Basis Set: 6-31G*
  Basis Set:
  Basis Set: 6-31G*
  Basis Set:
  @DF-RHF Final Energy:  -232.14228596681085
    Total Energy =                       -232.1422859668109027
  Basis Set: 6-31G*
  Basis Set:
  Basis Set: 6-31G*
  Basis Set:
  @DF-RHF Final Energy:  -232.14228965225666
    Total Energy =                       -232.1422896522567498
  Basis Set: 6-31G*
  Basis Set:
  Basis Set: 6-31G*
  Basis Set:
  @DF-RHF Final Energy:  -232.14229079955822
    Total Energy =                       -232.1422907995579976
  Basis Set: 6-31G*
  Basis Set:
  Charge       = 0
  Multiplicity = 1
  Basis Set: 6-31G*
  Basis Set:

    Orbital Energies (a.u.)
    -----------------------

    Doubly Occupied:

       1A    -20.551990     2A    -11.267686     3A    -11.211920
       4A    -11.207872     5A    -11.202923     6A     -1.358392
       7A     -1.062939     8A     -0.968962     9A     -0.868402
      10A     -0.775778    11A     -0.701281    12A     -0.645535
      13A     -0.609888    14A     -0.570796    15A     -0.562362
      16A     -0.530781    17A     -0.508018    18A     -0.478121
      19A     -0.465597    20A     -0.450977    21A     -0.426858

  @DF-RHF Final Energy:  -232.14229100553692

   => Energetics <=

    Nuclear Repulsion Energy =            191.7329866679887402
    One-Electron Energy =                -694.8963979703971745
    Two-Electron Energy =                 271.0211202968715725
    DFT Exchange-Correlation Energy =       0.0000000000000000
    Empirical Dispersion Energy =           0.0000000000000000
    PCM Polarization Energy =               0.0000000000000000
    EFP Energy =                            0.0000000000000000
    Total Energy =                       -232.1422910055368902
    Molecular point group: c1
  Basis Set: 6-31G*
  Basis Set:

  -Total Gradient:
     Atom            X                  Y                   Z
    ------   -----------------  -----------------  -----------------
       1        0.000174311515     0.001352594880    -0.000899953162
       2        0.000026212351    -0.001379956560     0.001043892883
       3       -0.000883470886    -0.000697048262     0.000075341839
       4        0.000681925430     0.000710988606    -0.000226051918
       5        0.000006880771     0.000000473294    -0.000002738843
       6       -0.000004867632    -0.000001279494     0.000003345366
       7        0.000000485352     0.000005485818     0.000003458669
       8       -0.000014131875     0.000009769300    -0.000006909953
       9        0.000004024960    -0.000007870220    -0.000001821039
      10        0.000002597951    -0.000008055140     0.000002903310
      11        0.000002639364     0.000000017043     0.000013041807
      12        0.000004730250     0.000008132376    -0.000000724336
      13       -0.000001139848     0.000001109152     0.000000058678
      14        0.000002556520     0.000002680703    -0.000003659311
      15       -0.000002754233     0.000002958504    -0.000000183987

  **** Optimization is complete! (in 6 steps) ****
    Final optimized geometry and variables:
    Molecular point group: c1

    Geometry (in Angstrom), charge = 0, multiplicity = 1:

    H            2.584763895273    -0.721246696223    -0.383575105829
    O            1.644800173385    -0.653357653576    -0.451976342205
    C            1.135732270028     0.119933133834     0.609757476824
    C            0.024946064507     1.025548825111     0.097518725530
    H            1.920243384866     0.735138536351     1.044051628580
    H            0.771900166822    -0.535097586838     1.396313911800
    C           -1.135544373251     0.291863306702    -0.583636652961
    H            0.461111021959     1.727160705961    -0.608276771044
    H           -0.351318985617     1.610234912242     0.935770354587
    C           -1.918986182866    -0.644438436672     0.337744972735
    H           -0.750793255823    -0.268626926927    -1.428647676905
    H           -1.815176914739     1.037480895870    -0.989073358035
    H           -2.771098752131    -1.070220712771    -0.183077319092
    H           -1.307464409159    -1.470132606554     0.686173747714
    H           -2.296564550527    -0.116436203645     1.209906667879

  Mulliken Charges: (a.u.)
   Center  Symbol    Alpha    Beta     Spin     Total
       1     H     0.27929  0.27929  0.00000  0.44142
       2     O     4.37227  4.37227  0.00000 -0.74454
       3     C     3.00042  3.00042  0.00000 -0.00085
       4     C     3.15796  3.15796  0.00000 -0.31592
       5     H     0.42994  0.42994  0.00000  0.14012
       6     H     0.42560  0.42560  0.00000  0.14881
       7     C     3.15435  3.15435  0.00000 -0.30870
       8     H     0.41852  0.41852  0.00000  0.16296
       9     H     0.42608  0.42608  0.00000  0.14784
      10     C     3.24352  3.24352  0.00000 -0.48705
      11     H     0.40728  0.40728  0.00000  0.18544
      12     H     0.42313  0.42313  0.00000  0.15373
      13     H     0.41930  0.41930  0.00000  0.16141
      14     H     0.41702  0.41702  0.00000  0.16595
      15     H     0.42531  0.42531  0.00000  0.14938

   Total alpha = 21.00000, Total beta = 21.00000, Total charge = -0.00000
