                              Psi4 1.0.54 Driver

  ==> Input File <==

--------------------------------------------------------------------------
set {
	reference rhf
	basis cc-pvtz
}

set_num_threads( 4 )
memory 2 gb

molecule MOL {
0 1

H	 2.718619	 -0.072928	 -0.609727
N	 1.743876	 0.133688	 -0.619506
C	 1.255860	 0.364451	 0.725273
C	 1.003374	 -0.921649	 -1.281142
H	 1.817101	 1.176522	 1.171258
H	 1.370625	 -0.513364	 1.363935
C	 -0.214989	 0.735521	 0.670635
H	 1.381658	 -1.041517	 -2.289054
H	 1.102187	 -1.880721	 -0.769247
C	 -0.467144	 -0.548895	 -1.333152
H	 -0.319834	 1.699526	 0.164382
H	 -0.596415	 0.850831	 1.678274
N	 -0.976577	 -0.298712	 -0.000000
H	 -1.030895	 -1.362298	 -1.774376
H	 -0.589361	 0.326625	 -1.977449
C	 -2.391156	 -0.021003	 -0.000000
H	 -2.853954	 -0.458728	 -0.875714
H	 -2.853954	 -0.458728	 0.875714
H	 -2.614037	 1.049773	 -0.000000

	symmetry c1
}
set optking {
	frozen_dihedral = ("
		7 13 16 19
	")
}

ee,wfn = optimize('scf', return_wfn=True)
oeprop( wfn, 'DIPOLE', 'QUADRUPOLE', 'MULLIKEN_CHARGES')
f=open( 'psi4out.xyz', 'w' )
f.write( "19  " )
f.write( str(ee) + "\n" )
f.write( MOL.save_string_xyz() )
f.close()
--------------------------------------------------------------------------

    Molecular point group: c1
  Charge       = 0
  Multiplicity = 1
  Basis Set: CC-PVTZ
  Basis Set:
  @DF-RHF Final Energy:  -305.30524474481592
    Total Energy =                       -305.3052447448160365
    Molecular point group: c1
  Basis Set: CC-PVTZ
  Basis Set:
  Basis Set: CC-PVTZ
  Basis Set:
  @DF-RHF Final Energy:  -305.30547405848745
    Total Energy =                       -305.3054740584876185
  Basis Set: CC-PVTZ
  Basis Set:
  Basis Set: CC-PVTZ
  Basis Set:
  @DF-RHF Final Energy:  -305.30551713226555
    Total Energy =                       -305.3055171322653791
  Basis Set: CC-PVTZ
  Basis Set:
  Charge       = 0
  Multiplicity = 1
  Basis Set: CC-PVTZ
  Basis Set:

    Orbital Energies (a.u.)
    -----------------------

    Doubly Occupied:

       1A    -15.536010     2A    -15.530861     3A    -11.236929
       4A    -11.236820     5A    -11.235782     6A    -11.235717
       7A    -11.232982     8A     -1.247834     9A     -1.186574
      10A     -1.023401    11A     -0.965215    12A     -0.861010
      13A     -0.858911    14A     -0.758039    15A     -0.692348
      16A     -0.632849    17A     -0.625868    18A     -0.608486
      19A     -0.604968    20A     -0.581011    21A     -0.544052
      22A     -0.531534    23A     -0.513631    24A     -0.489427
      25A     -0.466679    26A     -0.457166    27A     -0.365553
      28A     -0.347203

  @DF-RHF Final Energy:  -305.30551877008315

   => Energetics <=

    Nuclear Repulsion Energy =            340.0701654530309952
    One-Electron Energy =               -1087.5376452033224268
    Two-Electron Energy =                 442.1619609802085051
    DFT Exchange-Correlation Energy =       0.0000000000000000
    Empirical Dispersion Energy =           0.0000000000000000
    PCM Polarization Energy =               0.0000000000000000
    EFP Energy =                            0.0000000000000000
    Total Energy =                       -305.3055187700829265
    Molecular point group: c1
  Basis Set: CC-PVTZ
  Basis Set:

  -Total Gradient:
     Atom            X                  Y                   Z
    ------   -----------------  -----------------  -----------------
       1       -0.000028289425    -0.000002703481     0.000002526735
       2       -0.000025620531     0.000001267636     0.000007516214
       3        0.000041395237    -0.000002289644     0.000029963232
       4        0.000053193049     0.000008033843    -0.000031603277
       5        0.000017891311    -0.000001619816    -0.000004386914
       6        0.000007794758    -0.000002531099     0.000003104494
       7        0.000306841499     0.001723594648    -0.003360114222
       8        0.000037835726    -0.000004949242    -0.000011891091
       9       -0.000012083815     0.000018984431    -0.000002315000
      10       -0.000032714508    -0.000018748791     0.000148599947
      11       -0.000013239273     0.000023561629     0.000002969352
      12        0.000006883812     0.000000954390    -0.000007263914
      13       -0.000489639244    -0.002416771292     0.005867212006
      14       -0.000002491213     0.000013515611     0.000006902982
      15        0.000013124691    -0.000004970346    -0.000001834401
      16        0.000096443664     0.000635039538    -0.007713255640
      17       -0.000010288567    -0.000001418817    -0.000008629356
      18       -0.000006405450    -0.000002255002     0.000026425104
      19        0.000039368279     0.000033305804     0.005046073748

  **** Optimization is complete! (in 4 steps) ****
    Final optimized geometry and variables:
    Molecular point group: c1

    Geometry (in Angstrom), charge = 0, multiplicity = 1:

    H            2.737555171641    -0.012613629576    -0.344843005936
    N            1.764544475913     0.202073325971    -0.358538699038
    C            1.273902622790     0.445355363272     0.982723527729
    C            1.016907053185    -0.850272415305    -1.016351040452
    H            1.834384564827     1.261436418366     1.422708074838
    H            1.385819935113    -0.426203234349     1.630429351285
    C           -0.196058829003     0.817555928769     0.918921037936
    H            1.394894517835    -0.976993915904    -2.023730525133
    H            1.108477803428    -1.808087660615    -0.500542979015
    C           -0.452205887753    -0.470855560113    -1.071102807403
    H           -0.300242856817     1.771453897277     0.394895901670
    H           -0.577392083575     0.953308134703     1.924832629775
    N           -0.962953992383    -0.224688854436     0.265180291597
    H           -1.013746489830    -1.283727668230    -1.514890430321
    H           -0.568145315334     0.405025597513    -1.715880943766
    C           -2.384159741383     0.061153879180     0.280698191120
    H           -2.878577649333    -0.398557718712    -0.563797091584
    H           -2.834998505285    -0.336369207729     1.184432063809
    H           -2.595327882089     1.130584374002     0.273715385244

  Mulliken Charges: (a.u.)
   Center  Symbol    Alpha    Beta     Spin     Total
       1     H     0.44002  0.44002  0.00000  0.11997
       2     N     3.64287  3.64287  0.00000 -0.28574
       3     C     3.04137  3.04137  0.00000 -0.08275
       4     C     3.04187  3.04187  0.00000 -0.08374
       5     H     0.45259  0.45259  0.00000  0.09482
       6     H     0.46544  0.46544  0.00000  0.06912
       7     C     3.03596  3.03596  0.00000 -0.07193
       8     H     0.45259  0.45259  0.00000  0.09482
       9     H     0.46564  0.46564  0.00000  0.06872
      10     C     3.03323  3.03323  0.00000 -0.06646
      11     H     0.46751  0.46751  0.00000  0.06499
      12     H     0.45375  0.45375  0.00000  0.09250
      13     N     3.61687  3.61687  0.00000 -0.23374
      14     H     0.45413  0.45413  0.00000  0.09175
      15     H     0.46908  0.46908  0.00000  0.06185
      16     C     3.09517  3.09517  0.00000 -0.19034
      17     H     0.45501  0.45501  0.00000  0.08998
      18     H     0.45035  0.45035  0.00000  0.09930
      19     H     0.46656  0.46656  0.00000  0.06687

   Total alpha = 28.00000, Total beta = 28.00000, Total charge =  0.00000

*** Psi4 exiting successfully. Buy a developer a beer!
