                              Psi4 1.0.54 Driver

  ==> Input File <==

--------------------------------------------------------------------------
set {
	reference rhf
	basis cc-pvtz
}

set_num_threads( 4 )
memory 2 gb

molecule MOL {
0 1

H	 -1.943443	 0.993880	 -3.109059
C	 -2.476834	 0.328669	 -2.416329
C	 -1.744446	 -0.937381	 -2.063320
O	 -3.548262	 0.627596	 -2.016339
C	 -0.315674	 -0.679392	 -1.575747
H	 -2.325724	 -1.477823	 -1.327540
H	 -1.709743	 -1.538578	 -2.969224
C	 -0.247837	 0.040196	 -0.230469
H	 0.198410	 -1.631518	 -1.501492
H	 0.221977	 -0.103955	 -2.325412
C	 1.181757	 0.280428	 0.247371
H	 -0.783902	 -0.544835	 0.512148
H	 -0.768609	 0.992034	 -0.295486
C	 2.151032	 -0.811012	 -0.202643
H	 1.515939	 1.247397	 -0.115449
H	 1.191514	 0.341223	 1.333422
C	 3.580021	 -0.656538	 0.320835
H	 2.170545	 -0.847575	 -1.289412
H	 1.766632	 -1.772905	 0.124928
C	 4.327657	 0.562694	 -0.213579
H	 4.138806	 -1.549270	 0.057813
H	 3.561991	 -0.620783	 1.406976
H	 4.355973	 0.557257	 -1.298551
H	 3.867136	 1.491650	 0.100501
H	 5.351524	 0.571613	 0.142204

	symmetry c1
}
set optking {
	frozen_dihedral = ("
		12 8 11 14
	")
}

ee,wfn = optimize('scf', return_wfn=True)
oeprop( wfn, 'DIPOLE', 'QUADRUPOLE', 'MULLIKEN_CHARGES')
f=open( 'psi4out.xyz', 'w' )
f.write( "25  " )
f.write( str(ee) + "\n" )
f.write( MOL.save_string_xyz() )
f.close()
--------------------------------------------------------------------------

    Molecular point group: c1
  Charge       = 0
  Multiplicity = 1
  Basis Set: CC-PVTZ
  Basis Set:
  @DF-RHF Final Energy:  -387.25187447897315
    Total Energy =                       -387.2518744789728089
    Molecular point group: c1
  Basis Set: CC-PVTZ
  Basis Set:
  Basis Set: CC-PVTZ
  Basis Set:
  @DF-RHF Final Energy:  -387.17933438683900
    Total Energy =                       -387.1793343868384909
  Basis Set: CC-PVTZ
  Basis Set:
  Basis Set: CC-PVTZ
  Basis Set:
  @DF-RHF Final Energy:  -387.24695418556206
    Total Energy =                       -387.2469541855618900
  Basis Set: CC-PVTZ
  Basis Set:
  Basis Set: CC-PVTZ
  Basis Set:
  @DF-RHF Final Energy:  -387.25436543365504
    Total Energy =                       -387.2543654336550389
  Basis Set: CC-PVTZ
  Basis Set:
  @DF-RHF Final Energy:  -387.25477397388062
    Total Energy =                       -387.2547739738809014
  @DF-RHF Final Energy:  -387.25284301102164
    Total Energy =                       -387.2528430110216959
  @DF-RHF Final Energy:  -387.25474904989625
    Total Energy =                       -387.2547490498956222
  Basis Set: CC-PVTZ
  Basis Set:
  @DF-RHF Final Energy:  -387.25481516150717
    Total Energy =                       -387.2548151615071674
  Basis Set: CC-PVTZ
  Basis Set:
  Basis Set: CC-PVTZ
  Basis Set:
  @DF-RHF Final Energy:  -387.25481089429621
    Total Energy =                       -387.2548108942960425
  Basis Set: CC-PVTZ
  Basis Set:
  Basis Set: CC-PVTZ
  Basis Set:
  @DF-RHF Final Energy:  -387.25481697343514
    Total Energy =                       -387.2548169734351404
  Basis Set: CC-PVTZ
  Basis Set:
  Charge       = 0
  Multiplicity = 1
  Basis Set: CC-PVTZ
  Basis Set:

    Orbital Energies (a.u.)
    -----------------------

    Doubly Occupied:

       1A    -20.551234     2A    -11.320912     3A    -11.233702
       4A    -11.232666     5A    -11.222330     6A    -11.218305
       7A    -11.217517     8A    -11.216665     9A    -11.209681
      10A     -1.406266    11A     -1.104948    12A     -1.070329
      13A     -1.012866    14A     -0.941341    15A     -0.886003
      16A     -0.825086    17A     -0.792872    18A     -0.768613
      19A     -0.667053    20A     -0.660604    21A     -0.634060
      22A     -0.628255    23A     -0.600903    24A     -0.595174
      25A     -0.588395    26A     -0.546389    27A     -0.541967
      28A     -0.527828    29A     -0.514544    30A     -0.503325
      31A     -0.487509    32A     -0.479530    33A     -0.459057
      34A     -0.452657    35A     -0.447197    36A     -0.411490

  @DF-RHF Final Energy:  -387.25481702156100

   => Energetics <=

    Nuclear Repulsion Energy =            444.3397626590999039
    One-Electron Energy =               -1405.2346144923812972
    Two-Electron Energy =                 573.6400348117203976
    DFT Exchange-Correlation Energy =       0.0000000000000000
    Empirical Dispersion Energy =           0.0000000000000000
    PCM Polarization Energy =               0.0000000000000000
    EFP Energy =                            0.0000000000000000
    Total Energy =                       -387.2548170215609389
    Molecular point group: c1
  Basis Set: CC-PVTZ
  Basis Set:

  -Total Gradient:
     Atom            X                  Y                   Z
    ------   -----------------  -----------------  -----------------
       1        0.000010367625     0.000000643930    -0.000026323870
       2        0.000024420181     0.000013108017     0.000010085169
       3       -0.000001816828    -0.000014299979    -0.000002576332
       4       -0.000059763624     0.000005929126     0.000013793421
       5        0.000015345232    -0.000005772042     0.000003462187
       6       -0.000006937250     0.000005274257     0.000001369069
       7        0.000015482087    -0.000011343694     0.000005070448
       8        0.003697728462    -0.005919498983    -0.003732246169
       9       -0.000008764720    -0.000005447564    -0.000005286358
      10        0.000010802315     0.000010227335     0.000007068397
      11       -0.000903585982    -0.000647078642     0.006650796931
      12       -0.002925698309     0.005232709030     0.001478826110
      13        0.000007785510     0.000008069977     0.000006705502
      14        0.000134526383     0.001318218684    -0.004417807593
      15       -0.000001739421    -0.000000343346    -0.000003649463
      16       -0.000004870239    -0.000002620277    -0.000000477650
      17       -0.000003268776     0.000007778625     0.000005765569
      18        0.000004017920     0.000005937211     0.000002075493
      19       -0.000014929609    -0.000008961571    -0.000001536796
      20        0.000003195447     0.000001385289     0.000003505332
      21       -0.000001817857    -0.000002425775    -0.000002671255
      22        0.000005238211     0.000004642199     0.000004122711
      23        0.000001385346    -0.000003837249    -0.000001460434
      24       -0.000001809365     0.000004259327     0.000000545274
      25        0.000004707266     0.000003446115     0.000000844308

  **** Optimization is complete! (in 11 steps) ****
    Final optimized geometry and variables:
    Molecular point group: c1

    Geometry (in Angstrom), charge = 0, multiplicity = 1:

    H           -2.580691209255     0.100587639999    -2.155550724948
    C           -2.941487749256    -0.466269503741    -1.286318108026
    C           -1.981561393255    -1.498726410006    -0.760089261991
    O           -4.016804726315    -0.251287802109    -0.844953925189
    C           -0.575236213626    -0.940837384551    -0.520814877729
    H           -2.398719681133    -1.929366892759     0.141014525037
    H           -1.930487841933    -2.283606996082    -1.511639781141
    C           -0.524461159801     0.066354196323     0.625298296170
    H            0.088451582723    -1.772173851828    -0.321643640904
    H           -0.214270588229    -0.476458312592    -1.435520139365
    C            0.830027598363     0.753318953102     0.874904554526
    H           -0.879169638432    -0.391554480616     1.544559916121
    H           -1.251248980351     0.850730736961     0.429281538996
    C            2.070729196894    -0.113427525299     0.654373618891
    H            0.897028735018     1.617811388470     0.222259263566
    H            0.836254807974     1.142034900181     1.888211759380
    C            3.383192011659     0.557051711186     1.067073746175
    H            2.137537869765    -0.402240178930    -0.389801331058
    H            1.969317455989    -1.036228882694     1.220374264289
    C            3.766306050985     1.779537541076     0.236226129236
    H            4.179667518402    -0.176824558771     0.991669892595
    H            3.328426624732     0.837076706541     2.115619455068
    H            3.816008876446     1.533003990031    -0.819738058521
    H            3.057265946311     2.589909425178     0.353761804009
    H            4.739382602047     2.154164821734     0.532307465166

  Mulliken Charges: (a.u.)
   Center  Symbol    Alpha    Beta     Spin     Total
       1     H     0.46397  0.46397  0.00000  0.07205
       2     C     2.90602  2.90602  0.00000  0.18796
       3     C     3.08718  3.08718  0.00000 -0.17435
       4     O     4.16598  4.16598  0.00000 -0.33196
       5     C     3.12254  3.12254  0.00000 -0.24509
       6     H     0.44281  0.44281  0.00000  0.11439
       7     H     0.43991  0.43991  0.00000  0.12019
       8     C     3.09706  3.09706  0.00000 -0.19412
       9     H     0.43824  0.43824  0.00000  0.12352
      10     H     0.44834  0.44834  0.00000  0.10333
      11     C     3.09964  3.09964  0.00000 -0.19927
      12     H     0.44712  0.44712  0.00000  0.10575
      13     H     0.44519  0.44519  0.00000  0.10962
      14     C     3.10015  3.10015  0.00000 -0.20030
      15     H     0.45083  0.45083  0.00000  0.09834
      16     H     0.44655  0.44655  0.00000  0.10691
      17     C     3.09060  3.09060  0.00000 -0.18119
      18     H     0.45066  0.45066  0.00000  0.09869
      19     H     0.44852  0.44852  0.00000  0.10297
      20     C     3.15320  3.15320  0.00000 -0.30640
      21     H     0.44796  0.44796  0.00000  0.10409
      22     H     0.45380  0.45380  0.00000  0.09240
      23     H     0.45545  0.45545  0.00000  0.08910
      24     H     0.45279  0.45279  0.00000  0.09441
      25     H     0.44551  0.44551  0.00000  0.10897

   Total alpha = 36.00000, Total beta = 36.00000, Total charge = -0.00000

*** Psi4 exiting successfully. Buy a developer a beer!
