  ==> Input File <==

--------------------------------------------------------------------------
set {
	reference rhf
	basis 6-31G*
}

set_num_threads( 4 )
memory 2 gb

molecule MOL {
0 1

O	 1.055443	 1.223052	 1.210792
C	 -0.066857	 1.209804	 0.820229
C	 -1.025066	 2.366681	 0.908647
O	 -0.632575	 0.154573	 0.251549
H	 -1.896041	 2.077554	 1.485497
H	 -0.535218	 3.208344	 1.375001
H	 -1.364304	 2.637792	 -0.084416
C	 0.160891	 -1.019931	 0.106212
C	 1.589627	 -0.672828	 0.480843
H	 0.089836	 -1.367806	 -0.916050
H	 -0.238459	 -1.792301	 0.749618
C	 2.246377	 0.346236	 -0.452210
H	 2.163194	 -1.597435	 0.473358
H	 1.604769	 -0.303424	 1.502885
C	 3.691736	 0.652107	 -0.061850
H	 2.219579	 -0.032311	 -1.472055
H	 1.666466	 1.263317	 -0.447249
H	 4.134505	 1.377213	 -0.737283
H	 4.305508	 -0.243868	 -0.089969
H	 3.748266	 1.059562	 0.943567

	symmetry c1
}
set optking {
	frozen_dihedral = ("
		2 4 8 10
	")
}

ee = optimize('scf')
oeprop('DIPOLE', 'QUADRUPOLE', 'MULLIKEN_CHARGES')
f=open( 'psi4out.xyz', 'w' )
f.write( "20  " )
f.write( str(ee) + "\n" )
f.write( MOL.save_string_xyz() )
f.close()
--------------------------------------------------------------------------

    Molecular point group: c1
  Charge       = 0
  Multiplicity = 1
  Basis Set: 6-31G*
  Basis Set:
  @DF-RHF Final Energy:  -383.84095193413145
    Total Energy =                       -383.8409519341314535
    Molecular point group: c1
  Basis Set: 6-31G*
  Basis Set:
  Basis Set: 6-31G*
  Basis Set:
  @DF-RHF Final Energy:  -383.88294738004731
    Total Energy =                       -383.8829473800477672
  Basis Set: 6-31G*
  Basis Set:
  Basis Set: 6-31G*
  Basis Set:
  @DF-RHF Final Energy:  -383.90331321139325
    Total Energy =                       -383.9033132113934244
  Basis Set: 6-31G*
  Basis Set:
  Basis Set: 6-31G*
  Basis Set:
  @DF-RHF Final Energy:  -383.91740830164019
    Total Energy =                       -383.9174083016401937
  Basis Set: 6-31G*
  Basis Set:
  @DF-RHF Final Energy:  -383.92617436274031
    Total Energy =                       -383.9261743627399710
  @DF-RHF Final Energy:  -383.92872727201063
    Total Energy =                       -383.9287272720107467
  @DF-RHF Final Energy:  -383.92843054119379
    Total Energy =                       -383.9284305411938476
  @DF-RHF Final Energy:  -383.93118741283268
    Total Energy =                       -383.9311874128325144
  @DF-RHF Final Energy:  -383.93163066317237
    Total Energy =                       -383.9316306631722000
  @DF-RHF Final Energy:  -383.93189170734422
    Total Energy =                       -383.9318917073442208
  @DF-RHF Final Energy:  -383.93211313154762
    Total Energy =                       -383.9321131315475668
  Basis Set: 6-31G*
  Basis Set:
  @DF-RHF Final Energy:  -383.93225774177859
    Total Energy =                       -383.9322577417785851
  Basis Set: 6-31G*
  Basis Set:
  Basis Set: 6-31G*
  Basis Set:
  @DF-RHF Final Energy:  -383.93229228518720
    Total Energy =                       -383.9322922851874864
  Basis Set: 6-31G*
  Basis Set:
  Basis Set: 6-31G*
  Basis Set:
  @DF-RHF Final Energy:  -383.93229481621808
    Total Energy =                       -383.9322948162181319
  Basis Set: 6-31G*
  Basis Set:
  Charge       = 0
  Multiplicity = 1
  Basis Set: 6-31G*
  Basis Set:

    Orbital Energies (a.u.)
    -----------------------

    Doubly Occupied:

       1A    -20.598891     2A    -20.540694     3A    -11.376975
       4A    -11.290104     5A    -11.230358     6A    -11.219475
       7A    -11.213342     8A    -11.205942     9A     -1.460101
      10A     -1.362172    11A     -1.081193    12A     -1.025629
      13A     -0.978258    14A     -0.894339    15A     -0.812728
      16A     -0.742403    17A     -0.685237    18A     -0.678324
      19A     -0.672541    20A     -0.630009    21A     -0.602019
      22A     -0.588505    23A     -0.566879    24A     -0.559619
      25A     -0.539846    26A     -0.522699    27A     -0.514829
      28A     -0.476735    29A     -0.471383    30A     -0.466169
      31A     -0.438918    32A     -0.428898

  @DF-RHF Final Energy:  -383.93229529793791

   => Energetics <=

    Nuclear Repulsion Energy =            395.4255665078779884
    One-Electron Energy =               -1306.9652898908675525
    Two-Electron Energy =                 527.6074280850519926
    DFT Exchange-Correlation Energy =       0.0000000000000000
    Empirical Dispersion Energy =           0.0000000000000000
    PCM Polarization Energy =               0.0000000000000000
    EFP Energy =                            0.0000000000000000
    Total Energy =                       -383.9322952979375714
    Molecular point group: c1
  Basis Set: 6-31G*
  Basis Set:

  -Total Gradient:
     Atom            X                  Y                   Z
    ------   -----------------  -----------------  -----------------
       1       -0.000016818188    -0.000041972131    -0.000055474953
       2        0.000957366046     0.001470505819    -0.003238121731
       3        0.000036659572     0.000002881167    -0.000038835255
       4       -0.001002624539    -0.001879888484     0.004994272738
       5        0.000000094634    -0.000004536512     0.000014748882
       6        0.000001759325    -0.000006720030     0.000001750714
       7       -0.000014614398    -0.000006933889     0.000006201955
       8       -0.002694677860    -0.001946134638    -0.000861682454
       9       -0.000011307834     0.000023776996     0.000025471293
      10        0.002733673170     0.002389131581    -0.000840200102
      11       -0.000007193148     0.000003156274     0.000002727840
      12        0.000036157503     0.000002685018    -0.000024679083
      13        0.000002796411     0.000001694742    -0.000004156156
      14        0.000003411821     0.000010954074    -0.000002604483
      15       -0.000030207522     0.000007938007    -0.000000466083
      16       -0.000009359627    -0.000009329035     0.000009715877
      17        0.000005264522    -0.000013817286     0.000006389457
      18        0.000006885365     0.000006217083     0.000006441890
      19        0.000008206100     0.000002277024    -0.000008357929
      20       -0.000005471353    -0.000011885781     0.000006857583

  **** Optimization is complete! (in 15 steps) ****
    Final optimized geometry and variables:
    Molecular point group: c1

    Geometry (in Angstrom), charge = 0, multiplicity = 1:

    O           -0.164907120708     1.098782564575     1.085001750622
    C           -1.183364548818     0.821128173313     0.539008369762
    C           -2.371503109387     1.745420355481     0.455845524528
    O           -1.456764134901    -0.324700482844    -0.060789590955
    H           -3.236865355165     1.271279224587     0.903992294293
    H           -2.147397625988     2.668701424788     0.969003196260
    H           -2.608434576486     1.945246528344    -0.582786349418
    C           -0.570845999556    -1.426802624652    -0.300470050974
    C            0.923223302890    -1.281029058652    -0.026285623250
    H           -0.702692605115    -1.644846111215    -1.352278622352
    H           -0.974894470277    -2.246840000592     0.277388716141
    C            1.672372500755    -0.373116902584    -1.003619112488
    H            1.317315755719    -2.292312691952    -0.125359361560
    H            1.101234784617    -0.971136207463     0.992799660185
    C            3.171251592814    -0.323976964737    -0.710603561216
    H            1.514284247703    -0.733775821399    -2.018876335559
    H            1.269715020263     0.631062153582    -0.958175918491
    H            3.688292941300     0.311637776162    -1.422612984213
    H            3.617902040376    -1.313272956488    -0.765108173355
    H            3.357941213696     0.071423878335     0.283048302988

  Mulliken Charges: (a.u.)
   Center  Symbol    Alpha    Beta     Spin     Total
       1     O     4.28459  4.28459  0.00000 -0.56917
       2     C     2.61735  2.61735  0.00000  0.76531
       3     C     3.27992  3.27992  0.00000 -0.55985
       4     O     4.31976  4.31976  0.00000 -0.63951
       5     H     0.40103  0.40103  0.00000  0.19793
       6     H     0.39835  0.39835  0.00000  0.20330
       7     H     0.40208  0.40208  0.00000  0.19585
       8     C     2.98765  2.98765  0.00000  0.02471
       9     C     3.17457  3.17457  0.00000 -0.34914
      10     H     0.41363  0.41363  0.00000  0.17273
      11     H     0.41148  0.41148  0.00000  0.17704
      12     C     3.15393  3.15393  0.00000 -0.30786
      13     H     0.42260  0.42260  0.00000  0.15480
      14     H     0.39606  0.39606  0.00000  0.20788
      15     C     3.24097  3.24097  0.00000 -0.48195
      16     H     0.42807  0.42807  0.00000  0.14385
      17     H     0.40922  0.40922  0.00000  0.18155
      18     H     0.41910  0.41910  0.00000  0.16180
      19     H     0.42433  0.42433  0.00000  0.15134
      20     H     0.41530  0.41530  0.00000  0.16939

   Total alpha = 32.00000, Total beta = 32.00000, Total charge = -0.00000
