  ==> Input File <==

--------------------------------------------------------------------------
set {
	reference rhf
	basis 6-31G*
}

set_num_threads( 4 )
memory 2 gb

molecule MOL {
0 1

H	 -0.367348	 2.047014	 -0.308205
C	 0.352277	 1.337084	 0.083769
N	 -0.000016	 0.000074	 -0.335546
H	 1.328359	 1.600444	 -0.307950
H	 0.381933	 1.450534	 1.172486
C	 0.202641	 -0.967340	 0.718642
C	 -1.339239	 -0.061595	 -0.874836
H	 -0.003089	 -1.964760	 0.346917
H	 1.234950	 -0.940591	 1.048925
H	 -0.436826	 -0.791526	 1.589878
H	 -1.432476	 0.626109	 -1.707749
H	 -1.541869	 -1.060994	 -1.243051
H	 -2.109388	 0.191312	 -0.138741

	symmetry c1
}
set optking {
	frozen_dihedral = ("
		6 3 2 1
	")
}

ee = optimize('scf')
oeprop('DIPOLE', 'QUADRUPOLE', 'MULLIKEN_CHARGES')
f=open( 'psi4out.xyz', 'w' )
f.write( "13  " )
f.write( str(ee) + "\n" )
f.write( MOL.save_string_xyz() )
f.close()
--------------------------------------------------------------------------

    Molecular point group: c1
  Charge       = 0
  Multiplicity = 1
  Basis Set: 6-31G*
  Basis Set:
  @DF-RHF Final Energy:  -173.26293598116072
    Total Energy =                       -173.2629359811606378
    Molecular point group: c1
  Basis Set: 6-31G*
  Basis Set:
  Basis Set: 6-31G*
  Basis Set:
  @DF-RHF Final Energy:  -173.26339272113498
    Total Energy =                       -173.2633927211349487
  Basis Set: 6-31G*
  Basis Set:
  Basis Set: 6-31G*
  Basis Set:
  @DF-RHF Final Energy:  -173.26351574068076
    Total Energy =                       -173.2635157406807593
  Basis Set: 6-31G*
  Basis Set:
  Basis Set: 6-31G*
  Basis Set:
  @DF-RHF Final Energy:  -173.26351763203010
    Total Energy =                       -173.2635176320301582
  Basis Set: 6-31G*
  Basis Set:
  Charge       = 0
  Multiplicity = 1
  Basis Set: 6-31G*
  Basis Set:

    Orbital Energies (a.u.)
    -----------------------

    Doubly Occupied:

       1A    -15.541354     2A    -11.235467     3A    -11.235411
       4A    -11.235282     5A     -1.220657     6A     -0.951174
       7A     -0.950031     8A     -0.807256     9A     -0.638285
      10A     -0.628735    11A     -0.626528    12A     -0.550778
      13A     -0.546573    14A     -0.513944    15A     -0.500210
      16A     -0.497762    17A     -0.343008

  @DF-RHF Final Energy:  -173.26351790638626

   => Energetics <=

    Nuclear Repulsion Energy =            138.9399775858391877
    One-Electron Energy =                -508.3620765417292091
    Two-Electron Energy =                 196.1585810495037663
    DFT Exchange-Correlation Energy =       0.0000000000000000
    Empirical Dispersion Energy =           0.0000000000000000
    PCM Polarization Energy =               0.0000000000000000
    EFP Energy =                            0.0000000000000000
    Total Energy =                       -173.2635179063862552
    Molecular point group: c1
  Basis Set: 6-31G*
  Basis Set:

  -Total Gradient:
     Atom            X                  Y                   Z
    ------   -----------------  -----------------  -----------------
       1       -0.002298203642    -0.000427259149     0.003493821760
       2        0.001796136116     0.000700612980    -0.004043382268
       3        0.003441290332    -0.000783444104    -0.000479980862
       4       -0.000007551855     0.000000384651    -0.000003073626
       5        0.000001372821     0.000002423221     0.000010854954
       6       -0.002956652096     0.000530608346     0.001011883866
       7        0.000047239006    -0.000002086350    -0.000003900566
       8       -0.000001806134    -0.000011371283     0.000007740327
       9        0.000000895036    -0.000004168954     0.000004968519
      10       -0.000001221048    -0.000001588935     0.000004040716
      11       -0.000006023182    -0.000000720353     0.000001547525
      12       -0.000012408986    -0.000003219749    -0.000004058373
      13       -0.000003066367    -0.000000170321    -0.000000461972

  **** Optimization is complete! (in 5 steps) ****
    Final optimized geometry and variables:
    Molecular point group: c1

    Geometry (in Angstrom), charge = 0, multiplicity = 1:

    H           -0.127548772575     1.995547648618    -0.210108221173
    C            0.580224712251     1.265295563556     0.164192524759
    N            0.203486615934    -0.079448236222    -0.248605255539
    H            1.571956726534     1.521279931925    -0.194098954928
    H            0.577923032230     1.372683652448     1.249007984764
    C            0.409680044674    -1.051781487257     0.800720649289
    C           -1.139699601209    -0.153964073679    -0.781169986007
    H            0.219011531425    -2.049884786755     0.422590826550
    H            1.439565195020    -1.017617413608     1.138802414244
    H           -0.236736470479    -0.885948841403     1.668374154171
    H           -1.241757047583     0.520212309035    -1.623472084266
    H           -1.334252041018    -1.159280284640    -1.137700604811
    H           -1.911894921662     0.097837727346    -0.046985677349

  Mulliken Charges: (a.u.)
   Center  Symbol    Alpha    Beta     Spin     Total
       1     H     0.42006  0.42006  0.00000  0.15987
       2     C     3.14436  3.14436  0.00000 -0.28873
       3     N     3.76833  3.76833  0.00000 -0.53666
       4     H     0.41490  0.41490  0.00000  0.17020
       5     H     0.42792  0.42792  0.00000  0.14416
       6     C     3.14316  3.14316  0.00000 -0.28633
       7     C     3.14278  3.14278  0.00000 -0.28556
       8     H     0.41747  0.41747  0.00000  0.16506
       9     H     0.41631  0.41631  0.00000  0.16739
      10     H     0.43512  0.43512  0.00000  0.12977
      11     H     0.41618  0.41618  0.00000  0.16763
      12     H     0.41774  0.41774  0.00000  0.16452
      13     H     0.43566  0.43566  0.00000  0.12868

   Total alpha = 17.00000, Total beta = 17.00000, Total charge =  0.00000
