  ==> Input File <==

--------------------------------------------------------------------------
set {
	reference rhf
	basis cc-pvtz
}

set_num_threads( 4 )
memory 2 gb

molecule MOL {
0 1

H	 2.646708	 0.758099	 0.000000
O	 2.258158	 -0.097743	 0.000000
C	 0.911162	 -0.015915	 0.000000
C	 0.234636	 -0.590076	 -1.063698
C	 0.207554	 0.611490	 1.010801
H	 0.796800	 -1.072529	 -1.838753
C	 -1.141513	 -0.531029	 -1.106145
H	 0.732447	 1.057121	 1.836363
C	 -1.173996	 0.663167	 0.955045
H	 -1.660489	 -0.977714	 -1.932908
C	 -1.857654	 0.094867	 -0.099269
H	 -1.712677	 1.152372	 1.744239
H	 -2.928420	 0.136805	 -0.139223

	symmetry c1
}
set optking {
	frozen_dihedral = ("
		4 3 2 1
	")
}

ee = optimize('scf')
oeprop('DIPOLE', 'QUADRUPOLE', 'MULLIKEN_CHARGES')
f=open( 'psi4out.xyz', 'w' )
f.write( "13  " )
f.write( str(ee) + "\n" )
f.write( MOL.save_string_xyz() )
f.close()
--------------------------------------------------------------------------

    Molecular point group: c1
  Charge       = 0
  Multiplicity = 1
  Basis Set: CC-PVTZ
  Basis Set:
  @DF-RHF Final Energy:  -305.66681349556592
    Total Energy =                       -305.6668134955657479
    Molecular point group: c1
  Basis Set: CC-PVTZ
  Basis Set:
  Basis Set: CC-PVTZ
  Basis Set:
  @DF-RHF Final Energy:  -305.66714473812402
    Total Energy =                       -305.6671447381240228
  Basis Set: CC-PVTZ
  Basis Set:
  Basis Set: CC-PVTZ
  Basis Set:
  @DF-RHF Final Energy:  -305.66718251879610
    Total Energy =                       -305.6671825187961531
  Basis Set: CC-PVTZ
  Basis Set:
  Basis Set: CC-PVTZ
  Basis Set:
  @DF-RHF Final Energy:  -305.66718656687300
    Total Energy =                       -305.6671865668728287
  Basis Set: CC-PVTZ
  Basis Set:
  Charge       = 0
  Multiplicity = 1
  Basis Set: CC-PVTZ
  Basis Set:

    Orbital Energies (a.u.)
    -----------------------

    Doubly Occupied:

       1A    -20.574050     2A    -11.290843     3A    -11.234122
       4A    -11.233139     5A    -11.226297     6A    -11.224378
       7A    -11.223627     8A     -1.401735     9A     -1.153223
      10A     -1.022479    11A     -1.008377    12A     -0.842463
      13A     -0.827948    14A     -0.739085    15A     -0.685372
      16A     -0.652113    17A     -0.629161    18A     -0.597794
      19A     -0.592001    20A     -0.533139    21A     -0.517489
      22A     -0.497583    23A     -0.475294    24A     -0.342204
      25A     -0.325836

  @DF-RHF Final Energy:  -305.66718736729422

   => Energetics <=

    Nuclear Repulsion Energy =            273.4286111721605721
    One-Electron Energy =                -956.4920957435098217
    Two-Electron Energy =                 377.3962972040546902
    DFT Exchange-Correlation Energy =       0.0000000000000000
    Empirical Dispersion Energy =           0.0000000000000000
    PCM Polarization Energy =               0.0000000000000000
    EFP Energy =                            0.0000000000000000
    Total Energy =                       -305.6671873672945594
    Molecular point group: c1
  Basis Set: CC-PVTZ
  Basis Set:

  -Total Gradient:
     Atom            X                  Y                   Z
    ------   -----------------  -----------------  -----------------
       1        0.000054257275    -0.000007531791    -0.002093731497
       2        0.000128988138     0.000634878648     0.002197288768
       3       -0.000354589574    -0.001866547499     0.000796391035
       4        0.000074566587     0.001270567946    -0.000852078020
       5        0.000156461040    -0.000026694021    -0.000041997830
       6       -0.000006987347     0.000000123849     0.000016524796
       7        0.000083444328    -0.000014167612    -0.000043914198
       8        0.000011914310    -0.000003110891     0.000010133024
       9       -0.000132158547    -0.000017501477    -0.000084042095
      10       -0.000021909061     0.000006354956     0.000011799524
      11        0.000004292009     0.000046737508     0.000113863600
      12        0.000010073151    -0.000012132525    -0.000007451018
      13       -0.000008352306    -0.000010977091    -0.000022786086

  **** Optimization is complete! (in 5 steps) ****
    Final optimized geometry and variables:
    Molecular point group: c1

    Geometry (in Angstrom), charge = 0, multiplicity = 1:

    H            2.651888343270     0.735408498065     0.064336877666
    O            2.266273238165    -0.122564819280     0.064304784646
    C            0.905493297881    -0.036982456548     0.030738907392
    C            0.229357075839    -0.610727410638    -1.028290083940
    C            0.206599012488     0.589578737465     1.045467404911
    H            0.790269123858    -1.092247104348    -1.805028457712
    C           -1.151043365434    -0.562791228141    -1.064856126267
    H            0.742676550200     1.019841820805     1.870139825832
    C           -1.173454126280     0.643304020676     0.994541361943
    H           -1.673930333415    -1.013304550644    -1.886926442629
    C           -1.858623305653     0.066581729414    -0.057820452673
    H           -1.712887663510     1.131214917192     1.783905260306
    H           -2.930122236019     0.105007173636    -0.091836905793

  Mulliken Charges: (a.u.)
   Center  Symbol    Alpha    Beta     Spin     Total
       1     H     0.38621  0.38621  0.00000  0.22759
       2     O     4.18944  4.18944  0.00000 -0.37888
       3     C     2.86904  2.86904  0.00000  0.26192
       4     C     3.10798  3.10798  0.00000 -0.21596
       5     C     3.11914  3.11914  0.00000 -0.23829
       6     H     0.41640  0.41640  0.00000  0.16721
       7     C     3.06562  3.06562  0.00000 -0.13124
       8     H     0.42144  0.42144  0.00000  0.15712
       9     C     3.06849  3.06849  0.00000 -0.13698
      10     H     0.42177  0.42177  0.00000  0.15645
      11     C     3.08928  3.08928  0.00000 -0.17855
      12     H     0.42195  0.42195  0.00000  0.15611
      13     H     0.42325  0.42325  0.00000  0.15350

   Total alpha = 25.00000, Total beta = 25.00000, Total charge = -0.00000
