  ==> Input File <==

--------------------------------------------------------------------------
set {
	reference rhf
	basis cc-pvtz
}

set_num_threads( 4 )
memory 2 gb

molecule MOL {
0 1

O	 1.625740	 -0.410362	 0.050578
C	 0.576499	 0.134701	 -0.003900
C	 -0.765656	 -0.550508	 -0.002152
O	 0.445031	 1.448557	 -0.084345
C	 -1.945526	 0.411052	 0.000603
H	 -0.794329	 -1.203792	 -0.868145
H	 -0.791555	 -1.205429	 0.862701
C	 -3.282915	 -0.321280	 0.002596
H	 -1.880300	 1.059126	 -0.864925
H	 -1.877207	 1.057892	 0.866807
H	 -3.388495	 -0.952755	 -0.873419
H	 -4.107811	 0.380864	 0.004116
H	 -3.385717	 -0.953283	 0.878571
C	 1.629671	 2.219520	 -0.100281
H	 2.198391	 2.062909	 0.804200
H	 1.313904	 3.247797	 -0.168301
H	 2.241812	 1.960139	 -0.951191

	symmetry c1
}
set optking {
	frozen_dihedral = ("
		1 2 3 6
	")
}

ee = optimize('scf')
oeprop('DIPOLE', 'QUADRUPOLE', 'MULLIKEN_CHARGES')
f=open( 'psi4out.xyz', 'w' )
f.write( "17  " )
f.write( str(ee) + "\n" )
f.write( MOL.save_string_xyz() )
f.close()
--------------------------------------------------------------------------

    Molecular point group: c1
  Charge       = 0
  Multiplicity = 1
  Basis Set: CC-PVTZ
  Basis Set:
  @DF-RHF Final Energy:  -345.03136692420730
    Total Energy =                       -345.0313669242071910
    Molecular point group: c1
  Basis Set: CC-PVTZ
  Basis Set:
  Basis Set: CC-PVTZ
  Basis Set:
  @DF-RHF Final Energy:  -345.03237120535692
    Total Energy =                       -345.0323712053566965
  Basis Set: CC-PVTZ
  Basis Set:
  Basis Set: CC-PVTZ
  Basis Set:
  @DF-RHF Final Energy:  -345.03271102114178
    Total Energy =                       -345.0327110211422905
  Basis Set: CC-PVTZ
  Basis Set:
  Basis Set: CC-PVTZ
  Basis Set:
  @DF-RHF Final Energy:  -345.03271273292461
    Total Energy =                       -345.0327127329245513
  Basis Set: CC-PVTZ
  Basis Set:
  Basis Set: CC-PVTZ
  Basis Set:
  @DF-RHF Final Energy:  -345.03280211253286
    Total Energy =                       -345.0328021125328064
  Basis Set: CC-PVTZ
  Basis Set:
  Basis Set: CC-PVTZ
  Basis Set:
  @DF-RHF Final Energy:  -345.03281833450609
    Total Energy =                       -345.0328183345062598
  Basis Set: CC-PVTZ
  Basis Set:
  Charge       = 0
  Multiplicity = 1
  Basis Set: CC-PVTZ
  Basis Set:

    Orbital Energies (a.u.)
    -----------------------

    Doubly Occupied:

       1A    -20.599819     2A    -20.529547     3A    -11.365319
       4A    -11.279768     5A    -11.234576     6A    -11.224417
       7A    -11.215079     8A     -1.473835     9A     -1.364393
      10A     -1.084056    11A     -0.998452    12A     -0.944260
      13A     -0.832278    14A     -0.777274    15A     -0.698884
      16A     -0.687355    17A     -0.674255    18A     -0.639036
      19A     -0.597254    20A     -0.572871    21A     -0.560129
      22A     -0.530915    23A     -0.523480    24A     -0.519908
      25A     -0.490382    26A     -0.485379    27A     -0.455575
      28A     -0.433962

  @DF-RHF Final Energy:  -345.03281840582287

   => Energetics <=

    Nuclear Repulsion Energy =            314.8264096535639851
    One-Electron Energy =               -1094.1335422244314941
    Two-Electron Energy =                 434.2743141650448138
    DFT Exchange-Correlation Energy =       0.0000000000000000
    Empirical Dispersion Energy =           0.0000000000000000
    PCM Polarization Energy =               0.0000000000000000
    EFP Energy =                            0.0000000000000000
    Total Energy =                       -345.0328184058226384
    Molecular point group: c1
  Basis Set: CC-PVTZ
  Basis Set:

  -Total Gradient:
     Atom            X                  Y                   Z
    ------   -----------------  -----------------  -----------------
       1       -0.000030045320     0.000011959071    -0.000183914827
       2        0.000041798163    -0.000072909713     0.000296590709
       3       -0.000079468413     0.000151397770    -0.000175766649
       4        0.000009220803     0.000052345859     0.000012320056
       5        0.000001231695     0.000009827908    -0.000041314464
       6        0.000054392649    -0.000120979955     0.000093393911
       7        0.000009188666    -0.000002659277     0.000000522951
       8        0.000002294135    -0.000011620988     0.000013560676
       9       -0.000001871253     0.000006922285    -0.000002144823
      10        0.000004705520    -0.000008189222    -0.000000764970
      11        0.000001401778     0.000003987380    -0.000001514338
      12        0.000006154013     0.000002064218     0.000003176544
      13       -0.000003147459    -0.000005165471     0.000001590255
      14       -0.000025063284    -0.000022607807    -0.000026848903
      15       -0.000001078433    -0.000003033001     0.000005776793
      16        0.000002123282     0.000002176287     0.000003376506
      17        0.000008163457     0.000006484654     0.000001960574

  **** Optimization is complete! (in 7 steps) ****
    Final optimized geometry and variables:
    Molecular point group: c1

    Geometry (in Angstrom), charge = 0, multiplicity = 1:

    O            1.808404598038    -0.859536651356     0.080810160933
    C            0.788640267637    -0.260047317163     0.015957067921
    C           -0.563669571369    -0.935362901270     0.013339108385
    O            0.730352574296     1.055523128105    -0.069115188984
    C           -1.794647077878    -0.036451626440     0.019197547020
    H           -0.567061463695    -1.584304021789    -0.856205067898
    H           -0.565200407445    -1.597063807296     0.872080768724
    C           -3.086299039138    -0.847381090166     0.027101102345
    H           -1.776247182591     0.612721981431    -0.847786051794
    H           -1.766664041150     0.612947459598     0.886401159496
    H           -3.156535445416    -1.484246124250    -0.848418212290
    H           -3.952026845521    -0.196095379199     0.031996009877
    H           -3.146435312774    -1.484152779680     0.903383328042
    C            1.957406355257     1.758071618188    -0.081527440576
    H            2.511747725588     1.570647814635     0.825817738963
    H            1.700815141729     2.802482269581    -0.153539558163
    H            2.557088729581     1.460746824952    -0.928699177290

  Mulliken Charges: (a.u.)
   Center  Symbol    Alpha    Beta     Spin     Total
       1     O     4.20504  4.20504  0.00000 -0.41008
       2     C     2.81223  2.81223  0.00000  0.37554
       3     C     3.08938  3.08938  0.00000 -0.17876
       4     O     4.14009  4.14009  0.00000 -0.28018
       5     C     3.07871  3.07871  0.00000 -0.15741
       6     H     0.43997  0.43997  0.00000  0.12005
       7     H     0.43848  0.43848  0.00000  0.12304
       8     C     3.15264  3.15264  0.00000 -0.30528
       9     H     0.44826  0.44826  0.00000  0.10348
      10     H     0.44907  0.44907  0.00000  0.10185
      11     H     0.45473  0.45473  0.00000  0.09054
      12     H     0.44604  0.44604  0.00000  0.10793
      13     H     0.45462  0.45462  0.00000  0.09077
      14     C     3.03716  3.03716  0.00000 -0.07433
      15     H     0.45324  0.45324  0.00000  0.09352
      16     H     0.44704  0.44704  0.00000  0.10592
      17     H     0.45329  0.45329  0.00000  0.09341

   Total alpha = 28.00000, Total beta = 28.00000, Total charge =  0.00000
