  ==> Input File <==

--------------------------------------------------------------------------
set {
	reference rhf
	basis 6-31G*
}

set_num_threads( 1 )
memory 2 gb

molecule MOL {
0 1

H	 -2.698709	 -0.000305	 0.034435
C	 -1.693833	 0.000034	 0.434417
O	 -0.828952	 -0.000968	 -0.659236
H	 -1.574200	 0.882896	 1.055746
H	 -1.574147	 -0.881698	 1.057355
C	 -0.579245	 -1.219689	 -1.320197
C	 0.127011	 -2.236568	 -0.425727
C	 -1.831334	 -1.796116	 -1.978197
H	 0.108832	 -0.936256	 -2.107754
H	 0.980343	 -1.778943	 0.063102
H	 0.483051	 -3.070940	 -1.021791
H	 -0.530861	 -2.638901	 0.338143
H	 -2.333855	 -1.033489	 -2.563286
H	 -1.559940	 -2.610931	 -2.642189
H	 -2.534244	 -2.188953	 -1.250572

	symmetry c1
}
set optking {
	frozen_dihedral = ("
		9 6 3 2
	")
}

ee = energy('scf')
oeprop('DIPOLE', 'QUADRUPOLE', 'MULLIKEN_CHARGES')
f=open( 'psi4out.xyz', 'w' )
f.write( "15  " )
f.write( str(ee) + "\n" )
f.write( MOL.save_string_xyz() )
f.close()
--------------------------------------------------------------------------

    Molecular point group: c1

    Geometry (in Angstrom), charge = 0, multiplicity = 1:

       Center              X                  Y                   Z               Mass
    ------------   -----------------  -----------------  -----------------  -----------------
           H         -1.722519271648     1.044778421115     0.805466531486     1.007825032070
           C         -0.717643271648     1.045117421115     1.205448531486    12.000000000000
           O          0.147237728352     1.044115421115     0.111795531486    15.994914619560
           H         -0.598010271648     1.927979421115     1.826777531486     1.007825032070
           H         -0.597957271648     0.163385421115     1.828386531486     1.007825032070
           C          0.396944728352    -0.174605578885    -0.549165468514    12.000000000000
           C          1.103200728352    -1.191484578885     0.345304531486    12.000000000000
           C         -0.855144271648    -0.751032578885    -1.207165468514    12.000000000000
           H          1.085021728352     0.108827421115    -1.336722468514     1.007825032070
           H          1.956532728352    -0.733859578885     0.834133531486     1.007825032070
           H          1.459240728352    -2.025856578885    -0.250759468514     1.007825032070
           H          0.445328728352    -1.593817578885     1.109174531486     1.007825032070
           H         -1.357665271648     0.011594421115    -1.792254468514     1.007825032070
           H         -0.583750271648    -1.565847578885    -1.871157468514     1.007825032070
           H         -1.558054271648    -1.143869578885    -0.479540468514     1.007825032070

  Charge       = 0
  Multiplicity = 1
  Basis Set: 6-31G*
  Basis Set:

    Orbital Energies (a.u.)
    -----------------------

    Doubly Occupied:

       1A    -20.546131     2A    -11.275234     3A    -11.261075
       4A    -11.210822     5A    -11.210555     6A     -1.369601
       7A     -1.050359     8A     -0.939799     9A     -0.931236
      10A     -0.781335    11A     -0.674018    12A     -0.641145
      13A     -0.632848    14A     -0.575061    15A     -0.564884
      16A     -0.551130    17A     -0.534661    18A     -0.500414
      19A     -0.496532    20A     -0.441551    21A     -0.403654

  @DF-RHF Final Energy:  -232.13499259537852

   => Energetics <=

    Nuclear Repulsion Energy =            198.8781462646500984
    One-Electron Energy =                -708.8420963399435095
    Two-Electron Energy =                 277.8289574799136972
    DFT Exchange-Correlation Energy =       0.0000000000000000
    Empirical Dispersion Energy =           0.0000000000000000
    PCM Polarization Energy =               0.0000000000000000
    EFP Energy =                            0.0000000000000000
    Total Energy =                       -232.1349925953796856

  Mulliken Charges: (a.u.)
   Center  Symbol    Alpha    Beta     Spin     Total
       1     H     0.42711  0.42711  0.00000  0.14579
       2     C     3.08108  3.08108  0.00000 -0.16217
       3     O     4.31360  4.31360  0.00000 -0.62720
       4     H     0.41336  0.41336  0.00000  0.17328
       5     H     0.43072  0.43072  0.00000  0.13855
       6     C     2.90896  2.90896  0.00000  0.18208
       7     C     3.25316  3.25316  0.00000 -0.50633
       8     C     3.25332  3.25332  0.00000 -0.50665
       9     H     0.41478  0.41478  0.00000  0.17044
      10     H     0.41114  0.41114  0.00000  0.17772
      11     H     0.41919  0.41919  0.00000  0.16163
      12     H     0.42129  0.42129  0.00000  0.15742
      13     H     0.41141  0.41141  0.00000  0.17718
      14     H     0.41942  0.41942  0.00000  0.16117
      15     H     0.42146  0.42146  0.00000  0.15709

   Total alpha = 21.00000, Total beta = 21.00000, Total charge =  0.00000
