  ==> Input File <==

--------------------------------------------------------------------------
set {
	reference rhf
	basis 6-31G*
}

set_num_threads( 4 )
memory 2 gb

molecule MOL {
0 1

H	 -3.420663	 1.227371	 -1.044276
O	 -3.452007	 0.283848	 -0.965577
C	 -3.181085	 -0.079926	 0.364119
C	 -1.765924	 0.277073	 0.805136
H	 -3.327791	 -1.152017	 0.410903
H	 -3.905698	 0.375695	 1.036898
C	 -0.677594	 -0.417312	 -0.014550
H	 -1.637766	 1.358238	 0.744969
H	 -1.659588	 0.017670	 1.857098
C	 0.738335	 -0.034840	 0.421385
H	 -0.814977	 -0.178223	 -1.064632
H	 -0.802730	 -1.495410	 0.071702
C	 1.822265	 -0.738362	 -0.399735
H	 0.853533	 1.043532	 0.342250
H	 0.871597	 -0.279636	 1.474438
C	 3.258060	 -0.455774	 0.057203
H	 1.718003	 -0.459167	 -1.447053
H	 1.651028	 -1.811884	 -0.354513
C	 4.306959	 -0.539743	 -1.053276
H	 3.517989	 -1.168630	 0.836025
H	 3.300894	 0.527836	 0.520756
H	 4.278870	 -1.509173	 -1.543741
H	 5.306095	 -0.403017	 -0.650945
H	 4.156278	 0.219950	 -1.813095

	symmetry c1
}
set optking {
	frozen_dihedral = ("
		20 16 13 17
	")
}

ee = optimize('scf')
oeprop('DIPOLE', 'QUADRUPOLE', 'MULLIKEN_CHARGES')
f=open( 'psi4out.xyz', 'w' )
f.write( "24  " )
f.write( str(ee) + "\n" )
f.write( MOL.save_string_xyz() )
f.close()
--------------------------------------------------------------------------

    Molecular point group: c1
  Charge       = 0
  Multiplicity = 1
  Basis Set: 6-31G*
  Basis Set:
  @DF-RHF Final Energy:  -349.24621810858628
    Total Energy =                       -349.2462181085865609
    Molecular point group: c1
  Basis Set: 6-31G*
  Basis Set:
  Basis Set: 6-31G*
  Basis Set:
  @DF-RHF Final Energy:  -349.24661515659380
    Total Energy =                       -349.2466151565937480
  Basis Set: 6-31G*
  Basis Set:
  Basis Set: 6-31G*
  Basis Set:
  @DF-RHF Final Energy:  -349.24665039519226
    Total Energy =                       -349.2466503951922050
  Basis Set: 6-31G*
  Basis Set:
  Basis Set: 6-31G*
  Basis Set:
  @DF-RHF Final Energy:  -349.24664763170199
    Total Energy =                       -349.2466476317021034
  Basis Set: 6-31G*
  Basis Set:
  Basis Set: 6-31G*
  Basis Set:
  @DF-RHF Final Energy:  -349.24665513290580
    Total Energy =                       -349.2466551329058575
  Basis Set: 6-31G*
  Basis Set:
  Charge       = 0
  Multiplicity = 1
  Basis Set: 6-31G*
  Basis Set:

    Orbital Energies (a.u.)
    -----------------------

    Doubly Occupied:

       1A    -20.553602     2A    -11.267740     3A    -11.217533
       4A    -11.213617     5A    -11.213139     6A    -11.211191
       7A    -11.211088     8A    -11.207175     9A     -1.360204
      10A     -1.088039    11A     -1.048539    12A     -0.988105
      13A     -0.913348    14A     -0.842205    15A     -0.797729
      16A     -0.788266    17A     -0.678992    18A     -0.655947
      19A     -0.629403    20A     -0.614497    21A     -0.594218
      22A     -0.584789    23A     -0.548802    24A     -0.539963
      25A     -0.530503    26A     -0.501909    27A     -0.494391
      28A     -0.471108    29A     -0.469321    30A     -0.457986
      31A     -0.456492    32A     -0.455300    33A     -0.418320

  @DF-RHF Final Energy:  -349.24665496620486

   => Energetics <=

    Nuclear Repulsion Energy =            380.6102175336491769
    One-Electron Energy =               -1227.6668235464665031
    Two-Electron Energy =                 497.8099510466125821
    DFT Exchange-Correlation Energy =       0.0000000000000000
    Empirical Dispersion Energy =           0.0000000000000000
    PCM Polarization Energy =               0.0000000000000000
    EFP Energy =                            0.0000000000000000
    Total Energy =                       -349.2466549662048010
    Molecular point group: c1
  Basis Set: 6-31G*
  Basis Set:

  -Total Gradient:
     Atom            X                  Y                   Z
    ------   -----------------  -----------------  -----------------
       1       -0.000000037757     0.000000889837    -0.000000147595
       2       -0.000002019895    -0.000000485020     0.000002091677
       3        0.000004127190    -0.000003488644    -0.000005510793
       4        0.000014474119     0.000005899454     0.000000741800
       5        0.000000792456     0.000000182355    -0.000000958470
       6        0.000001749265     0.000000146375     0.000000759339
       7        0.000006989285    -0.000002306150    -0.000017921841
       8       -0.000003195402     0.000001506141     0.000000082404
       9        0.000001120108     0.000001986882     0.000000952642
      10        0.000009770865    -0.000023196848     0.000009097968
      11       -0.000005390520    -0.000000112780    -0.000003469852
      12       -0.000000285454     0.000001248199    -0.000003706086
      13       -0.001188538734     0.004229136971     0.000679493073
      14        0.000013419933    -0.000015019799    -0.000003174216
      15       -0.000006123084    -0.000006483117     0.000014502189
      16       -0.001589212711     0.002441524549     0.003264762069
      17        0.001203435282    -0.003952041251    -0.001120225682
      18       -0.000032842229     0.000010707117     0.000026702225
      19       -0.000013216811    -0.000008074198     0.000032396502
      20        0.001587461706    -0.002692559460    -0.002934593613
      21        0.000014662284     0.000016458658     0.000014773077
      22       -0.000014785975    -0.000010014723    -0.000008226686
      23       -0.000010960139    -0.000009094125     0.000017166962
      24        0.000008606232     0.000013189578     0.000034412909

  **** Optimization is complete! (in 6 steps) ****
    Final optimized geometry and variables:
    Molecular point group: c1

    Geometry (in Angstrom), charge = 0, multiplicity = 1:

    H           -3.485071416013     1.448928790057    -0.912613648271
    O           -3.522244426857     0.504579988232    -0.848036690309
    C           -3.257302446247     0.119556459820     0.476877583867
    C           -1.841260783232     0.461403255541     0.926968196284
    H           -3.410435575775    -0.952136191498     0.507228430747
    H           -3.981069910073     0.569371913165     1.154385159606
    C           -0.754801571243    -0.225817173124     0.098801018419
    H           -1.706840429006     1.542621428679     0.884364710378
    H           -1.738909675105     0.184611585564     1.974891713422
    C            0.661441996384     0.142958684624     0.542922759462
    H           -0.888787273466     0.029663007261    -0.947850940680
    H           -0.885105066340    -1.304488621230     0.168623474226
    C            1.750437000962    -0.539250948699    -0.284517956921
    H            0.790016623539     1.222465680691     0.480856291417
    H            0.792786622064    -0.117836115072     1.592305481620
    C            3.178369565499    -0.228198735717     0.190733690386
    H            1.646196931417    -0.275723808790    -1.335374712908
    H            1.598882040234    -1.616971672743    -0.251669628705
    C            4.214847238675    -0.354321701690    -0.927479424136
    H            3.452526682287    -0.922015013301     0.981458608136
    H            3.225092498476     0.772957030549     0.611768920876
    H            4.192539283067    -1.346233657651    -1.370723512151
    H            5.220111665752    -0.181728810268    -0.555106003957
    H            4.026058052427     0.364397617955    -1.719821145836

  Mulliken Charges: (a.u.)
   Center  Symbol    Alpha    Beta     Spin     Total
       1     H     0.28338  0.28338  0.00000  0.43323
       2     O     4.36829  4.36829  0.00000 -0.73658
       3     C     2.99613  2.99613  0.00000  0.00773
       4     C     3.16913  3.16913  0.00000 -0.33826
       5     H     0.41633  0.41633  0.00000  0.16734
       6     H     0.42814  0.42814  0.00000  0.14372
       7     C     3.15249  3.15249  0.00000 -0.30498
       8     H     0.42822  0.42822  0.00000  0.14356
       9     H     0.42231  0.42231  0.00000  0.15537
      10     C     3.15236  3.15236  0.00000 -0.30472
      11     H     0.41195  0.41195  0.00000  0.17611
      12     H     0.42344  0.42344  0.00000  0.15312
      13     C     3.15287  3.15287  0.00000 -0.30574
      14     H     0.42484  0.42484  0.00000  0.15033
      15     H     0.42455  0.42455  0.00000  0.15091
      16     C     3.15213  3.15213  0.00000 -0.30426
      17     H     0.42219  0.42219  0.00000  0.15562
      18     H     0.42273  0.42273  0.00000  0.15454
      19     C     3.23999  3.23999  0.00000 -0.47998
      20     H     0.42192  0.42192  0.00000  0.15617
      21     H     0.42246  0.42246  0.00000  0.15507
      22     H     0.42176  0.42176  0.00000  0.15649
      23     H     0.42049  0.42049  0.00000  0.15903
      24     H     0.42191  0.42191  0.00000  0.15618

   Total alpha = 33.00000, Total beta = 33.00000, Total charge = -0.00000
