  ==> Input File <==

--------------------------------------------------------------------------
set {
	reference rhf
	basis 6-31G*
}

set_num_threads( 4 )
memory 2 gb

molecule MOL {
0 1

H	 2.591676	 2.013956	 0.335017
O	 3.341076	 1.666752	 -0.126416
C	 3.569581	 0.339145	 0.272707
C	 2.539767	 -0.640285	 -0.279495
H	 4.553106	 0.084646	 -0.100901
H	 3.608576	 0.269204	 1.359154
C	 1.115811	 -0.397273	 0.226630
H	 2.556196	 -0.582511	 -1.364741
H	 2.852081	 -1.648031	 -0.010655
C	 0.115918	 -1.429151	 -0.302766
H	 0.797950	 0.599468	 -0.066350
H	 1.109961	 -0.420744	 1.316472
C	 0.330538	 -2.857019	 0.212475
H	 -0.894577	 -1.106540	 -0.058495
H	 0.175021	 -1.442671	 -1.389055
C	 0.086755	 -3.044343	 1.712461
H	 -0.337036	 -3.520994	 -0.332775
H	 1.341765	 -3.178993	 -0.031637
C	 0.210034	 -4.502753	 2.158866
H	 -0.906785	 -2.675606	 1.963501
H	 0.788723	 -2.441806	 2.283856
C	 -0.026526	 -4.691646	 3.656873
H	 -0.499934	 -5.110739	 1.602282
H	 1.198823	 -4.875874	 1.900096
H	 -1.020188	 -4.357674	 3.942043
H	 0.065725	 -5.735234	 3.941563
H	 0.692029	 -4.124743	 4.242247

	symmetry c1
}
set optking {
	frozen_dihedral = ("
		14 10 7 4
	")
}

ee = optimize('scf')
oeprop('DIPOLE', 'QUADRUPOLE', 'MULLIKEN_CHARGES')
f=open( 'psi4out.xyz', 'w' )
f.write( "27  " )
f.write( str(ee) + "\n" )
f.write( MOL.save_string_xyz() )
f.close()
--------------------------------------------------------------------------

    Molecular point group: c1
  Charge       = 0
  Multiplicity = 1
  Basis Set: 6-31G*
  Basis Set:
  @DF-RHF Final Energy:  -388.27950224843943
    Total Energy =                       -388.2795022484395986
    Molecular point group: c1
  Basis Set: 6-31G*
  Basis Set:
  Basis Set: 6-31G*
  Basis Set:
  @DF-RHF Final Energy:  -388.27996188285368
    Total Energy =                       -388.2799618828528310
  Basis Set: 6-31G*
  Basis Set:
  Basis Set: 6-31G*
  Basis Set:
  @DF-RHF Final Energy:  -388.28012545542424
    Total Energy =                       -388.2801254554250363
  Basis Set: 6-31G*
  Basis Set:
  Basis Set: 6-31G*
  Basis Set:
  @DF-RHF Final Energy:  -388.28013960543427
    Total Energy =                       -388.2801396054343286
  Basis Set: 6-31G*
  Basis Set:
  Basis Set: 6-31G*
  Basis Set:
  @DF-RHF Final Energy:  -388.28014028179831
    Total Energy =                       -388.2801402817981398
  Basis Set: 6-31G*
  Basis Set:
  Basis Set: 6-31G*
  Basis Set:
  @DF-RHF Final Energy:  -388.28014717828256
    Total Energy =                       -388.2801471782823910
  Basis Set: 6-31G*
  Basis Set:
  Charge       = 0
  Multiplicity = 1
  Basis Set: 6-31G*
  Basis Set:

    Orbital Energies (a.u.)
    -----------------------

    Doubly Occupied:

       1A    -20.552271     2A    -11.267305     3A    -11.219908
       4A    -11.217574     5A    -11.216530     6A    -11.215363
       7A    -11.214969     8A    -11.214674     9A    -11.209904
      10A     -1.359106    11A     -1.095312    12A     -1.060637
      13A     -1.009948    14A     -0.950463    15A     -0.888232
      16A     -0.829715    17A     -0.802000    18A     -0.765894
      19A     -0.693998    20A     -0.655420    21A     -0.633862
      22A     -0.615586    23A     -0.604534    24A     -0.583736
      25A     -0.575844    26A     -0.554046    27A     -0.543943
      28A     -0.528136    29A     -0.511885    30A     -0.499676
      31A     -0.482398    32A     -0.477176    33A     -0.464622
      34A     -0.456747    35A     -0.448926    36A     -0.441377
      37A     -0.425566

  @DF-RHF Final Energy:  -388.28014759001098

   => Energetics <=

    Nuclear Repulsion Energy =            464.9210274528214768
    One-Electron Energy =               -1447.8277874684772542
    Two-Electron Energy =                 594.6266124256451349
    DFT Exchange-Correlation Energy =       0.0000000000000000
    Empirical Dispersion Energy =           0.0000000000000000
    PCM Polarization Energy =               0.0000000000000000
    EFP Energy =                            0.0000000000000000
    Total Energy =                       -388.2801475900106425
    Molecular point group: c1
  Basis Set: 6-31G*
  Basis Set:

  -Total Gradient:
     Atom            X                  Y                   Z
    ------   -----------------  -----------------  -----------------
       1       -0.000006119515     0.000011367349    -0.000004043981
       2       -0.000024217480     0.000001420600     0.000019064961
       3        0.000028732995    -0.000011481621    -0.000022448298
       4       -0.000118889674     0.000409275657    -0.000536229625
       5        0.000003809478    -0.000014979910    -0.000001290489
       6       -0.000004540535    -0.000003030093    -0.000005674787
       7        0.000138407571    -0.000434650361     0.000571983397
       8        0.000007371646    -0.000012066620     0.000002499446
       9        0.000003520446     0.000007108462     0.000016183398
      10        0.000018124532    -0.000388697877     0.000742406903
      11        0.000003064053     0.000001296162     0.000013490972
      12        0.000005472175    -0.000008190428     0.000007796007
      13       -0.000007944413    -0.000000343560     0.000011322649
      14       -0.000039297999     0.000443735080    -0.000797763057
      15        0.000001883081    -0.000006208328    -0.000008128322
      16        0.000012906760    -0.000000044324    -0.000001463511
      17       -0.000010089055     0.000008950087     0.000005884740
      18       -0.000008109141    -0.000006561489    -0.000008053367
      19        0.000009146691    -0.000001082371    -0.000000752356
      20       -0.000004662142    -0.000010251572    -0.000005361044
      21       -0.000006738253     0.000013175951     0.000002691268
      22        0.000000990143     0.000001641863    -0.000000722620
      23       -0.000001599870    -0.000000001145     0.000001026238
      24       -0.000000992983    -0.000000452756    -0.000001728610
      25        0.000000190538     0.000000261478     0.000000209704
      26       -0.000000519210    -0.000000035236    -0.000000792383
      27        0.000000100157    -0.000000155002    -0.000000107230

  **** Optimization is complete! (in 7 steps) ****
    Final optimized geometry and variables:
    Molecular point group: c1

    Geometry (in Angstrom), charge = 0, multiplicity = 1:

    H            1.247633304632     3.733472748760    -0.614286059164
    O            2.011978161509     3.384537761603    -1.049008482084
    C            2.284308907798     2.093686742060    -0.566318540086
    C            1.301667632926     1.041301617051    -1.069628861869
    H            3.282089509798     1.855257691254    -0.911666822160
    H            2.310500273115     2.091596018804     0.522795194633
    C           -0.137029533658     1.265262506863    -0.595651332256
    H            1.329173970648     1.035243744793    -2.156309759946
    H            1.658086246110     0.068973384059    -0.737543170952
    C           -1.145633100129     0.238530810313    -1.128775295994
    H           -0.465392877899     2.246811038838    -0.929819120801
    H           -0.164595051486     1.288685042751     0.491745407458
    C           -0.981981335907    -1.202595198585    -0.628552469727
    H           -2.149306264795     0.581830985197    -0.886609047311
    H           -1.087657098074     0.235362983365    -2.215308095086
    C           -1.178173171774    -1.385482401182     0.878738179686
    H           -1.709422498116    -1.820674613210    -1.150710411660
    H           -0.006427994985    -1.588644271350    -0.914377991995
    C           -1.130370987361    -2.852210779823     1.312419078768
    H           -2.135304412165    -0.956204524976     1.171878933288
    H           -0.417000566935    -0.833257585764     1.424987907575
    C           -1.317931052041    -3.037217257047     2.817815226505
    H           -1.899509905206    -3.409500701169     0.782078012012
    H           -0.178686126418    -3.285545723728     1.011779094819
    H           -2.275946561622    -2.642876276244     3.144900370363
    H           -1.281318553621    -4.086724688519     3.093121771680
    H           -0.541530365012    -2.521847068147     3.376356851400

  Mulliken Charges: (a.u.)
   Center  Symbol    Alpha    Beta     Spin     Total
       1     H     0.27979  0.27979  0.00000  0.44042
       2     O     4.37095  4.37095  0.00000 -0.74190
       3     C     2.99689  2.99689  0.00000  0.00622
       4     C     3.16262  3.16262  0.00000 -0.32524
       5     H     0.41443  0.41443  0.00000  0.17115
       6     H     0.43226  0.43226  0.00000  0.13547
       7     C     3.16473  3.16473  0.00000 -0.32945
       8     H     0.41527  0.41527  0.00000  0.16945
       9     H     0.42301  0.42301  0.00000  0.15398
      10     C     3.15360  3.15360  0.00000 -0.30721
      11     H     0.42416  0.42416  0.00000  0.15169
      12     H     0.42250  0.42250  0.00000  0.15500
      13     C     3.15554  3.15554  0.00000 -0.31108
      14     H     0.42154  0.42154  0.00000  0.15692
      15     H     0.42004  0.42004  0.00000  0.15991
      16     C     3.15234  3.15234  0.00000 -0.30468
      17     H     0.42096  0.42096  0.00000  0.15808
      18     H     0.42188  0.42188  0.00000  0.15623
      19     C     3.15109  3.15109  0.00000 -0.30218
      20     H     0.42431  0.42431  0.00000  0.15138
      21     H     0.42387  0.42387  0.00000  0.15225
      22     C     3.23918  3.23918  0.00000 -0.47837
      23     H     0.42270  0.42270  0.00000  0.15460
      24     H     0.42322  0.42322  0.00000  0.15356
      25     H     0.42175  0.42175  0.00000  0.15649
      26     H     0.41909  0.41909  0.00000  0.16182
      27     H     0.42226  0.42226  0.00000  0.15547

   Total alpha = 37.00000, Total beta = 37.00000, Total charge = -0.00000
