                              Psi4 1.0.54 Driver

  ==> Input File <==

--------------------------------------------------------------------------
set {
	reference rhf
	basis cc-pvtz
}

set_num_threads( 4 )
memory 2 gb

molecule MOL {
0 1

H	 3.810490	 0.501489	 -0.819599
N	 3.021099	 -0.108446	 -0.798190
C	 1.827331	 0.595021	 -0.356020
H	 3.244318	 -0.857271	 -0.176271
C	 0.610555	 -0.317040	 -0.404245
H	 1.671239	 1.435217	 -1.024311
H	 1.926202	 1.008489	 0.648581
C	 -0.678115	 0.376691	 0.025731
H	 0.507861	 -0.702493	 -1.413347
H	 0.787141	 -1.178136	 0.237482
C	 -1.900706	 -0.535531	 -0.022488
H	 -0.852242	 1.239612	 -0.613019
H	 -0.562766	 0.764836	 1.035142
C	 -3.220513	 0.226854	 0.028039
H	 -1.865036	 -1.134397	 -0.928236
H	 -1.857948	 -1.236381	 0.806820
H	 -3.309098	 0.911849	 -0.808725
H	 -4.066838	 -0.449485	 -0.008086
H	 -3.301685	 0.809374	 0.939860

	symmetry c1
}
set optking {
	frozen_dihedral = ("
		12 8 11 15
	")
}

ee,wfn = optimize('scf', return_wfn=True)
oeprop( wfn, 'DIPOLE', 'QUADRUPOLE', 'MULLIKEN_CHARGES')
f=open( 'psi4out.xyz', 'w' )
f.write( "19  " )
f.write( str(ee) + "\n" )
f.write( MOL.save_string_xyz() )
f.close()
--------------------------------------------------------------------------

    Molecular point group: c1
  Charge       = 0
  Multiplicity = 1
  Basis Set: CC-PVTZ
  Basis Set:
  @DF-RHF Final Energy:  -251.44722212562462
    Total Energy =                       -251.4472221256245348
    Molecular point group: c1
  Basis Set: CC-PVTZ
  Basis Set:
  Basis Set: CC-PVTZ
  Basis Set:
  @DF-RHF Final Energy:  -251.44732247950478
    Total Energy =                       -251.4473224795048054
  Basis Set: CC-PVTZ
  Basis Set:
  Basis Set: CC-PVTZ
  Basis Set:
  @DF-RHF Final Energy:  -251.44736619071188
    Total Energy =                       -251.4473661907118185
  Basis Set: CC-PVTZ
  Basis Set:
  Charge       = 0
  Multiplicity = 1
  Basis Set: CC-PVTZ
  Basis Set:

    Orbital Energies (a.u.)
    -----------------------

    Doubly Occupied:

       1A    -15.526458     2A    -11.237977     3A    -11.211799
       4A    -11.210358     5A    -11.207954     6A    -11.205682
       7A     -1.178202     8A     -1.073928     9A     -0.999779
      10A     -0.901108    11A     -0.813751    12A     -0.790029
      13A     -0.666198    14A     -0.641411    15A     -0.617517
      16A     -0.590626    17A     -0.567417    18A     -0.545997
      19A     -0.533218    20A     -0.497696    21A     -0.482320
      22A     -0.465885    23A     -0.458972    24A     -0.451232
      25A     -0.383841

  @DF-RHF Final Energy:  -251.44736653369296

   => Energetics <=

    Nuclear Repulsion Energy =            246.0218548069952362
    One-Electron Energy =                -826.4197339761262810
    Two-Electron Energy =                 328.9505126354380877
    DFT Exchange-Correlation Energy =       0.0000000000000000
    Empirical Dispersion Energy =           0.0000000000000000
    PCM Polarization Energy =               0.0000000000000000
    EFP Energy =                            0.0000000000000000
    Total Energy =                       -251.4473665336930139
    Molecular point group: c1
  Basis Set: CC-PVTZ
  Basis Set:

  -Total Gradient:
     Atom            X                  Y                   Z
    ------   -----------------  -----------------  -----------------
       1        0.000025323608    -0.000008456651    -0.000001645527
       2        0.000032143884     0.000032383745    -0.000004584238
       3       -0.000014502202    -0.000025326118    -0.000010581105
       4        0.000000681094     0.000000382752     0.000004403406
       5       -0.000004335882     0.000004852631    -0.000013469363
       6        0.000008971260    -0.000005301195     0.000002671559
       7        0.000003993841     0.000001447303    -0.000004561304
       8        0.001715904964    -0.002239512457    -0.002352631815
       9       -0.000001572635     0.000011511298     0.000008887375
      10       -0.000015856475     0.000012555622     0.000001246773
      11       -0.002071230235     0.002794920857    -0.001225716713
      12       -0.001106331966     0.001404122703     0.002186849867
      13        0.000000121116     0.000000538315    -0.000001526205
      14       -0.000051683014     0.000017218282     0.000001407118
      15        0.001457863219    -0.001980443941     0.001414273365
      16       -0.000005182982     0.000007953396    -0.000005313669
      17        0.000010824637    -0.000019454150     0.000018508477
      18        0.000003439156     0.000006739128    -0.000000676001
      19        0.000011428615    -0.000016131522    -0.000017542000

  **** Optimization is complete! (in 4 steps) ****
    Final optimized geometry and variables:
    Molecular point group: c1

    Geometry (in Angstrom), charge = 0, multiplicity = 1:

    H            3.847710687688     0.454520298784    -0.493098313943
    N            3.055423744634    -0.152057276320    -0.497330839426
    C            1.854128007480     0.551729732178    -0.076631187392
    H            3.260548321902    -0.908237364243     0.121955019235
    C            0.635044977751    -0.354347479258    -0.164287841758
    H            1.717339103850     1.399656918227    -0.739435729948
    H            1.930254019767     0.954032885705     0.934399396097
    C           -0.662050539824     0.342098290774     0.230820579304
    H            0.559441884832    -0.734798796384    -1.177464929083
    H            0.788643965714    -1.219249683518     0.478595477527
    C           -1.882493752736    -0.577335090202     0.202910084515
    H           -0.838387354045     1.197750593515    -0.416941243925
    H           -0.560360370013     0.755728862617     1.231946030740
    C           -3.207342610047     0.171055194738     0.286379368798
    H           -1.855048219317    -1.190888606856    -0.693220185763
    H           -1.813481678451    -1.276304026282     1.032540174192
    H           -3.336036668465     0.834157560976    -0.562436342397
    H           -4.046633554421    -0.514753563629     0.301149156922
    H           -3.258542207074     0.775124680099     1.186455187530

  Mulliken Charges: (a.u.)
   Center  Symbol    Alpha    Beta     Spin     Total
       1     H     0.43022  0.43022  0.00000  0.13956
       2     N     3.68914  3.68914  0.00000 -0.37828
       3     C     3.02690  3.02690  0.00000 -0.05381
       4     H     0.43108  0.43108  0.00000  0.13783
       5     C     3.08155  3.08155  0.00000 -0.16310
       6     H     0.45696  0.45696  0.00000  0.08607
       7     H     0.46839  0.46839  0.00000  0.06322
       8     C     3.09370  3.09370  0.00000 -0.18739
       9     H     0.44874  0.44874  0.00000  0.10252
      10     H     0.46009  0.46009  0.00000  0.07983
      11     C     3.08365  3.08365  0.00000 -0.16730
      12     H     0.45557  0.45557  0.00000  0.08887
      13     H     0.45642  0.45642  0.00000  0.08715
      14     C     3.14927  3.14927  0.00000 -0.29854
      15     H     0.45440  0.45440  0.00000  0.09119
      16     H     0.45482  0.45482  0.00000  0.09037
      17     H     0.45501  0.45501  0.00000  0.08997
      18     H     0.44871  0.44871  0.00000  0.10258
      19     H     0.45538  0.45538  0.00000  0.08923

   Total alpha = 25.00000, Total beta = 25.00000, Total charge =  0.00000

*** Psi4 exiting successfully. Buy a developer a beer!
