                              Psi4 1.0.54 Driver

  ==> Input File <==

--------------------------------------------------------------------------
set {
	reference rhf
	basis cc-pvtz
}

set_num_threads( 4 )
memory 2 gb

molecule MOL {
0 1

O	 -0.694481	 1.313155	 -0.204815
C	 -0.862519	 0.151932	 -0.046791
C	 -2.171428	 -0.477048	 0.339095
O	 0.085519	 -0.757083	 -0.192238
H	 -2.467997	 -1.191667	 -0.417688
H	 -2.923379	 0.287970	 0.444097
H	 -2.053854	 -1.015120	 1.270901
C	 1.392036	 -0.330828	 -0.560749
C	 1.634405	 1.117162	 -0.188622
H	 1.532399	 -0.489203	 -1.618591
H	 2.056818	 -0.984356	 -0.016030
H	 2.658342	 1.385807	 -0.422789
H	 0.976158	 1.773604	 -0.741050
H	 1.476009	 1.271349	 0.871911

	symmetry c1
}
set optking {
	frozen_dihedral = ("
		10 8 4 2
	")
}

ee,wfn = optimize('scf', return_wfn=True)
oeprop( wfn, 'DIPOLE', 'QUADRUPOLE', 'MULLIKEN_CHARGES')
f=open( 'psi4out.xyz', 'w' )
f.write( "14  " )
f.write( str(ee) + "\n" )
f.write( MOL.save_string_xyz() )
f.close()
--------------------------------------------------------------------------

    Molecular point group: c1
  Charge       = 0
  Multiplicity = 1
  Basis Set: CC-PVTZ
  Basis Set:
  @DF-RHF Final Energy:  -305.95829539853486
    Total Energy =                       -305.9582953985346876
    Molecular point group: c1
  Basis Set: CC-PVTZ
  Basis Set:
  Basis Set: CC-PVTZ
  Basis Set:
  @DF-RHF Final Energy:  -305.97677831650856
    Total Energy =                       -305.9767783165086712
  Basis Set: CC-PVTZ
  Basis Set:
  Basis Set: CC-PVTZ
  Basis Set:
  @DF-RHF Final Energy:  -305.98015068463405
    Total Energy =                       -305.9801506846340544
  Basis Set: CC-PVTZ
  Basis Set:
  Basis Set: CC-PVTZ
  Basis Set:
  @DF-RHF Final Energy:  -305.95837317359258
    Total Energy =                       -305.9583731735928041
  Basis Set: CC-PVTZ
  Basis Set:
  @DF-RHF Final Energy:  -305.97883059641293
    Total Energy =                       -305.9788305964127630
  @DF-RHF Final Energy:  -305.98186676672015
    Total Energy =                       -305.9818667667198042
  @DF-RHF Final Energy:  -305.98193074498988
    Total Energy =                       -305.9819307449896542
  @DF-RHF Final Energy:  -305.98194068932457
    Total Energy =                       -305.9819406893245741
  Basis Set: CC-PVTZ
  Basis Set:
  @DF-RHF Final Energy:  -305.98194427555478
    Total Energy =                       -305.9819442755546675
  Basis Set: CC-PVTZ
  Basis Set:
  Basis Set: CC-PVTZ
  Basis Set:
  @DF-RHF Final Energy:  -305.98194559414969
    Total Energy =                       -305.9819455941496358
  Basis Set: CC-PVTZ
  Basis Set:
  Basis Set: CC-PVTZ
  Basis Set:
  @DF-RHF Final Energy:  -305.98194706612207
    Total Energy =                       -305.9819470661222454
  Basis Set: CC-PVTZ
  Basis Set:
  Charge       = 0
  Multiplicity = 1
  Basis Set: CC-PVTZ
  Basis Set:

    Orbital Energies (a.u.)
    -----------------------

    Doubly Occupied:

       1A    -20.591992     2A    -20.529900     3A    -11.367872
       4A    -11.288950     5A    -11.229485     6A    -11.214822
       7A     -1.465202     8A     -1.365107     9A     -1.055919
      10A     -0.997559    11A     -0.893826    12A     -0.750471
      13A     -0.693850    14A     -0.683952    15A     -0.670331
      16A     -0.613454    17A     -0.588574    18A     -0.570246
      19A     -0.549057    20A     -0.535046    21A     -0.514718
      22A     -0.497846    23A     -0.449633    24A     -0.433783

  @DF-RHF Final Energy:  -305.98194680543975

   => Energetics <=

    Nuclear Repulsion Energy =            249.5220342016802988
    One-Electron Energy =                -911.9047674511879222
    Two-Electron Energy =                 356.4007864440678759
    DFT Exchange-Correlation Energy =       0.0000000000000000
    Empirical Dispersion Energy =           0.0000000000000000
    PCM Polarization Energy =               0.0000000000000000
    EFP Energy =                            0.0000000000000000
    Total Energy =                       -305.9819468054397475
    Molecular point group: c1
  Basis Set: CC-PVTZ
  Basis Set:

  -Total Gradient:
     Atom            X                  Y                   Z
    ------   -----------------  -----------------  -----------------
       1       -0.000004364267     0.000052879152    -0.000009853026
       2        0.000338925286     0.001276659684     0.004806438604
       3       -0.000035054035    -0.000005498901    -0.000015643252
       4        0.000242352279    -0.003046581915    -0.006912523618
       5        0.000023680975    -0.000042015159    -0.000047967265
       6       -0.000090435761     0.000039788684     0.000000919263
       7        0.000022466022     0.000023303676     0.000054920709
       8       -0.003750872791     0.005597660826     0.000331642354
       9        0.000368609862    -0.000202222715    -0.000084926577
      10        0.002880403809    -0.003830162649     0.001754389899
      11        0.000082432993     0.000132397630     0.000104519643
      12       -0.000016465557     0.000047497863     0.000034185812
      13       -0.000044898183    -0.000016214828    -0.000107285813
      14       -0.000016780635    -0.000027491348     0.000091183269

  **** Optimization is complete! (in 12 steps) ****
    Final optimized geometry and variables:
    Molecular point group: c1

    Geometry (in Angstrom), charge = 0, multiplicity = 1:

    O           -1.093120185584     0.788547077892    -0.438703284416
    C           -0.801517921877    -0.261702268471     0.021117202129
    C           -1.790638711439    -1.224085951541     0.620448978753
    O            0.419193439140    -0.761840023356     0.061915310270
    H           -1.709722176636    -2.185094767154     0.129809121773
    H           -2.788386356322    -0.830770257894     0.511433930534
    H           -1.561739028960    -1.369988349345     1.668637503302
    C            1.609743907230    -0.037904044361    -0.248393918381
    C            1.618821697318     1.461389392206    -0.023543128875
    H            1.895559165950    -0.301053708129    -1.258783956520
    H            2.344137520009    -0.491244494486     0.402715059601
    H            2.649669476953     1.789811055908    -0.104399209840
    H            1.021278968185     1.996795076807    -0.740933382270
    H            1.267296360266     1.709514733380     0.970308740826

  Mulliken Charges: (a.u.)
   Center  Symbol    Alpha    Beta     Spin     Total
       1     O     4.19819  4.19819  0.00000 -0.39638
       2     C     2.80331  2.80331  0.00000  0.39337
       3     C     3.13748  3.13748  0.00000 -0.27497
       4     O     4.15521  4.15521  0.00000 -0.31042
       5     H     0.44488  0.44488  0.00000  0.11024
       6     H     0.43883  0.43883  0.00000  0.12235
       7     H     0.44746  0.44746  0.00000  0.10508
       8     C     2.98032  2.98032  0.00000  0.03936
       9     C     3.15259  3.15259  0.00000 -0.30518
      10     H     0.45521  0.45521  0.00000  0.08957
      11     H     0.45060  0.45060  0.00000  0.09881
      12     H     0.45134  0.45134  0.00000  0.09732
      13     H     0.43398  0.43398  0.00000  0.13203
      14     H     0.45060  0.45060  0.00000  0.09880

   Total alpha = 24.00000, Total beta = 24.00000, Total charge = -0.00000

*** Psi4 exiting successfully. Buy a developer a beer!
