  ==> Input File <==

--------------------------------------------------------------------------
set {
	reference rhf
	basis cc-pvtz
}

set_num_threads( 4 )
memory 2 gb

molecule MOL {
0 1

H	 2.513203	 -1.119262	 1.106955
N	 1.535166	 -0.929427	 1.124707
C	 0.806789	 -1.923006	 0.361746
C	 1.265175	 0.411898	 0.647429
H	 1.015816	 -2.905020	 0.768326
H	 1.092907	 -1.927992	 -0.691691
C	 -0.681559	 -1.641071	 0.458742
H	 1.806360	 1.121810	 1.261022
H	 1.580254	 0.554432	 -0.387959
C	 -0.223774	 0.690774	 0.744050
H	 -1.004668	 -1.788843	 1.493321
H	 -1.224240	 -2.347149	 -0.158566
N	 -0.976577	 -0.298712	 -0.000000
H	 -0.435447	 1.670765	 0.333038
H	 -0.515344	 0.703646	 1.798285
C	 -2.391156	 -0.021003	 -0.000000
H	 -2.853954	 -0.458728	 -0.875714
H	 -2.853954	 -0.458728	 0.875714
H	 -2.614037	 1.049773	 -0.000000

	symmetry c1
}
set optking {
	frozen_dihedral = ("
		7 13 16 19
	")
}

ee = optimize('scf')
oeprop('DIPOLE', 'QUADRUPOLE', 'MULLIKEN_CHARGES')
f=open( 'psi4out.xyz', 'w' )
f.write( "19  " )
f.write( str(ee) + "\n" )
f.write( MOL.save_string_xyz() )
f.close()
--------------------------------------------------------------------------

    Molecular point group: c1
  Charge       = 0
  Multiplicity = 1
  Basis Set: CC-PVTZ
  Basis Set:
  @DF-RHF Final Energy:  -305.30632415489117
    Total Energy =                       -305.3063241548913993
    Molecular point group: c1
  Basis Set: CC-PVTZ
  Basis Set:
  Basis Set: CC-PVTZ
  Basis Set:
  @DF-RHF Final Energy:  -305.30702555335455
    Total Energy =                       -305.3070255533546629
  Basis Set: CC-PVTZ
  Basis Set:
  Basis Set: CC-PVTZ
  Basis Set:
  @DF-RHF Final Energy:  -305.30711589182937
    Total Energy =                       -305.3071158918296533
  Basis Set: CC-PVTZ
  Basis Set:
  Charge       = 0
  Multiplicity = 1
  Basis Set: CC-PVTZ
  Basis Set:

    Orbital Energies (a.u.)
    -----------------------

    Doubly Occupied:

       1A    -15.536701     2A    -15.531049     3A    -11.237124
       4A    -11.237062     5A    -11.235954     6A    -11.235717
       7A    -11.233172     8A     -1.248809     9A     -1.187363
      10A     -1.023619    11A     -0.965447    12A     -0.861335
      13A     -0.858609    14A     -0.758258    15A     -0.692686
      16A     -0.633803    17A     -0.626691    18A     -0.609151
      19A     -0.605513    20A     -0.581180    21A     -0.543812
      22A     -0.530986    23A     -0.512385    24A     -0.489873
      25A     -0.466816    26A     -0.457840    27A     -0.365813
      28A     -0.348729

  @DF-RHF Final Energy:  -305.30711793556662

   => Energetics <=

    Nuclear Repulsion Energy =            340.2608055902359752
    One-Electron Energy =               -1087.9048483482370102
    Two-Electron Energy =                 442.3369248224345256
    DFT Exchange-Correlation Energy =       0.0000000000000000
    Empirical Dispersion Energy =           0.0000000000000000
    PCM Polarization Energy =               0.0000000000000000
    EFP Energy =                            0.0000000000000000
    Total Energy =                       -305.3071179355664526
    Molecular point group: c1
  Basis Set: CC-PVTZ
  Basis Set:

  -Total Gradient:
     Atom            X                  Y                   Z
    ------   -----------------  -----------------  -----------------
       1       -0.000004366551     0.000025756508     0.000007973577
       2        0.000003092167    -0.000006275311     0.000004068100
       3        0.000007560242     0.000104011577    -0.000089577929
       4        0.000051049303     0.000049940389     0.000097783610
       5       -0.000050551108     0.000030884421    -0.000003886966
       6        0.000036780333    -0.000021311463    -0.000034258221
       7        0.000117934550     0.001218994077     0.003206360745
       8        0.000058599417    -0.000006910297     0.000009532431
       9       -0.000034572653    -0.000013775480     0.000021399501
      10       -0.000017530099    -0.000078442882    -0.000134696204
      11       -0.000029249686    -0.000000027857     0.000025301246
      12       -0.000016314646     0.000000607983    -0.000001922088
      13       -0.000323292713    -0.001626162118    -0.003116632494
      14        0.000016354711     0.000000489596     0.000017254997
      15        0.000041266409     0.000004285409    -0.000003265417
      16        0.000093526969     0.000353333456    -0.004506841042
      17        0.000004340660    -0.000012271839    -0.000006221085
      18        0.000004234530    -0.000016327610     0.000026434161
      19        0.000041138163    -0.000006798559     0.004481193078

  **** Optimization is complete! (in 4 steps) ****
    Final optimized geometry and variables:
    Molecular point group: c1

    Geometry (in Angstrom), charge = 0, multiplicity = 1:

    H            2.621188173513    -0.588911425407     0.623917375196
    N            1.642719080784    -0.401399469461     0.645903285812
    C            0.912583475896    -1.392644724033    -0.117935305929
    C            1.367758983697     0.941355039112     0.176360285764
    H            1.118196057785    -2.375528953781     0.288543137710
    H            1.198406762728    -1.398711248980    -1.171496974783
    C           -0.574379291468    -1.105578726916    -0.018926194415
    H            1.906868747909     1.649999625788     0.793517058371
    H            1.681815825608     1.090684615842    -0.858456745067
    C           -0.122189741753     1.217404176793     0.272311621612
    H           -0.895535058829    -1.240542492424     1.017519276494
    H           -1.121789216261    -1.817454372747    -0.626575643993
    N           -0.871441748053     0.233788532883    -0.487152734513
    H           -0.329828703769     2.201228363749    -0.130324382415
    H           -0.414972576781     1.220475850678     1.326308295411
    C           -2.293592686757     0.496481626173    -0.483377702495
    H           -2.769321414813     0.049983912720    -1.348021524474
    H           -2.783862449594     0.105091786548     0.411559203547
    H           -2.475867232707     1.562950223108    -0.489402446236

  Mulliken Charges: (a.u.)
   Center  Symbol    Alpha    Beta     Spin     Total
       1     H     0.43999  0.43999  0.00000  0.12002
       2     N     3.64289  3.64289  0.00000 -0.28578
       3     C     3.04081  3.04081  0.00000 -0.08162
       4     C     3.04176  3.04176  0.00000 -0.08351
       5     H     0.45251  0.45251  0.00000  0.09499
       6     H     0.46528  0.46528  0.00000  0.06944
       7     C     3.03578  3.03578  0.00000 -0.07155
       8     H     0.45252  0.45252  0.00000  0.09496
       9     H     0.46546  0.46546  0.00000  0.06908
      10     C     3.03317  3.03317  0.00000 -0.06633
      11     H     0.46731  0.46731  0.00000  0.06537
      12     H     0.45411  0.45411  0.00000  0.09179
      13     N     3.61565  3.61565  0.00000 -0.23131
      14     H     0.45398  0.45398  0.00000  0.09203
      15     H     0.46930  0.46930  0.00000  0.06140
      16     C     3.09601  3.09601  0.00000 -0.19203
      17     H     0.44975  0.44975  0.00000  0.10051
      18     H     0.46925  0.46925  0.00000  0.06150
      19     H     0.45448  0.45448  0.00000  0.09105

   Total alpha = 28.00000, Total beta = 28.00000, Total charge = -0.00000
