                              Psi4 1.0.54 Driver

  ==> Input File <==

--------------------------------------------------------------------------
set {
	reference rhf
	basis cc-pvtz
}

set_num_threads( 4 )
memory 2 gb

molecule MOL {
0 1

H	 1.128311	 0.207724	 1.465118
C	 1.134565	 0.093781	 0.372499
C	 0.062554	 0.862911	 -0.350953
O	 1.948932	 -0.587720	 -0.146651
C	 -0.924825	 -0.050091	 -1.084522
H	 0.536914	 1.560968	 -1.028591
H	 -0.472668	 1.436834	 0.402190
C	 -0.299993	 -0.803842	 -2.255032
H	 -1.749416	 0.554976	 -1.443017
H	 -1.352868	 -0.757431	 -0.379614
H	 0.100561	 -0.115314	 -2.990588
H	 -1.035806	 -1.427775	 -2.747908
H	 0.512588	 -1.445072	 -1.931657

	symmetry c1
}
set optking {
	frozen_dihedral = ("
		6 3 2 4
	")
}

ee,wfn = optimize('scf', return_wfn=True)
oeprop( wfn, 'DIPOLE', 'QUADRUPOLE', 'MULLIKEN_CHARGES')
f=open( 'psi4out.xyz', 'w' )
f.write( "13  " )
f.write( str(ee) + "\n" )
f.write( MOL.save_string_xyz() )
f.close()
--------------------------------------------------------------------------

    Molecular point group: c1
  Charge       = 0
  Multiplicity = 1
  Basis Set: CC-PVTZ
  Basis Set:
  @DF-RHF Final Energy:  -231.06672026543964
    Total Energy =                       -231.0667202654396988
    Molecular point group: c1
  Basis Set: CC-PVTZ
  Basis Set:
  Basis Set: CC-PVTZ
  Basis Set:
  @DF-RHF Final Energy:  -231.06690398084334
    Total Energy =                       -231.0669039808432785
  Basis Set: CC-PVTZ
  Basis Set:
  Basis Set: CC-PVTZ
  Basis Set:
  @DF-RHF Final Energy:  -231.06665747749253
    Total Energy =                       -231.0666574774924982
  Basis Set: CC-PVTZ
  Basis Set:
  Basis Set: CC-PVTZ
  Basis Set:
  @DF-RHF Final Energy:  -231.06748148818127
    Total Energy =                       -231.0674814881811301
  Basis Set: CC-PVTZ
  Basis Set:
  Basis Set: CC-PVTZ
  Basis Set:
  @DF-RHF Final Energy:  -231.06750336001585
    Total Energy =                       -231.0675033600158486
  Basis Set: CC-PVTZ
  Basis Set:
  Basis Set: CC-PVTZ
  Basis Set:
  @DF-RHF Final Energy:  -231.06751133892058
    Total Energy =                       -231.0675113389206103
  Basis Set: CC-PVTZ
  Basis Set:
  Charge       = 0
  Multiplicity = 1
  Basis Set: CC-PVTZ
  Basis Set:

    Orbital Energies (a.u.)
    -----------------------

    Doubly Occupied:

       1A    -20.553342     2A    -11.323435     3A    -11.235361
       4A    -11.232434     5A    -11.207293     6A     -1.408779
       7A     -1.079165     8A     -0.971557     9A     -0.845145
      10A     -0.779569    11A     -0.683131    12A     -0.652026
      13A     -0.599437    14A     -0.595192    15A     -0.570774
      16A     -0.526252    17A     -0.500926    18A     -0.489284
      19A     -0.480412    20A     -0.409572

  @DF-RHF Final Energy:  -231.06751162491275

   => Energetics <=

    Nuclear Repulsion Energy =            175.9694023224643615
    One-Electron Energy =                -661.7876565574630376
    Two-Electron Energy =                 254.7507426100859789
    DFT Exchange-Correlation Energy =       0.0000000000000000
    Empirical Dispersion Energy =           0.0000000000000000
    PCM Polarization Energy =               0.0000000000000000
    EFP Energy =                            0.0000000000000000
    Total Energy =                       -231.0675116249126972
    Molecular point group: c1
  Basis Set: CC-PVTZ
  Basis Set:

  -Total Gradient:
     Atom            X                  Y                   Z
    ------   -----------------  -----------------  -----------------
       1        0.000008798495    -0.000011288367    -0.000045165171
       2        0.000756557073     0.001063951930     0.000012028022
       3       -0.000263273385    -0.001006566039    -0.000582350851
       4       -0.000549589193    -0.000641493812     0.000081621459
       5        0.000008210778     0.000002715410    -0.000016756377
       6        0.000017321522     0.000581821582     0.000528584162
       7       -0.000009039335     0.000002457092    -0.000004455295
       8        0.000023921577    -0.000018434233     0.000013132897
       9        0.000005071449     0.000011223451     0.000006947883
      10        0.000010413804     0.000005964692     0.000003819058
      11       -0.000003234691    -0.000007082613     0.000006188402
      12        0.000000097844     0.000001694643     0.000003917997
      13       -0.000005255936     0.000015036264    -0.000007512184

  **** Optimization is complete! (in 7 steps) ****
    Final optimized geometry and variables:
    Molecular point group: c1

    Geometry (in Angstrom), charge = 0, multiplicity = 1:

    H            0.734862389678     0.398751494004     2.198630187406
    C            0.743921994139     0.227064816648     1.115504302268
    C           -0.297850433656     0.979282231466     0.318812145580
    O            1.536370193378    -0.516855153945     0.648655104141
    C           -1.300737708130     0.067896393080    -0.405803315271
    H            0.223963367020     1.604932400036    -0.398773311720
    H           -0.830995338558     1.639788430980     0.993075764776
    C           -0.731702794833    -0.677813153624    -1.608601636844
    H           -2.128942807831     0.688474187123    -0.730131363145
    H           -1.715441555699    -0.642334863840     0.303710143250
    H           -0.353784392079     0.018650034410    -2.349633635662
    H           -1.504357506947    -1.275017934025    -2.079185657386
    H            0.080009186384    -1.331970638895    -1.325304905971

  Mulliken Charges: (a.u.)
   Center  Symbol    Alpha    Beta     Spin     Total
       1     H     0.45219  0.45219  0.00000  0.09563
       2     C     2.91656  2.91656  0.00000  0.16689
       3     C     3.09338  3.09338  0.00000 -0.18677
       4     O     4.16817  4.16817  0.00000 -0.33634
       5     C     3.08862  3.08862  0.00000 -0.17723
       6     H     0.44428  0.44428  0.00000  0.11144
       7     H     0.44344  0.44344  0.00000  0.11311
       8     C     3.14437  3.14437  0.00000 -0.28874
       9     H     0.44703  0.44703  0.00000  0.10593
      10     H     0.45259  0.45259  0.00000  0.09481
      11     H     0.45769  0.45769  0.00000  0.08462
      12     H     0.45099  0.45099  0.00000  0.09801
      13     H     0.44068  0.44068  0.00000  0.11864

   Total alpha = 20.00000, Total beta = 20.00000, Total charge =  0.00000

*** Psi4 exiting successfully. Buy a developer a beer!
