  ==> Input File <==

--------------------------------------------------------------------------
set {
	reference rhf
	basis cc-pvtz
}

set_num_threads( 4 )
memory 2 gb

molecule MOL {
0 1

H	 1.510536	 1.293834	 -1.901019
O	 0.645952	 1.121826	 -1.577675
C	 0.700177	 0.619554	 -0.266242
C	 -0.713111	 0.588314	 0.266177
H	 1.311035	 1.258898	 0.363850
H	 1.117741	 -0.383844	 -0.251741
O	 -1.421673	 -0.521378	 -0.196983
H	 -1.244794	 1.469161	 -0.069059
H	 -0.685100	 0.604721	 1.352683
H	 -0.933408	 -1.297830	 0.014544

	symmetry c1
}
set optking {
	frozen_dihedral = ("
		5 3 4 7
	")
}

ee = optimize('scf')
oeprop('DIPOLE', 'QUADRUPOLE', 'MULLIKEN_CHARGES')
f=open( 'psi4out.xyz', 'w' )
f.write( "10  " )
f.write( str(ee) + "\n" )
f.write( MOL.save_string_xyz() )
f.close()
--------------------------------------------------------------------------

    Molecular point group: c1
  Charge       = 0
  Multiplicity = 1
  Basis Set: CC-PVTZ
  Basis Set:
  @DF-RHF Final Energy:  -229.02163512334127
    Total Energy =                       -229.0216351233412979
    Molecular point group: c1
  Basis Set: CC-PVTZ
  Basis Set:
  Basis Set: CC-PVTZ
  Basis Set:
  @DF-RHF Final Energy:  -229.02246419248988
    Total Energy =                       -229.0224641924899061
  Basis Set: CC-PVTZ
  Basis Set:
  Basis Set: CC-PVTZ
  Basis Set:
  @DF-RHF Final Energy:  -229.02268644168709
    Total Energy =                       -229.0226864416870285
  Basis Set: CC-PVTZ
  Basis Set:
  Basis Set: CC-PVTZ
  Basis Set:
  @DF-RHF Final Energy:  -229.02273154459493
    Total Energy =                       -229.0227315445949330
  Basis Set: CC-PVTZ
  Basis Set:
  Basis Set: CC-PVTZ
  Basis Set:
  @DF-RHF Final Energy:  -229.02274420428688
    Total Energy =                       -229.0227442042869939
  Basis Set: CC-PVTZ
  Basis Set:
  Basis Set: CC-PVTZ
  Basis Set:
  @DF-RHF Final Energy:  -229.02274623622597
    Total Energy =                       -229.0227462362259985
  Basis Set: CC-PVTZ
  Basis Set:
  Charge       = 0
  Multiplicity = 1
  Basis Set: CC-PVTZ
  Basis Set:

    Orbital Energies (a.u.)
    -----------------------

    Doubly Occupied:

       1A    -20.551956     2A    -20.547071     3A    -11.273887
       4A    -11.268540     5A     -1.378362     6A     -1.359492
       7A     -1.002966     8A     -0.847339     9A     -0.723054
      10A     -0.682877    11A     -0.654305    12A     -0.600085
      13A     -0.576278    14A     -0.541267    15A     -0.484214
      16A     -0.448750    17A     -0.439570

  @DF-RHF Final Energy:  -229.02274647839906

   => Energetics <=

    Nuclear Repulsion Energy =            132.9249889403645568
    One-Electron Energy =                -577.1354447733885991
    Two-Electron Energy =                 215.1877093546249284
    DFT Exchange-Correlation Energy =       0.0000000000000000
    Empirical Dispersion Energy =           0.0000000000000000
    PCM Polarization Energy =               0.0000000000000000
    EFP Energy =                            0.0000000000000000
    Total Energy =                       -229.0227464783991422
    Molecular point group: c1
  Basis Set: CC-PVTZ
  Basis Set:

  -Total Gradient:
     Atom            X                  Y                   Z
    ------   -----------------  -----------------  -----------------
       1       -0.000003096355    -0.000005736283    -0.000003328917
       2        0.000006982190     0.000000835267     0.000006997492
       3       -0.000659191786     0.002464098515    -0.001232901088
       4       -0.000914643573     0.001269146173    -0.002128472551
       5        0.000777757503    -0.002396385210     0.001556256491
       6        0.000002477985     0.000008800412    -0.000009561032
       7        0.000781022316    -0.001348015898     0.001826675575
       8        0.000009668149     0.000008137004    -0.000001918551
       9       -0.000001496100     0.000001735339    -0.000002921278
      10        0.000000519670    -0.000002615319    -0.000010826143

  **** Optimization is complete! (in 7 steps) ****
    Final optimized geometry and variables:
    Molecular point group: c1

    Geometry (in Angstrom), charge = 0, multiplicity = 1:

    H            1.711325342580     0.707650234317    -1.476960969705
    O            0.853139225820     0.734340202318    -1.096274226680
    C            0.879870402709     0.216100279997     0.200631008579
    C           -0.532997603898     0.111797407887     0.737164220786
    H            1.466324549441     0.842907464411     0.869582665602
    H            1.336636662902    -0.773064380815     0.214012829315
    O           -1.245242748254    -0.984466633320     0.240661610391
    H           -1.084415900566     0.996906337864     0.454083458133
    H           -0.490378315109     0.076182220379     1.823658733998
    H           -0.846679886181    -1.785115499296     0.528649269513

  Mulliken Charges: (a.u.)
   Center  Symbol    Alpha    Beta     Spin     Total
       1     H     0.39508  0.39508  0.00000  0.20984
       2     O     4.19264  4.19264  0.00000 -0.38528
       3     C     2.95982  2.95982  0.00000  0.08036
       4     C     2.96676  2.96676  0.00000  0.06649
       5     H     0.47779  0.47779  0.00000  0.04442
       6     H     0.48428  0.48428  0.00000  0.03144
       7     O     4.19811  4.19811  0.00000 -0.39623
       8     H     0.45433  0.45433  0.00000  0.09133
       9     H     0.47435  0.47435  0.00000  0.05129
      10     H     0.39683  0.39683  0.00000  0.20633

   Total alpha = 17.00000, Total beta = 17.00000, Total charge = -0.00000
