  ==> Input File <==

--------------------------------------------------------------------------
set {
	reference rhf
	basis 6-31G*
}

set_num_threads( 4 )
memory 2 gb

molecule MOL {
0 1

H	 -2.698709	 -0.000305	 0.034435
C	 -1.693833	 0.000034	 0.434417
O	 -0.828952	 -0.000968	 -0.659236
H	 -1.574200	 0.882896	 1.055746
H	 -1.574147	 -0.881698	 1.057355
C	 -1.366199	 0.212675	 -1.943847
C	 -2.327450	 -0.895936	 -2.367988
C	 -1.979217	 1.603115	 -2.098260
H	 -0.495518	 0.160735	 -2.586691
H	 -1.878562	 -1.868585	 -2.197690
H	 -2.554106	 -0.805963	 -3.425706
H	 -3.268176	 -0.853022	 -1.828212
H	 -1.289639	 2.360100	 -1.740610
H	 -2.190012	 1.801616	 -3.144504
H	 -2.912167	 1.703838	 -1.553007

	symmetry c1
}
set optking {
	frozen_dihedral = ("
		6 3 2 1
	")
}

ee = optimize('scf')
oeprop('DIPOLE', 'QUADRUPOLE', 'MULLIKEN_CHARGES')
f=open( 'psi4out.xyz', 'w' )
f.write( "15  " )
f.write( str(ee) + "\n" )
f.write( MOL.save_string_xyz() )
f.close()
--------------------------------------------------------------------------

    Molecular point group: c1
  Charge       = 0
  Multiplicity = 1
  Basis Set: 6-31G*
  Basis Set:
  @DF-RHF Final Energy:  -232.13308520038112
    Total Energy =                       -232.1330852003810605
    Molecular point group: c1
  Basis Set: 6-31G*
  Basis Set:
  Basis Set: 6-31G*
  Basis Set:
  @DF-RHF Final Energy:  -232.13471486688636
    Total Energy =                       -232.1347148668862701
  Basis Set: 6-31G*
  Basis Set:
  Basis Set: 6-31G*
  Basis Set:
  @DF-RHF Final Energy:  -232.13549166413486
    Total Energy =                       -232.1354916641348609
  Basis Set: 6-31G*
  Basis Set:
  Basis Set: 6-31G*
  Basis Set:
  @DF-RHF Final Energy:  -232.13542873503425
    Total Energy =                       -232.1354287350339973
  Basis Set: 6-31G*
  Basis Set:
  Basis Set: 6-31G*
  Basis Set:
  @DF-RHF Final Energy:  -232.13552054640297
    Total Energy =                       -232.1355205464029723
  Basis Set: 6-31G*
  Basis Set:
  Basis Set: 6-31G*
  Basis Set:
  @DF-RHF Final Energy:  -232.13553367801609
    Total Energy =                       -232.1355336780160314
  Basis Set: 6-31G*
  Basis Set:
  Charge       = 0
  Multiplicity = 1
  Basis Set: 6-31G*
  Basis Set:

    Orbital Energies (a.u.)
    -----------------------

    Doubly Occupied:

       1A    -20.545921     2A    -11.274971     3A    -11.261479
       4A    -11.210721     5A    -11.210199     6A     -1.368000
       7A     -1.049941     8A     -0.939805     9A     -0.931444
      10A     -0.781598    11A     -0.675749    12A     -0.638230
      13A     -0.631960    14A     -0.569180    15A     -0.563544
      16A     -0.552540    17A     -0.538299    18A     -0.500783
      19A     -0.497892    20A     -0.441823    21A     -0.402882

  @DF-RHF Final Energy:  -232.13553370670101

   => Energetics <=

    Nuclear Repulsion Energy =            198.6225418167150849
    One-Electron Energy =                -708.3422281409091283
    Two-Electron Energy =                 277.5841526174930323
    DFT Exchange-Correlation Energy =       0.0000000000000000
    Empirical Dispersion Energy =           0.0000000000000000
    PCM Polarization Energy =               0.0000000000000000
    EFP Energy =                            0.0000000000000000
    Total Energy =                       -232.1355337067010396
    Molecular point group: c1
  Basis Set: 6-31G*
  Basis Set:

  -Total Gradient:
     Atom            X                  Y                   Z
    ------   -----------------  -----------------  -----------------
       1        0.000034419549     0.001093698225     0.000026254479
       2       -0.000163795370    -0.001862644836    -0.000084357576
       3        0.000295759932     0.001621756541     0.000150669430
       4        0.000003694370    -0.000013532130     0.000006399154
       5        0.000002821477     0.000012269686     0.000008740434
       6       -0.000152300558    -0.000868105045    -0.000024321368
       7       -0.000001200326    -0.000003152505    -0.000023006127
       8       -0.000014339291     0.000016574687    -0.000028234936
       9       -0.000006907624    -0.000004753205     0.000011158074
      10        0.000008596674    -0.000000650935    -0.000015399513
      11       -0.000009496976     0.000004480966    -0.000001087973
      12        0.000004176138     0.000001951547     0.000000635039
      13        0.000013246766    -0.000006162172    -0.000022564899
      14       -0.000016319659     0.000004004745    -0.000006326147
      15        0.000001644899     0.000004264431     0.000001441928

  **** Optimization is complete! (in 7 steps) ****
    Final optimized geometry and variables:
    Molecular point group: c1

    Geometry (in Angstrom), charge = 0, multiplicity = 1:

    H           -1.113054127190    -0.119108470286     1.459766311462
    C           -0.069313655282    -0.158112903451     1.747619891177
    O            0.801193524336    -0.199083641200     0.654004518579
    H            0.141268255585     0.715220827444     2.357310064766
    H            0.085951075487    -1.044788602672     2.351092940525
    C            0.291350757406     0.026249407691    -0.639017476419
    C           -0.655093589461    -1.084812664438    -1.088903768218
    C           -0.317013841634     1.419044040261    -0.788646183484
    H            1.174227417870    -0.018896844103    -1.265351010847
    H           -0.184910116574    -2.052332964513    -0.951738749390
    H           -0.896933330359    -0.968503355613    -2.140942900886
    H           -1.589390502367    -1.078504871313    -0.536534134293
    H            0.387568563320     2.172473942162    -0.453650069653
    H           -0.557317803442     1.615484909827    -1.828976749086
    H           -1.231973167583     1.528997607356    -0.214775422692

  Mulliken Charges: (a.u.)
   Center  Symbol    Alpha    Beta     Spin     Total
       1     H     0.42975  0.42975  0.00000  0.14051
       2     C     3.07889  3.07889  0.00000 -0.15778
       3     O     4.31528  4.31528  0.00000 -0.63057
       4     H     0.42266  0.42266  0.00000  0.15467
       5     H     0.41822  0.41822  0.00000  0.16355
       6     C     2.91004  2.91004  0.00000  0.17992
       7     C     3.25045  3.25045  0.00000 -0.50091
       8     C     3.25173  3.25173  0.00000 -0.50347
       9     H     0.41548  0.41548  0.00000  0.16904
      10     H     0.41156  0.41156  0.00000  0.17688
      11     H     0.42034  0.42034  0.00000  0.15931
      12     H     0.42213  0.42213  0.00000  0.15574
      13     H     0.41171  0.41171  0.00000  0.17659
      14     H     0.41969  0.41969  0.00000  0.16062
      15     H     0.42205  0.42205  0.00000  0.15590

   Total alpha = 21.00000, Total beta = 21.00000, Total charge = -0.00000
