  ==> Input File <==

--------------------------------------------------------------------------
set {
	reference rhf
	basis cc-pvtz
}

set_num_threads( 4 )
memory 2 gb

molecule MOL {
0 1

H	 -1.088256	 -1.364742	 0.152233
O	 -1.432053	 -0.565244	 -0.200812
C	 -0.727158	 0.534527	 0.310686
C	 0.680222	 0.664433	 -0.252229
H	 -1.306802	 1.408001	 0.044211
H	 -0.690821	 0.490158	 1.397609
C	 1.073045	 2.094322	 -0.611609
H	 1.381270	 0.262676	 0.471895
H	 0.745839	 0.038431	 -1.137929
H	 1.077392	 2.737562	 0.261517
H	 2.068422	 2.127908	 -1.037811
H	 0.388687	 2.519245	 -1.339654

	symmetry c1
}
set optking {
	frozen_dihedral = ("
		8 4 3 2
	")
}

ee = optimize('scf')
oeprop('DIPOLE', 'QUADRUPOLE', 'MULLIKEN_CHARGES')
f=open( 'psi4out.xyz', 'w' )
f.write( "12  " )
f.write( str(ee) + "\n" )
f.write( MOL.save_string_xyz() )
f.close()
--------------------------------------------------------------------------

    Molecular point group: c1
  Charge       = 0
  Multiplicity = 1
  Basis Set: CC-PVTZ
  Basis Set:
  @DF-RHF Final Energy:  -193.18599342839215
    Total Energy =                       -193.1859934283922371
    Molecular point group: c1
  Basis Set: CC-PVTZ
  Basis Set:
  Basis Set: CC-PVTZ
  Basis Set:
  @DF-RHF Final Energy:  -193.18647369386730
    Total Energy =                       -193.1864736938674696
  Basis Set: CC-PVTZ
  Basis Set:
  Basis Set: CC-PVTZ
  Basis Set:
  @DF-RHF Final Energy:  -193.18654115722228
    Total Energy =                       -193.1865411572222797
  Basis Set: CC-PVTZ
  Basis Set:
  Basis Set: CC-PVTZ
  Basis Set:
  @DF-RHF Final Energy:  -193.18654584404553
    Total Energy =                       -193.1865458440458383
  Basis Set: CC-PVTZ
  Basis Set:
  Charge       = 0
  Multiplicity = 1
  Basis Set: CC-PVTZ
  Basis Set:

    Orbital Energies (a.u.)
    -----------------------

    Doubly Occupied:

       1A    -20.546003     2A    -11.265592     3A    -11.216528
       4A    -11.212522     5A     -1.363350     6A     -1.051465
       7A     -0.917907     8A     -0.819636     9A     -0.693257
      10A     -0.631554    11A     -0.609455    12A     -0.585738
      13A     -0.536503    14A     -0.510581    15A     -0.492679
      16A     -0.466791    17A     -0.431482

  @DF-RHF Final Energy:  -193.18654655789510

   => Energetics <=

    Nuclear Repulsion Energy =            131.0217439110305122
    One-Electron Energy =                -521.7144977587502126
    Two-Electron Energy =                 197.5062072898245447
    DFT Exchange-Correlation Energy =       0.0000000000000000
    Empirical Dispersion Energy =           0.0000000000000000
    PCM Polarization Energy =               0.0000000000000000
    EFP Energy =                            0.0000000000000000
    Total Energy =                       -193.1865465578951557
    Molecular point group: c1
  Basis Set: CC-PVTZ
  Basis Set:

  -Total Gradient:
     Atom            X                  Y                   Z
    ------   -----------------  -----------------  -----------------
       1        0.000001622124     0.000008234839     0.000009857148
       2       -0.001296884994     0.002038097404    -0.002675808874
       3        0.001896728660    -0.001731559752     0.004115483636
       4       -0.001060832170    -0.004466446598    -0.003235555508
       5        0.000012556333    -0.000024294272    -0.000012453624
       6       -0.000005764156    -0.000047570672     0.000000742336
       7        0.000038814921     0.000012392010    -0.000022452525
       8        0.000426612149     0.004184255780     0.001809735677
       9       -0.000016209142     0.000012005620     0.000009712380
      10       -0.000003187401    -0.000016285850     0.000014869900
      11       -0.000002627783     0.000029726767     0.000006671852
      12        0.000009171457     0.000001444725    -0.000020802398

  **** Optimization is complete! (in 5 steps) ****
    Final optimized geometry and variables:
    Molecular point group: c1

    Geometry (in Angstrom), charge = 0, multiplicity = 1:

    H           -0.919777245082    -2.003629475206     0.312682143331
    O           -1.316369789419    -1.203082862641     0.020144607353
    C           -0.588560673614    -0.100910294570     0.493960075726
    C            0.820211414782     0.002674757325    -0.102024384432
    H           -1.170746959499     0.763529261298     0.203371761837
    H           -0.546168448142    -0.106276309218     1.579753614820
    C            1.211570064576     1.441870418457    -0.431754051674
    H            1.550348904972    -0.386645757350     0.601403956557
    H            0.859549641872    -0.603482893850    -0.998751029727
    H            1.151687076148     2.075533684942     0.447482216826
    H            2.227339081332     1.495263959806    -0.805181292858
    H            0.555328885763     1.861075271393    -1.186360512541

  Mulliken Charges: (a.u.)
   Center  Symbol    Alpha    Beta     Spin     Total
       1     H     0.39507  0.39507  0.00000  0.20987
       2     O     4.20061  4.20061  0.00000 -0.40123
       3     C     2.96485  2.96485  0.00000  0.07030
       4     C     3.09468  3.09468  0.00000 -0.18935
       5     H     0.46039  0.46039  0.00000  0.07921
       6     H     0.46930  0.46930  0.00000  0.06140
       7     C     3.15130  3.15130  0.00000 -0.30261
       8     H     0.45757  0.45757  0.00000  0.08486
       9     H     0.44933  0.44933  0.00000  0.10134
      10     H     0.45519  0.45519  0.00000  0.08962
      11     H     0.44911  0.44911  0.00000  0.10179
      12     H     0.45260  0.45260  0.00000  0.09481

   Total alpha = 17.00000, Total beta = 17.00000, Total charge =  0.00000
