  ==> Input File <==

--------------------------------------------------------------------------
set {
	reference rhf
	basis cc-pvtz
}

set_num_threads( 4 )
memory 2 gb

molecule MOL {
0 1

H	 -2.516205	 1.967581	 1.518807
O	 -1.833716	 1.381876	 1.247966
C	 -2.302264	 0.528872	 0.237390
C	 -1.175688	 -0.398187	 -0.171891
H	 -3.150150	 -0.052844	 0.593014
H	 -2.638166	 1.105418	 -0.622025
C	 0.196029	 0.106276	 0.266738
H	 -1.201873	 -0.515469	 -1.250677
H	 -1.365975	 -1.378728	 0.252664
C	 1.330220	 -0.826136	 -0.155230
H	 0.359542	 1.097229	 -0.145561
H	 0.212134	 0.218135	 1.348778
C	 2.719700	 -0.407669	 0.328325
H	 1.339388	 -0.911200	 -1.239363
H	 1.119001	 -1.821953	 0.224128
C	 3.241564	 0.893452	 -0.276737
H	 3.418299	 -1.204729	 0.093035
H	 2.711776	 -0.323368	 1.411960
H	 3.254204	 0.841071	 -1.360784
H	 2.634460	 1.745075	 0.005842
H	 4.254264	 1.092401	 0.054971

	symmetry c1
}
set optking {
	frozen_dihedral = ("
		2 3 4 8
	")
}

ee = optimize('scf')
oeprop('DIPOLE', 'QUADRUPOLE', 'MULLIKEN_CHARGES')
f=open( 'psi4out.xyz', 'w' )
f.write( "21  " )
f.write( str(ee) + "\n" )
f.write( MOL.save_string_xyz() )
f.close()
--------------------------------------------------------------------------

    Molecular point group: c1
  Charge       = 0
  Multiplicity = 1
  Basis Set: CC-PVTZ
  Basis Set:
  @DF-RHF Final Energy:  -310.32422770509879
    Total Energy =                       -310.3242277050987923
    Molecular point group: c1
  Basis Set: CC-PVTZ
  Basis Set:
  Basis Set: CC-PVTZ
  Basis Set:
  @DF-RHF Final Energy:  -310.32486802097083
    Total Energy =                       -310.3248680209703139
  Basis Set: CC-PVTZ
  Basis Set:
  Basis Set: CC-PVTZ
  Basis Set:
  @DF-RHF Final Energy:  -310.32600913048401
    Total Energy =                       -310.3260091304839534
  Basis Set: CC-PVTZ
  Basis Set:
  Basis Set: CC-PVTZ
  Basis Set:
  @DF-RHF Final Energy:  -310.32605859700112
    Total Energy =                       -310.3260585970011789
  Basis Set: CC-PVTZ
  Basis Set:
  Basis Set: CC-PVTZ
  Basis Set:
  @DF-RHF Final Energy:  -310.32606431178249
    Total Energy =                       -310.3260643117829432
  Basis Set: CC-PVTZ
  Basis Set:
  Charge       = 0
  Multiplicity = 1
  Basis Set: CC-PVTZ
  Basis Set:

    Orbital Energies (a.u.)
    -----------------------

    Doubly Occupied:

       1A    -20.545921     2A    -11.266680     3A    -11.211082
       4A    -11.207500     5A    -11.205053     6A    -11.201336
       7A    -11.200649     8A     -1.364038     9A     -1.079633
      10A     -1.027428    11A     -0.952196    12A     -0.876111
      13A     -0.800348    14A     -0.772247    15A     -0.698902
      16A     -0.657664    17A     -0.617106    18A     -0.604295
      19A     -0.585805    20A     -0.565748    21A     -0.532486
      22A     -0.523533    23A     -0.498155    24A     -0.493005
      25A     -0.480608    26A     -0.456569    27A     -0.449988
      28A     -0.435921    29A     -0.427485

  @DF-RHF Final Energy:  -310.32606495294448

   => Energetics <=

    Nuclear Repulsion Energy =            318.5578279160729949
    One-Electron Energy =               -1052.2928038462750919
    Two-Electron Energy =                 423.4089109772576194
    DFT Exchange-Correlation Energy =       0.0000000000000000
    Empirical Dispersion Energy =           0.0000000000000000
    PCM Polarization Energy =               0.0000000000000000
    EFP Energy =                            0.0000000000000000
    Total Energy =                       -310.3260649529445345
    Molecular point group: c1
  Basis Set: CC-PVTZ
  Basis Set:

  -Total Gradient:
     Atom            X                  Y                   Z
    ------   -----------------  -----------------  -----------------
       1        0.000004544230     0.000004701876    -0.000018834065
       2        0.001381325615     0.002770576936    -0.002926667063
       3       -0.001125745829    -0.002774448177     0.003781184720
       4       -0.003550671326    -0.004282380314    -0.000422050089
       5       -0.000000915988    -0.000002520461     0.000007794706
       6        0.000000561085     0.000003995020     0.000013812526
       7       -0.000030785246     0.000012174799    -0.000041589682
       8        0.003331128448     0.004274046290    -0.000403527728
       9       -0.000014837086    -0.000001546289    -0.000003082659
      10        0.000012558109    -0.000018695914     0.000021852364
      11       -0.000003850276     0.000024373218     0.000004452077
      12       -0.000005492067    -0.000015891892    -0.000017231283
      13       -0.000005414649     0.000009707724     0.000003523230
      14       -0.000015369564     0.000016959950     0.000007218651
      15        0.000015963562    -0.000016745844    -0.000006885221
      16        0.000005795970     0.000000932230     0.000001501859
      17       -0.000003269062    -0.000005552794     0.000003663030
      18       -0.000002246057     0.000006303807    -0.000000645192
      19       -0.000002486207     0.000001258502    -0.000002587855
      20        0.000007853252    -0.000003305459     0.000001664995
      21        0.000001353084    -0.000003943209    -0.000003567322

  **** Optimization is complete! (in 6 steps) ****
    Final optimized geometry and variables:
    Molecular point group: c1

    Geometry (in Angstrom), charge = 0, multiplicity = 1:

    H           -2.945662827634     1.741245309611     1.249810070677
    O           -2.213097953088     1.198113063027     1.025638130553
    C           -2.579125835425     0.312346797422    -0.001277831454
    C           -1.414944066258    -0.624659408333    -0.355858152124
    H           -3.446238889183    -0.271990136120     0.291905557991
    H           -2.859015276045     0.884829084402    -0.881907956200
    C           -0.033981267507    -0.115632157126     0.062435034886
    H           -1.398735682366    -0.741010496199    -1.434844646621
    H           -1.579094906732    -1.604812821807     0.077727078980
    C            1.080335384280    -1.052887904140    -0.399714156435
    H            0.117600039753     0.877000397657    -0.345592710812
    H            0.004968808478    -0.008974433384     1.139458667747
    C            2.482511112084    -0.654597926965     0.064435937941
    H            1.071235648549    -1.121467499560    -1.485678375518
    H            0.869923652277    -2.054293127291    -0.032842370385
    C            3.001737358151     0.654012759832    -0.526340200140
    H            3.171162091097    -1.452049148529    -0.198433354932
    H            2.494718568552    -0.589257479927     1.149110979172
    H            2.992438849482     0.621985109424    -1.611386662427
    H            2.405655258274     1.503166940908    -0.215348017806
    H            4.022455051854     0.839692963001    -0.211503068598

  Mulliken Charges: (a.u.)
   Center  Symbol    Alpha    Beta     Spin     Total
       1     H     0.39927  0.39927  0.00000  0.20146
       2     O     4.19044  4.19044  0.00000 -0.38089
       3     C     2.96849  2.96849  0.00000  0.06302
       4     C     3.10279  3.10279  0.00000 -0.20559
       5     H     0.46899  0.46899  0.00000  0.06202
       6     H     0.47313  0.47313  0.00000  0.05374
       7     C     3.08594  3.08594  0.00000 -0.17188
       8     H     0.45551  0.45551  0.00000  0.08899
       9     H     0.45251  0.45251  0.00000  0.09497
      10     C     3.09589  3.09589  0.00000 -0.19178
      11     H     0.45084  0.45084  0.00000  0.09831
      12     H     0.44536  0.44536  0.00000  0.10929
      13     C     3.08928  3.08928  0.00000 -0.17856
      14     H     0.45663  0.45663  0.00000  0.08674
      15     H     0.45165  0.45165  0.00000  0.09670
      16     C     3.15274  3.15274  0.00000 -0.30547
      17     H     0.45003  0.45003  0.00000  0.09995
      18     H     0.45477  0.45477  0.00000  0.09047
      19     H     0.45628  0.45628  0.00000  0.08745
      20     H     0.45199  0.45199  0.00000  0.09603
      21     H     0.44748  0.44748  0.00000  0.10503

   Total alpha = 29.00000, Total beta = 29.00000, Total charge = -0.00000
