                              Psi4 1.0.54 Driver

  ==> Input File <==

--------------------------------------------------------------------------
set {
	reference rhf
	basis cc-pvtz
}

set_num_threads( 4 )
memory 2 gb

molecule MOL {
0 1

H	 3.794331	 0.445213	 0.657728
N	 2.978615	 -0.129233	 0.673092
C	 1.860978	 0.530248	 0.016256
H	 2.768534	 -0.316814	 1.631229
C	 0.644130	 -0.381765	 -0.031064
H	 2.167008	 0.771115	 -0.996283
H	 1.585046	 1.472239	 0.492144
C	 -0.678115	 0.376691	 0.025731
H	 0.693998	 -0.977147	 -0.936845
H	 0.693309	 -1.082142	 0.800523
C	 -1.900706	 -0.535531	 -0.022488
H	 -0.725296	 1.079516	 -0.802982
H	 -0.715474	 0.974884	 0.933278
C	 -3.220513	 0.226854	 0.028039
H	 -1.865036	 -1.134397	 -0.928236
H	 -1.857948	 -1.236381	 0.806820
H	 -3.309098	 0.911849	 -0.808725
H	 -4.066838	 -0.449485	 -0.008086
H	 -3.301685	 0.809374	 0.939860

	symmetry c1
}
set optking {
	frozen_dihedral = ("
		6 3 5 9
	")
}

ee,wfn = optimize('scf', return_wfn=True)
oeprop( wfn, 'DIPOLE', 'QUADRUPOLE', 'MULLIKEN_CHARGES')
f=open( 'psi4out.xyz', 'w' )
f.write( "19  " )
f.write( str(ee) + "\n" )
f.write( MOL.save_string_xyz() )
f.close()
--------------------------------------------------------------------------

    Molecular point group: c1
  Charge       = 0
  Multiplicity = 1
  Basis Set: CC-PVTZ
  Basis Set:
  @DF-RHF Final Energy:  -251.44456961791073
    Total Energy =                       -251.4445696179105880
    Molecular point group: c1
  Basis Set: CC-PVTZ
  Basis Set:
  Basis Set: CC-PVTZ
  Basis Set:
  @DF-RHF Final Energy:  -251.44489895477662
    Total Energy =                       -251.4448989547764768
  Basis Set: CC-PVTZ
  Basis Set:
  Basis Set: CC-PVTZ
  Basis Set:
  @DF-RHF Final Energy:  -251.44497481504379
    Total Energy =                       -251.4449748150436790
  Basis Set: CC-PVTZ
  Basis Set:
  Basis Set: CC-PVTZ
  Basis Set:
  @DF-RHF Final Energy:  -251.44497626290257
    Total Energy =                       -251.4449762629026282
  Basis Set: CC-PVTZ
  Basis Set:
  Charge       = 0
  Multiplicity = 1
  Basis Set: CC-PVTZ
  Basis Set:

    Orbital Energies (a.u.)
    -----------------------

    Doubly Occupied:

       1A    -15.526041     2A    -11.238203     3A    -11.211798
       4A    -11.210349     5A    -11.207876     6A    -11.205617
       7A     -1.177084     8A     -1.073962     9A     -0.998584
      10A     -0.900573    11A     -0.814122    12A     -0.789035
      13A     -0.669616    14A     -0.637697    15A     -0.620159
      16A     -0.584489    17A     -0.569874    18A     -0.549196
      19A     -0.527766    20A     -0.502883    21A     -0.482461
      22A     -0.464883    23A     -0.461354    24A     -0.447487
      25A     -0.383237

  @DF-RHF Final Energy:  -251.44497654565180

   => Energetics <=

    Nuclear Repulsion Energy =            246.0659366431384569
    One-Electron Energy =                -826.5131334334689654
    Two-Electron Energy =                 329.0022202446788810
    DFT Exchange-Correlation Energy =       0.0000000000000000
    Empirical Dispersion Energy =           0.0000000000000000
    PCM Polarization Energy =               0.0000000000000000
    EFP Energy =                            0.0000000000000000
    Total Energy =                       -251.4449765456516275
    Molecular point group: c1
  Basis Set: CC-PVTZ
  Basis Set:

  -Total Gradient:
     Atom            X                  Y                   Z
    ------   -----------------  -----------------  -----------------
       1        0.000001450572    -0.000008929776     0.000004653408
       2       -0.000014367062     0.000033409865    -0.000007434908
       3       -0.004034216038     0.005406762126    -0.000584338748
       4       -0.000004791132     0.000005579584    -0.000016662793
       5        0.003631303549    -0.004931373157     0.002926123849
       6        0.002837923392    -0.003785958212     0.000033982983
       7       -0.000005217978    -0.000025628986    -0.000003824192
       8        0.000007395560    -0.000002864777     0.000031027900
       9       -0.002401919732     0.003292532410    -0.002376916445
      10        0.000000045570     0.000015616570     0.000002589785
      11       -0.000005231921     0.000005309241    -0.000013354597
      12        0.000004905588    -0.000001373542     0.000000403080
      13       -0.000008812877     0.000004852576     0.000005032557
      14       -0.000003816733    -0.000005550952     0.000004475511
      15        0.000000185053    -0.000007878045    -0.000003239296
      16       -0.000003142751     0.000004478796    -0.000000958930
      17        0.000001085860    -0.000001524487    -0.000001557807
      18       -0.000003631621     0.000001101532     0.000000959328
      19        0.000000852696     0.000001439234    -0.000000960686

  **** Optimization is complete! (in 5 steps) ****
    Final optimized geometry and variables:
    Molecular point group: c1

    Geometry (in Angstrom), charge = 0, multiplicity = 1:

    H            3.843349003206     0.393339489538     0.495405523548
    N            3.018713128358    -0.165495477361     0.555656315348
    C            1.884737814653     0.502836555679    -0.069239645451
    H            2.845148871966    -0.332297714274     1.524814542695
    C            0.660533507229    -0.415352863206    -0.091444062750
    H            2.186943895293     0.723465915877    -1.086382891708
    H            1.631940682065     1.445473806974     0.414408438803
    C           -0.659901030972     0.352783420453    -0.096724748227
    H            0.696291917894    -1.034277200977    -0.981591466499
    H            0.690933355227    -1.080193222551     0.765881119097
    C           -1.885642990282    -0.550229414972    -0.197434734178
    H           -0.665286896375     1.054982693045    -0.928016869884
    H           -0.731659395677     0.954257471367     0.806630613821
    C           -3.201593521016     0.220497844817    -0.190758196326
    H           -1.820603951771    -1.143472130241    -1.105329359798
    H           -1.878283017808    -1.257227449536     0.627852074272
    H           -3.254071180193     0.912286071803    -1.025008252948
    H           -4.050374146903    -0.449796880045    -0.263853463550
    H           -3.313314147676     0.796783508065     0.721771630047

  Mulliken Charges: (a.u.)
   Center  Symbol    Alpha    Beta     Spin     Total
       1     H     0.42959  0.42959  0.00000  0.14083
       2     N     3.69091  3.69091  0.00000 -0.38181
       3     C     3.03094  3.03094  0.00000 -0.06188
       4     H     0.43078  0.43078  0.00000  0.13844
       5     C     3.08145  3.08145  0.00000 -0.16291
       6     H     0.45585  0.45585  0.00000  0.08830
       7     H     0.46591  0.46591  0.00000  0.06818
       8     C     3.09305  3.09305  0.00000 -0.18611
       9     H     0.45247  0.45247  0.00000  0.09507
      10     H     0.45468  0.45468  0.00000  0.09065
      11     C     3.08455  3.08455  0.00000 -0.16909
      12     H     0.45530  0.45530  0.00000  0.08939
      13     H     0.45676  0.45676  0.00000  0.08648
      14     C     3.14951  3.14951  0.00000 -0.29901
      15     H     0.45407  0.45407  0.00000  0.09185
      16     H     0.45462  0.45462  0.00000  0.09075
      17     H     0.45539  0.45539  0.00000  0.08922
      18     H     0.44855  0.44855  0.00000  0.10290
      19     H     0.45563  0.45563  0.00000  0.08874

   Total alpha = 25.00000, Total beta = 25.00000, Total charge = -0.00000

*** Psi4 exiting successfully. Buy a developer a beer!
