  ==> Input File <==

--------------------------------------------------------------------------
set {
	reference rhf
	basis 6-31G*
}

set_num_threads( 1 )
memory 2 gb

molecule MOL {
0 1

H	 -2.153054	 -2.250733	 0.000000
O	 -2.462445	 -1.355403	 0.000000
C	 -1.434260	 -0.483044	 0.000000
C	 -1.747402	 0.872187	 0.000000
C	 -0.112826	 -0.887672	 0.000000
H	 -2.781042	 1.162947	 0.000000
C	 -0.737782	 1.812486	 0.000000
H	 0.142965	 -1.932242	 0.000000
C	 0.894804	 0.073633	 0.000000
H	 -0.988012	 2.857452	 0.000000
C	 0.595063	 1.425424	 0.000000
C	 2.274807	 -0.357748	 0.000000
H	 1.382498	 2.154482	 0.000000
N	 3.359623	 -0.695495	 -0.002249

	symmetry c1
}
set optking {
	frozen_dihedral = ("
		5 3 2 1
	")
}

ee = energy('scf')
oeprop('DIPOLE', 'QUADRUPOLE', 'MULLIKEN_CHARGES')
f=open( 'psi4out.xyz', 'w' )
f.write( "14  " )
f.write( str(ee) + "\n" )
f.write( MOL.save_string_xyz() )
f.close()
--------------------------------------------------------------------------

    Molecular point group: c1

    Geometry (in Angstrom), charge = 0, multiplicity = 1:

       Center              X                  Y                   Z               Mass
    ------------   -----------------  -----------------  -----------------  -----------------
           H         -2.153190521108    -2.251170355306     0.000264563819     1.007825032070
           O         -2.462581521108    -1.355840355306     0.000264563819    15.994914619560
           C         -1.434396521108    -0.483481355306     0.000264563819    12.000000000000
           C         -1.747538521108     0.871749644694     0.000264563819    12.000000000000
           C         -0.112962521108    -0.888109355306     0.000264563819    12.000000000000
           H         -2.781178521108     1.162509644694     0.000264563819     1.007825032070
           C         -0.737918521108     1.812048644694     0.000264563819    12.000000000000
           H          0.142828478892    -1.932679355306     0.000264563819     1.007825032070
           C          0.894667478892     0.073195644694     0.000264563819    12.000000000000
           H         -0.988148521108     2.857014644694     0.000264563819     1.007825032070
           C          0.594926478892     1.424986644694     0.000264563819    12.000000000000
           C          2.274670478892    -0.358185355306     0.000264563819    12.000000000000
           H          1.382361478892     2.154044644694     0.000264563819     1.007825032070
           N          3.359486478892    -0.695932355306    -0.001984436181    14.003074004780

  Charge       = 0
  Multiplicity = 1
  Basis Set: 6-31G*
  Basis Set:

    Orbital Energies (a.u.)
    -----------------------

    Doubly Occupied:

       1A    -20.613357     2A    -15.576094     3A    -11.326474
       4A    -11.295200     5A    -11.277354     6A    -11.263922
       7A    -11.262493     8A    -11.259240     9A    -11.253928
      10A     -1.433723    11A     -1.233858    12A     -1.182278
      13A     -1.063261    14A     -1.039158    15A     -0.896234
      16A     -0.867782    17A     -0.778131    18A     -0.726546
      19A     -0.700216    20A     -0.664103    21A     -0.627033
      22A     -0.613997    23A     -0.592983    24A     -0.562274
      25A     -0.550730    26A     -0.538997    27A     -0.527031
      28A     -0.473335    29A     -0.473314    30A     -0.363600
      31A     -0.336670

  @DF-RHF Final Energy:  -397.29196255028194

   => Energetics <=

    Nuclear Repulsion Energy =            379.4038831205360793
    One-Electron Energy =               -1290.6450558073640877
    Two-Electron Energy =                 513.9492101365464123
    DFT Exchange-Correlation Energy =       0.0000000000000000
    Empirical Dispersion Energy =           0.0000000000000000
    PCM Polarization Energy =               0.0000000000000000
    EFP Energy =                            0.0000000000000000
    Total Energy =                       -397.2919625502815961

  Mulliken Charges: (a.u.)
   Center  Symbol    Alpha    Beta     Spin     Total
       1     H     0.26830  0.26830  0.00000  0.46340
       2     O     4.37595  4.37595  0.00000 -0.75191
       3     C     2.79152  2.79152  0.00000  0.41695
       4     C     3.11408  3.11408  0.00000 -0.22817
       5     C     3.13449  3.13449  0.00000 -0.26898
       6     H     0.38292  0.38292  0.00000  0.23416
       7     C     3.09575  3.09575  0.00000 -0.19150
       8     H     0.38535  0.38535  0.00000  0.22930
       9     C     2.99112  2.99112  0.00000  0.01776
      10     H     0.38856  0.38856  0.00000  0.22287
      11     C     3.09889  3.09889  0.00000 -0.19778
      12     C     2.86663  2.86663  0.00000  0.26674
      13     H     0.38125  0.38125  0.00000  0.23750
      14     N     3.72517  3.72517  0.00000 -0.45034

   Total alpha = 31.00000, Total beta = 31.00000, Total charge = -0.00000
