  ==> Input File <==

--------------------------------------------------------------------------
set {
	reference rhf
	basis 6-31G*
}

set_num_threads( 1 )
memory 2 gb

molecule MOL {
0 1

O	 0.074228	 1.262779	 -0.000085
C	 0.028650	 0.075053	 -0.000277
C	 -1.233602	 -0.752807	 0.000328
O	 1.109162	 -0.694619	 -0.000298
C	 -2.501530	 0.091881	 0.000126
H	 -1.193807	 -1.406641	 -0.865785
H	 -1.193516	 -1.405779	 0.867015
H	 -2.545121	 0.729328	 -0.874513
H	 -3.377167	 -0.548497	 0.000561
H	 -2.544818	 0.730135	 0.874258
C	 2.320698	 -0.101402	 0.430819
H	 2.581707	 0.733230	 -0.203749
H	 3.069672	 -0.874533	 0.358915
H	 2.233442	 0.241936	 1.451592

	symmetry c1
}
set optking {
	frozen_dihedral = ("
		4 2 3 6
	")
}

ee = energy('scf')
oeprop('DIPOLE', 'QUADRUPOLE', 'MULLIKEN_CHARGES')
f=open( 'psi4out.xyz', 'w' )
f.write( "14  " )
f.write( str(ee) + "\n" )
f.write( MOL.save_string_xyz() )
f.close()
--------------------------------------------------------------------------

    Molecular point group: c1

    Geometry (in Angstrom), charge = 0, multiplicity = 1:

       Center              X                  Y                   Z               Mass
    ------------   -----------------  -----------------  -----------------  -----------------
           O          0.082110022906     1.273846744495    -0.077160725664    15.994914619560
           C          0.036532022906     0.086120744495    -0.077352725664    12.000000000000
           C         -1.225719977094    -0.741739255505    -0.076747725664    12.000000000000
           O          1.117044022906    -0.683551255505    -0.077373725664    15.994914619560
           C         -2.493647977094     0.102948744495    -0.076949725664    12.000000000000
           H         -1.185924977094    -1.395573255505    -0.942860725664     1.007825032070
           H         -1.185633977094    -1.394711255505     0.789939274336     1.007825032070
           H         -2.537238977094     0.740395744495    -0.951588725664     1.007825032070
           H         -3.369284977094    -0.537429255505    -0.076514725664     1.007825032070
           H         -2.536935977094     0.741202744495     0.797182274336     1.007825032070
           C          2.328580022906    -0.090334255505     0.353743274336    12.000000000000
           H          2.589589022906     0.744297744495    -0.280824725664     1.007825032070
           H          3.077554022906    -0.863465255505     0.281839274336     1.007825032070
           H          2.241324022906     0.253003744495     1.374516274336     1.007825032070

  Charge       = 0
  Multiplicity = 1
  Basis Set: 6-31G*
  Basis Set:

    Orbital Energies (a.u.)
    -----------------------

    Doubly Occupied:

       1A    -20.602363     2A    -20.547118     3A    -11.373142
       4A    -11.282525     5A    -11.238824     6A    -11.216642
       7A     -1.469583     8A     -1.363942     9A     -1.064209
      10A     -0.980447    11A     -0.879193    12A     -0.768923
      13A     -0.700763    14A     -0.682183    15A     -0.671746
      16A     -0.621242    17A     -0.603777    18A     -0.546251
      19A     -0.537831    20A     -0.521986    21A     -0.513152
      22A     -0.496274    23A     -0.456718    24A     -0.438536

  @DF-RHF Final Energy:  -305.86969928947178

   => Energetics <=

    Nuclear Repulsion Energy =            247.1168049210707522
    One-Electron Energy =                -906.8183249308899576
    Two-Electron Energy =                 353.8318207203475367
    DFT Exchange-Correlation Energy =       0.0000000000000000
    Empirical Dispersion Energy =           0.0000000000000000
    PCM Polarization Energy =               0.0000000000000000
    EFP Energy =                            0.0000000000000000
    Total Energy =                       -305.8696992894716686

  Mulliken Charges: (a.u.)
   Center  Symbol    Alpha    Beta     Spin     Total
       1     O     4.28294  4.28294  0.00000 -0.56588
       2     C     2.60809  2.60809  0.00000  0.78382
       3     C     3.20560  3.20560  0.00000 -0.41121
       4     O     4.30653  4.30653  0.00000 -0.61306
       5     C     3.23915  3.23915  0.00000 -0.47830
       6     H     0.39948  0.39948  0.00000  0.20103
       7     H     0.40135  0.40135  0.00000  0.19730
       8     H     0.40947  0.40947  0.00000  0.18106
       9     H     0.41796  0.41796  0.00000  0.16409
      10     H     0.41026  0.41026  0.00000  0.17947
      11     C     3.09344  3.09344  0.00000 -0.18688
      12     H     0.40458  0.40458  0.00000  0.19084
      13     H     0.40786  0.40786  0.00000  0.18428
      14     H     0.41328  0.41328  0.00000  0.17344

   Total alpha = 24.00000, Total beta = 24.00000, Total charge =  0.00000
