  ==> Input File <==

--------------------------------------------------------------------------
set {
	reference rhf
	basis 6-31G*
}

set_num_threads( 4 )
memory 2 gb

molecule MOL {
0 1

O	 -0.473126	 -0.172351	 2.190291
C	 -0.097293	 -0.639225	 1.163392
C	 1.106388	 -1.536658	 1.002043
O	 -0.698257	 -0.426125	 0.001050
C	 1.829416	 -1.808336	 2.315203
H	 1.765828	 -1.068697	 0.277199
H	 0.765030	 -2.458523	 0.540627
H	 2.182533	 -0.887612	 2.763466
H	 2.683368	 -2.455338	 2.144996
H	 1.172770	 -2.290321	 3.029227
C	 -1.853104	 0.406779	 0.000512
C	 -3.066105	 -0.499277	 -0.000959
H	 -1.828410	 1.043074	 -0.873618
H	 -1.829857	 1.042383	 0.875188
H	 -3.071820	 -1.133106	 -0.880383
H	 -3.972708	 0.097145	 -0.001528
H	 -3.073405	 -1.133813	 0.877999

	symmetry c1
}
set optking {
	frozen_dihedral = ("
		2 4 11 13
	")
}

ee = optimize('scf')
oeprop('DIPOLE', 'QUADRUPOLE', 'MULLIKEN_CHARGES')
f=open( 'psi4out.xyz', 'w' )
f.write( "17  " )
f.write( str(ee) + "\n" )
f.write( MOL.save_string_xyz() )
f.close()
--------------------------------------------------------------------------

    Molecular point group: c1
  Charge       = 0
  Multiplicity = 1
  Basis Set: 6-31G*
  Basis Set:
  @DF-RHF Final Energy:  -344.90945487979786
    Total Energy =                       -344.9094548797976358
    Molecular point group: c1
  Basis Set: 6-31G*
  Basis Set:
  Basis Set: 6-31G*
  Basis Set:
  @DF-RHF Final Energy:  -344.91019357628335
    Total Energy =                       -344.9101935762831772
  Basis Set: 6-31G*
  Basis Set:
  Basis Set: 6-31G*
  Basis Set:
  @DF-RHF Final Energy:  -344.91062824157655
    Total Energy =                       -344.9106282415767168
  Basis Set: 6-31G*
  Basis Set:
  Basis Set: 6-31G*
  Basis Set:
  @DF-RHF Final Energy:  -344.91070311618347
    Total Energy =                       -344.9107031161832424
  Basis Set: 6-31G*
  Basis Set:
  Basis Set: 6-31G*
  Basis Set:
  @DF-RHF Final Energy:  -344.91070503707635
    Total Energy =                       -344.9107050370764682
  Basis Set: 6-31G*
  Basis Set:
  Charge       = 0
  Multiplicity = 1
  Basis Set: 6-31G*
  Basis Set:

    Orbital Energies (a.u.)
    -----------------------

    Doubly Occupied:

       1A    -20.600169     2A    -20.544271     3A    -11.372802
       4A    -11.283648     5A    -11.237277     6A    -11.220127
       7A    -11.215596     8A     -1.465793     9A     -1.362332
      10A     -1.069118    11A     -1.029233    12A     -0.914650
      13A     -0.852436    14A     -0.763400    15A     -0.702395
      16A     -0.680072    17A     -0.659357    18A     -0.622650
      19A     -0.605478    20A     -0.568622    21A     -0.550971
      22A     -0.532333    23A     -0.520627    24A     -0.514505
      25A     -0.496031    26A     -0.492312    27A     -0.448313
      28A     -0.436958

  @DF-RHF Final Energy:  -344.91070530093901

   => Energetics <=

    Nuclear Repulsion Energy =            317.0513014126151461
    One-Electron Energy =               -1098.4010563554716100
    Two-Electron Energy =                 436.4390496419176202
    DFT Exchange-Correlation Energy =       0.0000000000000000
    Empirical Dispersion Energy =           0.0000000000000000
    PCM Polarization Energy =               0.0000000000000000
    EFP Energy =                            0.0000000000000000
    Total Energy =                       -344.9107053009387869
    Molecular point group: c1
  Basis Set: 6-31G*
  Basis Set:

  -Total Gradient:
     Atom            X                  Y                   Z
    ------   -----------------  -----------------  -----------------
       1       -0.000017302204     0.000008592683    -0.000023834767
       2        0.000763689242     0.001039811150    -0.000206694672
       3        0.000007307169     0.000009350026     0.000012341173
       4       -0.000959759914    -0.001337614935     0.000459236366
       5        0.000010722255    -0.000008046183    -0.000004679245
       6        0.000001212843    -0.000006928327    -0.000001560793
       7        0.000000240327    -0.000001582934     0.000004908753
       8        0.000002019990     0.000000234258     0.000002456625
       9        0.000003331340    -0.000001627217     0.000004681705
      10       -0.000001574712     0.000003316714    -0.000007266212
      11       -0.000521899596    -0.000740468622    -0.001013301693
      12        0.000026723190    -0.000010220140     0.000012225097
      13        0.000714018989     0.001036491543     0.000772845720
      14       -0.000006788371    -0.000002043515    -0.000008357872
      15       -0.000002337834     0.000005666883     0.000005274527
      16       -0.000018947691     0.000006434268    -0.000003438942
      17       -0.000000655025    -0.000001365652    -0.000004835772

  **** Optimization is complete! (in 6 steps) ****
    Final optimized geometry and variables:
    Molecular point group: c1

    Geometry (in Angstrom), charge = 0, multiplicity = 1:

    O            0.009830358881     0.450257489238     1.264481467039
    C            0.386751888411     0.015646383426     0.223925773815
    C            1.611043962057    -0.848612597590     0.037135785665
    O           -0.223934297901     0.228831444688    -0.934654918171
    C            2.346326677570    -1.134813827228     1.340360866586
    H            2.255627852449    -0.347476667535    -0.678784808238
    H            1.289605426246    -1.766696648890    -0.445467111469
    H            2.678934261521    -0.217148907160     1.809978988298
    H            3.215017580883    -1.756319011613     1.150742043699
    H            1.704938045295    -1.650381797232     2.044769816966
    C           -1.384779294928     1.055730672453    -0.965080669021
    C           -2.640994387152     0.206667304798    -0.986260543642
    H           -1.289140048603     1.647762362985    -1.864632589019
    H           -1.373554482715     1.716340703146    -0.113025098544
    H           -2.629107005312    -0.477278630455    -1.827544514956
    H           -3.517370263386     0.841604389175    -1.072450420495
    H           -2.727491653216    -0.369176582242    -0.071749940797

  Mulliken Charges: (a.u.)
   Center  Symbol    Alpha    Beta     Spin     Total
       1     O     4.28695  4.28695  0.00000 -0.57391
       2     C     2.60563  2.60563  0.00000  0.78873
       3     C     3.20531  3.20531  0.00000 -0.41061
       4     O     4.31425  4.31425  0.00000 -0.62850
       5     C     3.23877  3.23877  0.00000 -0.47754
       6     H     0.40062  0.40062  0.00000  0.19876
       7     H     0.40068  0.40068  0.00000  0.19864
       8     H     0.40995  0.40995  0.00000  0.18010
       9     H     0.41828  0.41828  0.00000  0.16344
      10     H     0.41023  0.41023  0.00000  0.17954
      11     C     3.01045  3.01045  0.00000 -0.02089
      12     C     3.25012  3.25012  0.00000 -0.50024
      13     H     0.41146  0.41146  0.00000  0.17708
      14     H     0.39792  0.39792  0.00000  0.20416
      15     H     0.41318  0.41318  0.00000  0.17365
      16     H     0.41764  0.41764  0.00000  0.16472
      17     H     0.40856  0.40856  0.00000  0.18287

   Total alpha = 28.00000, Total beta = 28.00000, Total charge = -0.00000
