                              Psi4 1.0.54 Driver

  ==> Input File <==

--------------------------------------------------------------------------
set {
	reference rhf
	basis cc-pvtz
}

set_num_threads( 4 )
memory 2 gb

molecule MOL {
0 1

H	 -1.752255	 -2.214757	 -0.011934
C	 -1.343875	 -1.221621	 -0.018175
N	 -0.058823	 -1.097637	 -0.261684
C	 -2.148182	 -0.124238	 0.219738
C	 0.449003	 0.119240	 -0.273389
H	 -3.197011	 -0.237573	 0.417080
N	 -1.655117	 1.094228	 0.209510
C	 -0.370341	 1.215443	 -0.035096
C	 1.924010	 0.265861	 -0.538102
H	 0.033191	 2.210439	 -0.046808
C	 2.783670	 -0.226448	 0.627259
H	 2.165425	 -0.302370	 -1.428380
H	 2.149845	 1.304568	 -0.748578
H	 3.836226	 -0.136786	 0.386383
H	 2.571569	 -1.265009	 0.844935
H	 2.593751	 0.352425	 1.524133

	symmetry c1
}
ee,wfn = energy('scf', return_wfn=True)
oeprop( wfn, 'DIPOLE', 'QUADRUPOLE', 'MULLIKEN_CHARGES')
oeprop( wfn, 'GRID_ESP')
f=open( 'psi4out.xyz', 'w' )
f.write( "16  " )
f.write( str(ee) + "\n" )
f.write( MOL.save_string_xyz() )
f.close()
--------------------------------------------------------------------------

    Molecular point group: c1

    Geometry (in Angstrom), charge = 0, multiplicity = 1:

       Center              X                  Y                   Z               Mass
    ------------   -----------------  -----------------  -----------------  -----------------
           H         -1.752231574245    -2.214754988257    -0.011937565781     1.007825032070
           C         -1.343851574245    -1.221618988257    -0.018178565781    12.000000000000
           N         -0.058799574245    -1.097634988257    -0.261687565781    14.003074004780
           C         -2.148158574245    -0.124235988257     0.219734434219    12.000000000000
           C          0.449026425755     0.119242011743    -0.273392565781    12.000000000000
           H         -3.196987574245    -0.237570988257     0.417076434219     1.007825032070
           N         -1.655093574245     1.094230011743     0.209506434219    14.003074004780
           C         -0.370317574245     1.215445011743    -0.035099565781    12.000000000000
           C          1.924033425755     0.265863011743    -0.538105565781    12.000000000000
           H          0.033214425755     2.210441011743    -0.046811565781     1.007825032070
           C          2.783693425755    -0.226445988257     0.627255434219    12.000000000000
           H          2.165448425755    -0.302367988257    -1.428383565781     1.007825032070
           H          2.149868425755     1.304570011743    -0.748581565781     1.007825032070
           H          3.836249425755    -0.136783988257     0.386379434219     1.007825032070
           H          2.571592425755    -1.265006988257     0.844931434219     1.007825032070
           H          2.593774425755     0.352427011743     1.524129434219     1.007825032070

  Charge       = 0
  Multiplicity = 1
  Basis Set: CC-PVTZ
  Basis Set:

    Orbital Energies (a.u.)
    -----------------------

    Doubly Occupied:

       1A    -15.580651     2A    -15.576257     3A    -11.278266
       4A    -11.272894     5A    -11.268361     6A    -11.268231
       7A    -11.231571     8A    -11.216643     9A     -1.316226
      10A     -1.224302    11A     -1.086194    12A     -1.015293
      13A     -0.906932    14A     -0.895312    15A     -0.829413
      16A     -0.719425    17A     -0.712831    18A     -0.660032
      19A     -0.614702    20A     -0.604251    21A     -0.583437
      22A     -0.563055    23A     -0.524063    24A     -0.506991
      25A     -0.501035    26A     -0.489819    27A     -0.433135
      28A     -0.397812    29A     -0.347018

  @DF-RHF Final Energy:  -340.87238284854612

   => Energetics <=

    Nuclear Repulsion Energy =            350.5737824277286450
    One-Electron Energy =               -1155.6440326000431469
    Two-Electron Energy =                 464.1978673237680368
    DFT Exchange-Correlation Energy =       0.0000000000000000
    Empirical Dispersion Energy =           0.0000000000000000
    PCM Polarization Energy =               0.0000000000000000
    EFP Energy =                            0.0000000000000000
    Total Energy =                       -340.8723828485464082

  Mulliken Charges: (a.u.)
   Center  Symbol    Alpha    Beta     Spin     Total
       1     H     0.41376  0.41376  0.00000  0.17248
       2     C     3.04389  3.04389  0.00000 -0.08777
       3     N     3.59788  3.59788  0.00000 -0.19577
       4     C     3.04747  3.04747  0.00000 -0.09494
       5     C     2.93751  2.93751  0.00000  0.12498
       6     H     0.41369  0.41369  0.00000  0.17262
       7     N     3.58672  3.58672  0.00000 -0.17343
       8     C     3.07847  3.07847  0.00000 -0.15695
       9     C     3.07754  3.07754  0.00000 -0.15509
      10     H     0.41570  0.41570  0.00000  0.16860
      11     C     3.14453  3.14453  0.00000 -0.28906
      12     H     0.44489  0.44489  0.00000  0.11022
      13     H     0.44946  0.44946  0.00000  0.10108
      14     H     0.44951  0.44951  0.00000  0.10099
      15     H     0.44524  0.44524  0.00000  0.10953
      16     H     0.45375  0.45375  0.00000  0.09251

   Total alpha = 29.00000, Total beta = 29.00000, Total charge = -0.00000

*** Psi4 exiting successfully. Buy a developer a beer!
