  ==> Input File <==

--------------------------------------------------------------------------
set {
	reference rhf
	basis cc-pvtz
}

set_num_threads( 4 )
memory 2 gb

molecule MOL {
0 1

H	 -1.752232	 -2.214755	 -0.011938
C	 -1.343852	 -1.221619	 -0.018179
N	 -0.058800	 -1.097635	 -0.261688
C	 -2.148159	 -0.124236	 0.219734
C	 0.449026	 0.119242	 -0.273393
H	 -3.196988	 -0.237571	 0.417076
N	 -1.655094	 1.094230	 0.209506
C	 -0.370318	 1.215445	 -0.035100
C	 1.924033	 0.265863	 -0.538106
H	 0.033214	 2.210441	 -0.046812
C	 2.784167	 -0.437891	 0.512776
H	 2.135074	 -0.152820	 -1.514798
H	 2.179216	 1.318263	 -0.577467
H	 3.835526	 -0.339358	 0.270146
H	 2.542815	 -1.491737	 0.558999
H	 2.625016	 -0.011283	 1.496759

	symmetry c1
}
set optking {
	frozen_dihedral = ("
		12 9 5 3
	")
}

ee = optimize('scf')
oeprop('DIPOLE', 'QUADRUPOLE', 'MULLIKEN_CHARGES')
f=open( 'psi4out.xyz', 'w' )
f.write( "16  " )
f.write( str(ee) + "\n" )
f.write( MOL.save_string_xyz() )
f.close()
--------------------------------------------------------------------------

    Molecular point group: c1
  Charge       = 0
  Multiplicity = 1
  Basis Set: CC-PVTZ
  Basis Set:
  @DF-RHF Final Energy:  -340.87226898086715
    Total Energy =                       -340.8722689808669770
    Molecular point group: c1
  Basis Set: CC-PVTZ
  Basis Set:
  Basis Set: CC-PVTZ
  Basis Set:
  @DF-RHF Final Energy:  -340.87228425380067
    Total Energy =                       -340.8722842538004443
  Basis Set: CC-PVTZ
  Basis Set:
  Basis Set: CC-PVTZ
  Basis Set:
  @DF-RHF Final Energy:  -340.87228777492140
    Total Energy =                       -340.8722877749216309
  Basis Set: CC-PVTZ
  Basis Set:
  Charge       = 0
  Multiplicity = 1
  Basis Set: CC-PVTZ
  Basis Set:

    Orbital Energies (a.u.)
    -----------------------

    Doubly Occupied:

       1A    -15.580708     2A    -15.576138     3A    -11.278381
       4A    -11.273025     5A    -11.268262     6A    -11.268216
       7A    -11.231794     8A    -11.215190     9A     -1.316334
      10A     -1.224373    11A     -1.085941    12A     -1.015129
      13A     -0.907949    14A     -0.894443    15A     -0.828764
      16A     -0.719768    17A     -0.712407    18A     -0.659951
      19A     -0.617113    20A     -0.603663    21A     -0.581103
      22A     -0.562678    23A     -0.524059    24A     -0.506247
      25A     -0.500543    26A     -0.489975    27A     -0.433193
      28A     -0.397727    29A     -0.347141

  @DF-RHF Final Energy:  -340.87229000620221

   => Energetics <=

    Nuclear Repulsion Energy =            350.5677066522289351
    One-Electron Energy =               -1155.6395607108197510
    Two-Electron Energy =                 464.1995640523887801
    DFT Exchange-Correlation Energy =       0.0000000000000000
    Empirical Dispersion Energy =           0.0000000000000000
    PCM Polarization Energy =               0.0000000000000000
    EFP Energy =                            0.0000000000000000
    Total Energy =                       -340.8722900062020358
    Molecular point group: c1
  Basis Set: CC-PVTZ
  Basis Set:

  -Total Gradient:
     Atom            X                  Y                   Z
    ------   -----------------  -----------------  -----------------
       1        0.000005675682    -0.000001676934     0.000000156448
       2       -0.000026218953     0.000011572857     0.000020155104
       3        0.000099366742    -0.000022601460     0.000483523108
       4        0.000011178750    -0.000043139140    -0.000001479907
       5       -0.000162154733     0.000116510570    -0.000795212828
       6        0.000001327959     0.000004595056    -0.000008108663
       7        0.000048034656     0.000026700141    -0.000003372633
       8       -0.000029766452     0.000014015322     0.000014290658
       9        0.000150188899    -0.000600789152     0.000524022990
      10        0.000002312430     0.000001995251     0.000004642152
      11        0.000018036272    -0.000050822594     0.000022277008
      12       -0.000102263866     0.000504925979    -0.000226079782
      13       -0.000003115619     0.000008101358    -0.000012931790
      14       -0.000007850563     0.000006517231    -0.000008655972
      15        0.000001990525     0.000012225756     0.000000677426
      16       -0.000006741727     0.000011869759    -0.000013903319

  **** Optimization is complete! (in 4 steps) ****
    Final optimized geometry and variables:
    Molecular point group: c1

    Geometry (in Angstrom), charge = 0, multiplicity = 1:

    H           -1.760776461455    -2.182542935424     0.000143533083
    C           -1.349603689595    -1.190599856181    -0.004953181281
    N           -0.063169438398    -1.070599525686    -0.241650845109
    C           -2.151831962459    -0.090840626943     0.228476078613
    C            0.448668344651     0.144638841997    -0.252019566698
    H           -3.201943788059    -0.200856570912     0.420483709993
    N           -1.654535933466     1.125714282007     0.222738019901
    C           -0.367916147823     1.242777754733    -0.014697287502
    C            1.923837279402     0.289958600489    -0.520333485882
    H            0.039296345573     2.236153323293    -0.019990933788
    C            2.793818199645    -0.404588171691     0.526838979097
    H            2.132733627350    -0.126661990415    -1.499486307048
    H            2.174180475303     1.343177892843    -0.567573663415
    H            3.842899802486    -0.294883909979     0.279390645505
    H            2.563012448569    -1.459952393725     0.576290623219
    H            2.634173949526     0.022818092142     1.510367061845

  Mulliken Charges: (a.u.)
   Center  Symbol    Alpha    Beta     Spin     Total
       1     H     0.41396  0.41396  0.00000  0.17209
       2     C     3.04305  3.04305  0.00000 -0.08610
       3     N     3.59653  3.59653  0.00000 -0.19307
       4     C     3.04772  3.04772  0.00000 -0.09545
       5     C     2.93924  2.93924  0.00000  0.12152
       6     H     0.41367  0.41367  0.00000  0.17266
       7     N     3.58661  3.58661  0.00000 -0.17322
       8     C     3.07861  3.07861  0.00000 -0.15721
       9     C     3.07564  3.07564  0.00000 -0.15129
      10     H     0.41598  0.41598  0.00000  0.16804
      11     C     3.14469  3.14469  0.00000 -0.28939
      12     H     0.44635  0.44635  0.00000  0.10731
      13     H     0.44976  0.44976  0.00000  0.10047
      14     H     0.44986  0.44986  0.00000  0.10029
      15     H     0.44419  0.44419  0.00000  0.11162
      16     H     0.45414  0.45414  0.00000  0.09172

   Total alpha = 29.00000, Total beta = 29.00000, Total charge = -0.00000
