  ==> Input File <==

--------------------------------------------------------------------------
set {
	reference rhf
	basis 6-31G*
}

set_num_threads( 4 )
memory 2 gb

molecule MOL {
0 1

H	 2.079545	 -0.102109	 2.293588
O	 1.384626	 0.444881	 1.956573
C	 1.135793	 0.118896	 0.612333
C	 0.031547	 1.023609	 0.088541
H	 0.820455	 -0.919238	 0.524412
H	 2.039708	 0.233528	 0.018280
C	 -1.134819	 0.293262	 -0.585751
H	 0.474374	 1.714721	 -0.623187
H	 -0.338529	 1.620940	 0.920081
C	 -1.917817	 -0.639439	 0.339494
H	 -0.758119	 -0.268455	 -1.433105
H	 -1.813832	 1.041889	 -0.986690
H	 -2.777680	 -1.057197	 -0.174994
H	 -1.310268	 -1.471279	 0.680599
H	 -2.283753	 -0.111424	 1.216626

	symmetry c1
}
set optking {
	frozen_dihedral = ("
		2 3 4 8
	")
}

ee = optimize('scf')
oeprop('DIPOLE', 'QUADRUPOLE', 'MULLIKEN_CHARGES')
f=open( 'psi4out.xyz', 'w' )
f.write( "15  " )
f.write( str(ee) + "\n" )
f.write( MOL.save_string_xyz() )
f.close()
--------------------------------------------------------------------------

    Molecular point group: c1
  Charge       = 0
  Multiplicity = 1
  Basis Set: 6-31G*
  Basis Set:
  @DF-RHF Final Energy:  -232.13727491902256
    Total Energy =                       -232.1372749190226159
    Molecular point group: c1
  Basis Set: 6-31G*
  Basis Set:
  Basis Set: 6-31G*
  Basis Set:
  @DF-RHF Final Energy:  -232.13783621504871
    Total Energy =                       -232.1378362150485941
  Basis Set: 6-31G*
  Basis Set:
  Basis Set: 6-31G*
  Basis Set:
  @DF-RHF Final Energy:  -232.13811760136821
    Total Energy =                       -232.1381176013680374
  Basis Set: 6-31G*
  Basis Set:
  Basis Set: 6-31G*
  Basis Set:
  @DF-RHF Final Energy:  -232.13813473044229
    Total Energy =                       -232.1381347304421752
  Basis Set: 6-31G*
  Basis Set:
  Basis Set: 6-31G*
  Basis Set:
  @DF-RHF Final Energy:  -232.13813577770577
    Total Energy =                       -232.1381357777057701
  Basis Set: 6-31G*
  Basis Set:
  Charge       = 0
  Multiplicity = 1
  Basis Set: 6-31G*
  Basis Set:

    Orbital Energies (a.u.)
    -----------------------

    Doubly Occupied:

       1A    -20.551540     2A    -11.267433     3A    -11.216774
       4A    -11.211110     5A    -11.206764     6A     -1.357601
       7A     -1.066741     8A     -0.967769     9A     -0.866743
      10A     -0.785338    11A     -0.696567    12A     -0.648307
      13A     -0.615320    14A     -0.573972    15A     -0.553260
      16A     -0.542448    17A     -0.502143    18A     -0.475670
      19A     -0.471183    20A     -0.456229    21A     -0.428183

  @DF-RHF Final Energy:  -232.13813532658571

   => Energetics <=

    Nuclear Repulsion Energy =            189.2940104483012078
    One-Electron Energy =                -689.9421032499558351
    Two-Electron Energy =                 268.5099574750689158
    DFT Exchange-Correlation Energy =       0.0000000000000000
    Empirical Dispersion Energy =           0.0000000000000000
    PCM Polarization Energy =               0.0000000000000000
    EFP Energy =                            0.0000000000000000
    Total Energy =                       -232.1381353265857115
    Molecular point group: c1
  Basis Set: 6-31G*
  Basis Set:

  -Total Gradient:
     Atom            X                  Y                   Z
    ------   -----------------  -----------------  -----------------
       1       -0.000013730242     0.000008868155    -0.000009876974
       2       -0.000498804572    -0.000464149804     0.000182954942
       3        0.000617245129     0.000642589118    -0.000522911653
       4        0.000056809363     0.000332100507     0.000991168341
       5       -0.000074150395     0.000066490100    -0.000063089296
       6       -0.000006071678     0.000014965251    -0.000010552228
       7        0.000047070142    -0.000111319404    -0.000044204545
       8       -0.000019060463    -0.000610780260    -0.000682406925
       9       -0.000042291648     0.000033773239     0.000052525602
      10       -0.000035952204    -0.000007934201     0.000006159109
      11        0.000024199708     0.000053343122     0.000079019948
      12        0.000001104319     0.000028934120    -0.000000091319
      13        0.000010512564     0.000004173257     0.000032145755
      14       -0.000027911620     0.000001232284    -0.000028662037
      15       -0.000038968403     0.000007714515     0.000017821278

  **** Optimization is complete! (in 6 steps) ****
    Final optimized geometry and variables:
    Molecular point group: c1

    Geometry (in Angstrom), charge = 0, multiplicity = 1:

    H            2.195397232594    -0.380372868161     1.712131668210
    O            1.465059730351     0.146845499688     1.420415889821
    C            1.221998858242    -0.100471264760     0.057031318214
    C            0.070737908117     0.799733426723    -0.411293603609
    H            0.970699128149    -1.148318375731    -0.091148457034
    H            2.118173784173     0.097072875205    -0.526875431464
    C           -1.065123121599     0.050053301418    -1.117950804501
    H            0.457922305620     1.561997916856    -1.080768406829
    H           -0.318421445179     1.315740003773     0.459912926865
    C           -1.902406646380    -0.821689824408    -0.180689410975
    H           -0.654658588914    -0.561416780342    -1.919547818515
    H           -1.716915683223     0.775559855465    -1.597531633098
    H           -2.683781519190    -1.341194602011    -0.726953188835
    H           -1.300396168315    -1.571254655328     0.323140572344
    H           -2.378106783092    -0.216608895085     0.585435735203

  Mulliken Charges: (a.u.)
   Center  Symbol    Alpha    Beta     Spin     Total
       1     H     0.28219  0.28219  0.00000  0.43562
       2     O     4.37116  4.37116  0.00000 -0.74232
       3     C     2.99596  2.99596  0.00000  0.00808
       4     C     3.16663  3.16663  0.00000 -0.33326
       5     H     0.42978  0.42978  0.00000  0.14044
       6     H     0.42986  0.42986  0.00000  0.14028
       7     C     3.15991  3.15991  0.00000 -0.31981
       8     H     0.41839  0.41839  0.00000  0.16323
       9     H     0.40374  0.40374  0.00000  0.19253
      10     C     3.23912  3.23912  0.00000 -0.47824
      11     H     0.42478  0.42478  0.00000  0.15044
      12     H     0.41990  0.41990  0.00000  0.16020
      13     H     0.42025  0.42025  0.00000  0.15950
      14     H     0.41940  0.41940  0.00000  0.16120
      15     H     0.41893  0.41893  0.00000  0.16213

   Total alpha = 21.00000, Total beta = 21.00000, Total charge = -0.00000
