  ==> Input File <==

--------------------------------------------------------------------------
set {
	reference rhf
	basis cc-pvtz
}

set_num_threads( 4 )
memory 2 gb

molecule MOL {
0 1

O	 -0.694481	 1.313155	 -0.204815
C	 -0.862519	 0.151932	 -0.046791
C	 -2.171428	 -0.477048	 0.339095
O	 0.085519	 -0.757083	 -0.192238
H	 -2.467997	 -1.191667	 -0.417688
H	 -2.923379	 0.287970	 0.444097
H	 -2.053854	 -1.015120	 1.270901
C	 1.244471	 -0.675109	 0.629097
C	 1.030572	 -1.349448	 1.968281
H	 1.518563	 0.360710	 0.754669
H	 2.015894	 -1.177096	 0.064591
H	 1.952553	 -1.325686	 2.538226
H	 0.265250	 -0.841508	 2.538950
H	 0.740217	 -2.384398	 1.833505

	symmetry c1
}
set optking {
	frozen_dihedral = ("
		8 4 2 1
	")
}

ee = optimize('scf')
oeprop('DIPOLE', 'QUADRUPOLE', 'MULLIKEN_CHARGES')
f=open( 'psi4out.xyz', 'w' )
f.write( "14  " )
f.write( str(ee) + "\n" )
f.write( MOL.save_string_xyz() )
f.close()
--------------------------------------------------------------------------

    Molecular point group: c1
  Charge       = 0
  Multiplicity = 1
  Basis Set: CC-PVTZ
  Basis Set:
  @DF-RHF Final Energy:  -305.97639173372727
    Total Energy =                       -305.9763917337272687
    Molecular point group: c1
  Basis Set: CC-PVTZ
  Basis Set:
  Basis Set: CC-PVTZ
  Basis Set:
  @DF-RHF Final Energy:  -305.97633195812085
    Total Energy =                       -305.9763319581210226
  Basis Set: CC-PVTZ
  Basis Set:
  Basis Set: CC-PVTZ
  Basis Set:
  @DF-RHF Final Energy:  -305.97774116451507
    Total Energy =                       -305.9777411645151801
  Basis Set: CC-PVTZ
  Basis Set:
  Basis Set: CC-PVTZ
  Basis Set:
  @DF-RHF Final Energy:  -305.97779605106609
    Total Energy =                       -305.9777960510665480
  Basis Set: CC-PVTZ
  Basis Set:
  Basis Set: CC-PVTZ
  Basis Set:
  @DF-RHF Final Energy:  -305.97780409694457
    Total Energy =                       -305.9778040969446806
  Basis Set: CC-PVTZ
  Basis Set:
  Basis Set: CC-PVTZ
  Basis Set:
  @DF-RHF Final Energy:  -305.97780545277942
    Total Energy =                       -305.9778054527793643
  Basis Set: CC-PVTZ
  Basis Set:
  Charge       = 0
  Multiplicity = 1
  Basis Set: CC-PVTZ
  Basis Set:

    Orbital Energies (a.u.)
    -----------------------

    Doubly Occupied:

       1A    -20.580427     2A    -20.541088     3A    -11.369360
       4A    -11.289114     5A    -11.233426     6A    -11.226664
       7A     -1.462698     8A     -1.367364     9A     -1.051694
      10A     -1.008092    11A     -0.885492    12A     -0.764940
      13A     -0.698260    14A     -0.683698    15A     -0.668617
      16A     -0.616064    17A     -0.592425    18A     -0.572992
      19A     -0.559180    20A     -0.547593    21A     -0.513688
      22A     -0.496083    23A     -0.453167    24A     -0.441398

  @DF-RHF Final Energy:  -305.97780559357017

   => Energetics <=

    Nuclear Repulsion Energy =            248.8881997061594689
    One-Electron Energy =                -910.4849653157964440
    Two-Electron Energy =                 355.6189600160669784
    DFT Exchange-Correlation Energy =       0.0000000000000000
    Empirical Dispersion Energy =           0.0000000000000000
    PCM Polarization Energy =               0.0000000000000000
    EFP Energy =                            0.0000000000000000
    Total Energy =                       -305.9778055935700536
    Molecular point group: c1
  Basis Set: CC-PVTZ
  Basis Set:

  -Total Gradient:
     Atom            X                  Y                   Z
    ------   -----------------  -----------------  -----------------
       1       -0.002737455877    -0.000247921953    -0.009356287363
       2        0.002412961442    -0.002056808668     0.016342134047
       3        0.000017047961     0.000023388206     0.000030441308
       4        0.003526772210     0.007114433701    -0.011942235025
       5       -0.000004218099     0.000018309717    -0.000018541907
       6       -0.000012130956    -0.000004685553    -0.000010103021
       7        0.000005643821    -0.000005735488    -0.000016815552
       8       -0.003167863073    -0.004842540306     0.004960991739
       9       -0.000062615319     0.000001927394    -0.000012662430
      10        0.000007365415    -0.000007325480     0.000012418353
      11        0.000009867088     0.000013154876    -0.000003990560
      12        0.000003323986     0.000001396235    -0.000001845524
      13        0.000000557083    -0.000005870242     0.000007515899
      14        0.000000744319    -0.000001722435     0.000008980036

  **** Optimization is complete! (in 7 steps) ****
    Final optimized geometry and variables:
    Molecular point group: c1

    Geometry (in Angstrom), charge = 0, multiplicity = 1:

    O           -0.477415452008     1.615125356179    -0.482675425773
    C           -0.650230369566     0.451597283979    -0.402915934113
    C           -1.982890299256    -0.194227678971    -0.154339474794
    O            0.316345094516    -0.443281604638    -0.653288786549
    H           -2.212081078448    -0.860200353233    -0.976489617020
    H           -2.748246454820     0.558936960796    -0.058490659350
    H           -1.934275309503    -0.795345443508     0.745284009798
    C            1.495834161182    -0.400690782451     0.136691497899
    C            1.278670474884    -1.006167226182     1.508836463696
    H            1.839602212245     0.622100431502     0.208313445182
    H            2.228761381984    -0.966205771036    -0.418058108371
    H            2.215786834292    -1.017423445814     2.053392958593
    H            0.566828843773    -0.429569263951     2.088612748720
    H            0.916492353161    -2.023542341917     1.428136774893

  Mulliken Charges: (a.u.)
   Center  Symbol    Alpha    Beta     Spin     Total
       1     O     4.17953  4.17953  0.00000 -0.35907
       2     C     2.80301  2.80301  0.00000  0.39399
       3     C     3.13717  3.13717  0.00000 -0.27435
       4     O     4.17268  4.17268  0.00000 -0.34535
       5     H     0.44329  0.44329  0.00000  0.11342
       6     H     0.43766  0.43766  0.00000  0.12468
       7     H     0.44965  0.44965  0.00000  0.10070
       8     C     2.98571  2.98571  0.00000  0.02858
       9     C     3.15006  3.15006  0.00000 -0.30011
      10     H     0.44730  0.44730  0.00000  0.10540
      11     H     0.44607  0.44607  0.00000  0.10786
      12     H     0.44595  0.44595  0.00000  0.10809
      13     H     0.45289  0.45289  0.00000  0.09422
      14     H     0.44903  0.44903  0.00000  0.10193

   Total alpha = 24.00000, Total beta = 24.00000, Total charge = -0.00000
