  ==> Input File <==

--------------------------------------------------------------------------
set {
	reference rhf
	basis 6-31G*
}

set_num_threads( 4 )
memory 2 gb

molecule MOL {
0 1

O	 -2.439739	 -0.935931	 -0.423848
C	 -1.921153	 0.064240	 -0.045697
C	 -2.624470	 1.379923	 0.150949
O	 -0.632575	 0.154573	 0.251549
H	 -2.168117	 2.136577	 -0.476876
H	 -3.669540	 1.273223	 -0.098610
H	 -2.519365	 1.700893	 1.180846
C	 0.160891	 -1.019931	 0.106212
C	 1.589627	 -0.672828	 0.480843
H	 0.089836	 -1.367806	 -0.916050
H	 -0.238459	 -1.792301	 0.749618
C	 2.246377	 0.346236	 -0.452210
H	 2.163194	 -1.597435	 0.473358
H	 1.604769	 -0.303424	 1.502885
C	 3.003118	 -0.315323	 -1.603159
H	 1.482165	 1.007991	 -0.854900
H	 2.926077	 0.970001	 0.119002
H	 3.460110	 0.427454	 -2.249280
H	 2.339975	 -0.921692	 -2.213761
H	 3.793469	 -0.961728	 -1.232233

	symmetry c1
}
set optking {
	frozen_dihedral = ("
		16 12 9 8
	")
}

ee = optimize('scf')
oeprop('DIPOLE', 'QUADRUPOLE', 'MULLIKEN_CHARGES')
f=open( 'psi4out.xyz', 'w' )
f.write( "20  " )
f.write( str(ee) + "\n" )
f.write( MOL.save_string_xyz() )
f.close()
--------------------------------------------------------------------------

    Molecular point group: c1
  Charge       = 0
  Multiplicity = 1
  Basis Set: 6-31G*
  Basis Set:
  @DF-RHF Final Energy:  -383.94217080624730
    Total Energy =                       -383.9421708062473044
    Molecular point group: c1
  Basis Set: 6-31G*
  Basis Set:
  Basis Set: 6-31G*
  Basis Set:
  @DF-RHF Final Energy:  -383.94228950550064
    Total Energy =                       -383.9422895055006393
  Basis Set: 6-31G*
  Basis Set:
  Basis Set: 6-31G*
  Basis Set:
  @DF-RHF Final Energy:  -383.94222521645975
    Total Energy =                       -383.9422252164596330
  Basis Set: 6-31G*
  Basis Set:
  Basis Set: 6-31G*
  Basis Set:
  @DF-RHF Final Energy:  -383.94242728122572
    Total Energy =                       -383.9424272812256049
  Basis Set: 6-31G*
  Basis Set:
  Basis Set: 6-31G*
  Basis Set:
  @DF-RHF Final Energy:  -383.94243025958684
    Total Energy =                       -383.9424302595870131
  Basis Set: 6-31G*
  Basis Set:
  Charge       = 0
  Multiplicity = 1
  Basis Set: 6-31G*
  Basis Set:

    Orbital Energies (a.u.)
    -----------------------

    Doubly Occupied:

       1A    -20.602126     2A    -20.544339     3A    -11.374801
       4A    -11.282554     5A    -11.233573     6A    -11.225250
       7A    -11.220595     8A    -11.213589     9A     -1.468306
      10A     -1.362584    11A     -1.085095    12A     -1.027427
      13A     -0.979689    14A     -0.884682    15A     -0.810192
      16A     -0.772002    17A     -0.690645    18A     -0.687626
      19A     -0.665965    20A     -0.622892    21A     -0.611491
      22A     -0.582966    23A     -0.574321    24A     -0.561244
      25A     -0.538815    26A     -0.527758    27A     -0.517727
      28A     -0.482811    29A     -0.474009    30A     -0.469381
      31A     -0.448464    32A     -0.438862

  @DF-RHF Final Energy:  -383.94243060168992

   => Energetics <=

    Nuclear Repulsion Energy =            387.8381838010378715
    One-Electron Energy =               -1291.5976680156177281
    Two-Electron Energy =                 519.8170536128902768
    DFT Exchange-Correlation Energy =       0.0000000000000000
    Empirical Dispersion Energy =           0.0000000000000000
    PCM Polarization Energy =               0.0000000000000000
    EFP Energy =                            0.0000000000000000
    Total Energy =                       -383.9424306016895798
    Molecular point group: c1
  Basis Set: 6-31G*
  Basis Set:

  -Total Gradient:
     Atom            X                  Y                   Z
    ------   -----------------  -----------------  -----------------
       1        0.000018804330     0.000014399912    -0.000011472179
       2       -0.000024195153    -0.000011557490     0.000040637567
       3       -0.000001388128     0.000002133263    -0.000005780052
       4       -0.000004138814    -0.000030093094     0.000002832442
       5       -0.000003008427     0.000009493621    -0.000003083615
       6       -0.000000085703     0.000001523021    -0.000001230620
       7        0.000005081996    -0.000006284611    -0.000006185034
       8       -0.000845405331     0.001865025822     0.001332668715
       9        0.001095387492    -0.003043707970    -0.002468801663
      10       -0.000016061327    -0.000017515841    -0.000006234740
      11        0.000003362392     0.000005299246    -0.000004743720
      12        0.000126250914     0.003347652339     0.003614421940
      13        0.000009516595     0.000018843777    -0.000011054385
      14        0.000007071060     0.000002139483     0.000012213293
      15        0.000021189803    -0.000010402172     0.000019500645
      16       -0.000391982277    -0.002122820556    -0.002496294900
      17        0.000000219288    -0.000016545627     0.000000348194
      18        0.000003620768     0.000004872995     0.000005446368
      19       -0.000001367285     0.000003138136    -0.000006974434
      20       -0.000002872177    -0.000015594253    -0.000006213823

  **** Optimization is complete! (in 6 steps) ****
    Final optimized geometry and variables:
    Molecular point group: c1

    Geometry (in Angstrom), charge = 0, multiplicity = 1:

    O           -2.349759459912    -0.799327319799    -0.256080075220
    C           -1.836290591910     0.192278537186     0.150528516146
    C           -2.544930262945     1.500261063257     0.377679040746
    O           -0.550918071446     0.277389729600     0.463080986634
    H           -2.085763187444     2.275190337578    -0.225285081024
    H           -3.587618209560     1.397532057834     0.116724902812
    H           -2.448923361471     1.792876963878     1.416874208438
    C            0.246853367069    -0.891170265914     0.297213387018
    C            1.671728145823    -0.539022645593     0.687525303017
    H            0.174840402261    -1.222294633568    -0.730502642362
    H           -0.150179441337    -1.676053739688     0.926800763892
    C            2.348789098548     0.468047493647    -0.258345219331
    H            2.248737258370    -1.459390113543     0.729924745262
    H            1.645639016281    -0.143537896793     1.698397717746
    C            3.111211130856    -0.206401669425    -1.401653715360
    H            1.594703802727     1.122295842276    -0.683528265322
    H            3.032442205361     1.095886414846     0.303969292990
    H            3.543929290873     0.530208811836    -2.071434865938
    H            2.459293437439    -0.843157989522    -1.993568817711
    H            3.919693589019    -0.825116823609    -1.022695479101

  Mulliken Charges: (a.u.)
   Center  Symbol    Alpha    Beta     Spin     Total
       1     O     4.28311  4.28311  0.00000 -0.56622
       2     C     2.61967  2.61967  0.00000  0.76066
       3     C     3.28162  3.28162  0.00000 -0.56324
       4     O     4.30802  4.30802  0.00000 -0.61604
       5     H     0.40081  0.40081  0.00000  0.19838
       6     H     0.39685  0.39685  0.00000  0.20629
       7     H     0.40045  0.40045  0.00000  0.19910
       8     C     3.00475  3.00475  0.00000 -0.00950
       9     C     3.16672  3.16672  0.00000 -0.33344
      10     H     0.41026  0.41026  0.00000  0.17947
      11     H     0.40861  0.40861  0.00000  0.18277
      12     C     3.15855  3.15855  0.00000 -0.31711
      13     H     0.41655  0.41655  0.00000  0.16690
      14     H     0.41183  0.41183  0.00000  0.17634
      15     C     3.24171  3.24171  0.00000 -0.48342
      16     H     0.41225  0.41225  0.00000  0.17550
      17     H     0.41749  0.41749  0.00000  0.16502
      18     H     0.41789  0.41789  0.00000  0.16423
      19     H     0.42161  0.42161  0.00000  0.15678
      20     H     0.42125  0.42125  0.00000  0.15751

   Total alpha = 32.00000, Total beta = 32.00000, Total charge =  0.00000
