  ==> Input File <==

--------------------------------------------------------------------------
set {
	reference rhf
	basis 6-31G*
}

set_num_threads( 1 )
memory 2 gb

molecule MOL {
0 1

H	 2.551007	 0.264138	 1.932259
O	 1.851087	 0.810585	 1.604848
C	 1.135793	 0.118896	 0.612333
C	 0.031547	 1.023609	 0.088541
H	 0.692614	 -0.786333	 1.023480
H	 1.798947	 -0.183786	 -0.194954
C	 -1.134819	 0.293262	 -0.585751
H	 0.474374	 1.714721	 -0.623187
H	 -0.338529	 1.620940	 0.920081
C	 -1.917817	 -0.639439	 0.339494
H	 -0.758119	 -0.268455	 -1.433105
H	 -1.813832	 1.041889	 -0.986690
H	 -2.777680	 -1.057197	 -0.174994
H	 -1.310268	 -1.471279	 0.680599
H	 -2.283753	 -0.111424	 1.216626

	symmetry c1
}
set optking {
	frozen_dihedral = ("
		8 4 7 11,
		1 2 3 4
	")
}

ee = energy('scf')
oeprop('DIPOLE', 'QUADRUPOLE', 'MULLIKEN_CHARGES')
f=open( 'psi4out.xyz', 'w' )
f.write( "15  " )
f.write( str(ee) + "\n" )
f.write( MOL.save_string_xyz() )
f.close()
--------------------------------------------------------------------------

    Molecular point group: c1

    Geometry (in Angstrom), charge = 0, multiplicity = 1:

       Center              X                  Y                   Z               Mass
    ------------   -----------------  -----------------  -----------------  -----------------
           H          2.507945192056    -0.050285719571     1.479957633642     1.007825032070
           O          1.808025192056     0.496161280429     1.152546633642    15.994914619560
           C          1.092731192056    -0.195527719571     0.160031633642    12.000000000000
           C         -0.011514807944     0.709185280429    -0.363760366358    12.000000000000
           H          0.649552192056    -1.100756719571     0.571178633642     1.007825032070
           H          1.755885192056    -0.498209719571    -0.647255366358     1.007825032070
           C         -1.177880807944    -0.021161719571    -1.038052366358    12.000000000000
           H          0.431312192056     1.400297280429    -1.075488366358     1.007825032070
           H         -0.381590807944     1.306516280429     0.467779633642     1.007825032070
           C         -1.960878807944    -0.953862719571    -0.112807366358    12.000000000000
           H         -0.801180807944    -0.582878719571    -1.885406366358     1.007825032070
           H         -1.856893807944     0.727465280429    -1.438991366358     1.007825032070
           H         -2.820741807944    -1.371620719571    -0.627295366358     1.007825032070
           H         -1.353329807944    -1.785702719571     0.228297633642     1.007825032070
           H         -2.326814807944    -0.425847719571     0.764324633642     1.007825032070

  Charge       = 0
  Multiplicity = 1
  Basis Set: 6-31G*
  Basis Set:

    Orbital Energies (a.u.)
    -----------------------

    Doubly Occupied:

       1A    -20.551790     2A    -11.266166     3A    -11.218464
       4A    -11.210969     5A    -11.210241     6A     -1.358134
       7A     -1.069956     8A     -0.970340     9A     -0.870228
      10A     -0.783136    11A     -0.694672    12A     -0.652201
      13A     -0.620901    14A     -0.576937    15A     -0.556245
      16A     -0.539401    17A     -0.507328    18A     -0.475264
      19A     -0.471666    20A     -0.456542    21A     -0.430357

  @DF-RHF Final Energy:  -232.14064395209655

   => Energetics <=

    Nuclear Repulsion Energy =            188.5925937133998502
    One-Electron Energy =                -688.4846042726564974
    Two-Electron Energy =                 267.7513666071598095
    DFT Exchange-Correlation Energy =       0.0000000000000000
    Empirical Dispersion Energy =           0.0000000000000000
    PCM Polarization Energy =               0.0000000000000000
    EFP Energy =                            0.0000000000000000
    Total Energy =                       -232.1406439520968092

  Mulliken Charges: (a.u.)
   Center  Symbol    Alpha    Beta     Spin     Total
       1     H     0.28134  0.28134  0.00000  0.43732
       2     O     4.37137  4.37137  0.00000 -0.74274
       3     C     2.99264  2.99264  0.00000  0.01472
       4     C     3.16217  3.16217  0.00000 -0.32434
       5     H     0.43133  0.43133  0.00000  0.13734
       6     H     0.43180  0.43180  0.00000  0.13639
       7     C     3.15991  3.15991  0.00000 -0.31981
       8     H     0.41684  0.41684  0.00000  0.16632
       9     H     0.41077  0.41077  0.00000  0.17846
      10     C     3.24181  3.24181  0.00000 -0.48361
      11     H     0.42329  0.42329  0.00000  0.15341
      12     H     0.41768  0.41768  0.00000  0.16464
      13     H     0.41835  0.41835  0.00000  0.16330
      14     H     0.42165  0.42165  0.00000  0.15670
      15     H     0.41905  0.41905  0.00000  0.16189

   Total alpha = 21.00000, Total beta = 21.00000, Total charge = -0.00000
