                              Psi4 1.0.54 Driver

  ==> Input File <==

--------------------------------------------------------------------------
set {
	reference rhf
	basis cc-pvtz
}

set_num_threads( 4 )
memory 2 gb

molecule MOL {
0 1

H	 3.495131	 -1.572626	 -2.315585
C	 3.090030	 -1.438456	 -1.319593
C	 1.819121	 -0.596839	 -1.353097
H	 2.896803	 -2.423120	 -0.907114
H	 3.857496	 -0.971102	 -0.711651
C	 1.215950	 -0.382441	 0.027187
H	 1.076319	 -1.068227	 -1.986977
H	 2.039168	 0.369458	 -1.800789
N	 0.000002	 0.398953	 -0.040851
H	 0.972738	 -1.345720	 0.465492
H	 1.963804	 0.074130	 0.682428
C	 -1.215959	 -0.382435	 0.027143
H	 -0.000012	 1.086078	 0.683841
C	 -2.451944	 0.502410	 -0.038737
H	 -1.221867	 -1.069392	 -0.813828
H	 -1.259993	 -0.999709	 0.929424
C	 -3.752217	 -0.292550	 0.005776
H	 -2.407325	 1.093801	 -0.946480
H	 -2.431979	 1.206234	 0.790023
H	 -3.817783	 -0.982946	 -0.828547
H	 -4.612613	 0.364348	 -0.042306
H	 -3.830160	 -0.871666	 0.919868

	symmetry c1
}
set optking {
	frozen_dihedral = ("
		10 6 9 12
	")
}

ee,wfn = optimize('scf', return_wfn=True)
oeprop( wfn, 'DIPOLE', 'QUADRUPOLE', 'MULLIKEN_CHARGES')
f=open( 'psi4out.xyz', 'w' )
f.write( "22  " )
f.write( str(ee) + "\n" )
f.write( MOL.save_string_xyz() )
f.close()
--------------------------------------------------------------------------

    Molecular point group: c1
  Charge       = 0
  Multiplicity = 1
  Basis Set: CC-PVTZ
  Basis Set:
  @DF-RHF Final Energy:  -290.48598582205267
    Total Energy =                       -290.4859858220528963
    Molecular point group: c1
  Basis Set: CC-PVTZ
  Basis Set:
  Basis Set: CC-PVTZ
  Basis Set:
  @DF-RHF Final Energy:  -290.46747978701501
    Total Energy =                       -290.4674797870152361
  Basis Set: CC-PVTZ
  Basis Set:
  Basis Set: CC-PVTZ
  Basis Set:
  @DF-RHF Final Energy:  -290.48666252346430
    Total Energy =                       -290.4866625234641333
  Basis Set: CC-PVTZ
  Basis Set:
  Basis Set: CC-PVTZ
  Basis Set:
  @DF-RHF Final Energy:  -290.48690876762589
    Total Energy =                       -290.4869087676260619
  Basis Set: CC-PVTZ
  Basis Set:
  Basis Set: CC-PVTZ
  Basis Set:
  @DF-RHF Final Energy:  -290.48691242567583
    Total Energy =                       -290.4869124256759392
  Basis Set: CC-PVTZ
  Basis Set:
  Charge       = 0
  Multiplicity = 1
  Basis Set: CC-PVTZ
  Basis Set:

    Orbital Energies (a.u.)
    -----------------------

    Doubly Occupied:

       1A    -15.527546     2A    -11.237036     3A    -11.236957
       4A    -11.211804     5A    -11.207736     6A    -11.205485
       7A    -11.204466     8A     -1.204629     9A     -1.057639
      10A     -1.026397    11A     -0.928507    12A     -0.872352
      13A     -0.805508    14A     -0.792387    15A     -0.667495
      16A     -0.637963    17A     -0.615246    18A     -0.600327
      19A     -0.581260    20A     -0.556061    21A     -0.545149
      22A     -0.522773    23A     -0.501293    24A     -0.490275
      25A     -0.482146    26A     -0.471963    27A     -0.464043
      28A     -0.454090    29A     -0.358985

  @DF-RHF Final Energy:  -290.48691372654656

   => Energetics <=

    Nuclear Repulsion Energy =            315.8091865555249456
    One-Electron Energy =               -1017.6571714111155416
    Two-Electron Energy =                 411.3610711290440918
    DFT Exchange-Correlation Energy =       0.0000000000000000
    Empirical Dispersion Energy =           0.0000000000000000
    PCM Polarization Energy =               0.0000000000000000
    EFP Energy =                            0.0000000000000000
    Total Energy =                       -290.4869137265464474
    Molecular point group: c1
  Basis Set: CC-PVTZ
  Basis Set:

  -Total Gradient:
     Atom            X                  Y                   Z
    ------   -----------------  -----------------  -----------------
       1       -0.000000007499    -0.000005950730    -0.000015698344
       2        0.000002446696    -0.000021176366     0.000000702127
       3        0.000013901481     0.000039339603     0.000039559061
       4       -0.000005101281     0.000004298093     0.000006292840
       5       -0.000009616479     0.000008709722     0.000000833368
       6        0.001131617360     0.001910869660     0.003005411416
       7       -0.000000960619    -0.000012304341    -0.000000070974
       8        0.000005924460     0.000010714665    -0.000019550506
       9       -0.000705264650    -0.001177717538    -0.002930775604
      10       -0.000817643515    -0.001315022374    -0.001806550569
      11        0.000020512826    -0.000001933106     0.000001618845
      12        0.000353886238     0.000571433288     0.001735820359
      13       -0.000003766228     0.000003745432    -0.000011847956
      14        0.000014743513     0.000009683752    -0.000007151811
      15       -0.000003993238    -0.000004549614    -0.000014458956
      16       -0.000001832130    -0.000008176044     0.000016272472
      17       -0.000008747615    -0.000004634444    -0.000000642884
      18        0.000003427651     0.000007436475    -0.000019576826
      19        0.000010984376     0.000007123297     0.000006203245
      20       -0.000005996493    -0.000011740192    -0.000006080802
      21        0.000009568159    -0.000001758743    -0.000000557735
      22       -0.000004083008    -0.000008390495     0.000020249235

  **** Optimization is complete! (in 6 steps) ****
    Final optimized geometry and variables:
    Molecular point group: c1

    Geometry (in Angstrom), charge = 0, multiplicity = 1:

    H            3.367614124887    -1.601640074023    -2.271367980575
    C            3.120149928180    -1.284788083571    -1.265022128552
    C            1.835077490188    -0.464335357105    -1.246081125651
    H            3.028894065528    -2.176058516239    -0.652478177835
    H            3.959398353198    -0.710374405616    -0.885587852586
    C            1.455080821679     0.008791061760     0.153312888729
    H            1.018940256473    -1.052903073056    -1.654095737941
    H            1.936285391021     0.403614219370    -1.888502591256
    N            0.210139372135     0.762391447254     0.157636808329
    H            1.386630980879    -0.861190960003     0.806638959944
    H            2.252504575360     0.632491743048     0.543679036443
    C           -0.952792669408     0.025926291928     0.608220759442
    H            0.310696209036     1.585993057948     0.708691358351
    C           -2.211277237686     0.877803752990     0.539923044948
    H           -1.076332090982    -0.842582863826    -0.031428825322
    H           -0.827513752363    -0.355887875895     1.625260092320
    C           -3.458221084064     0.129637569420     0.998409419683
    H           -2.338938669663     1.227740725930    -0.478353088886
    H           -2.075827251450     1.763686075499     1.156064523079
    H           -3.639050157815    -0.744840941207     0.382192440881
    H           -4.336199540609     0.761793442640     0.938176153007
    H           -3.362810233732    -0.205066027057     2.026015114559

  Mulliken Charges: (a.u.)
   Center  Symbol    Alpha    Beta     Spin     Total
       1     H     0.44782  0.44782  0.00000  0.10436
       2     C     3.15467  3.15467  0.00000 -0.30934
       3     C     3.06745  3.06745  0.00000 -0.13489
       4     H     0.45602  0.45602  0.00000  0.08796
       5     H     0.45646  0.45646  0.00000  0.08708
       6     C     3.04342  3.04342  0.00000 -0.08684
       7     H     0.45726  0.45726  0.00000  0.08548
       8     H     0.45393  0.45393  0.00000  0.09213
       9     N     3.63877  3.63877  0.00000 -0.27753
      10     H     0.46732  0.46732  0.00000  0.06535
      11     H     0.45343  0.45343  0.00000  0.09314
      12     C     3.02465  3.02465  0.00000 -0.04930
      13     H     0.44512  0.44512  0.00000  0.10976
      14     C     3.08238  3.08238  0.00000 -0.16477
      15     H     0.45857  0.45857  0.00000  0.08285
      16     H     0.47200  0.47200  0.00000  0.05601
      17     C     3.15335  3.15335  0.00000 -0.30670
      18     H     0.44910  0.44910  0.00000  0.10179
      19     H     0.45950  0.45950  0.00000  0.08100
      20     H     0.45481  0.45481  0.00000  0.09038
      21     H     0.44769  0.44769  0.00000  0.10462
      22     H     0.45627  0.45627  0.00000  0.08746

   Total alpha = 29.00000, Total beta = 29.00000, Total charge = -0.00000

*** Psi4 exiting successfully. Buy a developer a beer!
