                              Psi4 1.0.54 Driver

  ==> Input File <==

--------------------------------------------------------------------------
set {
	reference rhf
	basis cc-pvtz
}

set_num_threads( 4 )
memory 2 gb

molecule MOL {
0 1

H	 -3.258660	 -0.290394	 1.471450
C	 -3.307964	 -0.275695	 0.374072
C	 -2.653809	 0.914422	 -0.273689
O	 -3.855140	 -1.148880	 -0.205112
C	 -1.216901	 1.136108	 0.207794
H	 -2.700131	 0.790676	 -1.347875
H	 -3.256452	 1.781007	 -0.010713
C	 -0.247837	 0.040196	 -0.230469
H	 -0.872882	 2.093195	 -0.169002
H	 -1.209325	 1.218376	 1.291938
C	 1.181757	 0.280428	 0.247371
H	 -0.259600	 -0.030819	 -1.314870
H	 -0.591284	 -0.923375	 0.136958
C	 2.151032	 -0.811012	 -0.202643
H	 1.515939	 1.247397	 -0.115449
H	 1.191514	 0.341223	 1.333422
C	 3.580021	 -0.656538	 0.320835
H	 2.170545	 -0.847575	 -1.289412
H	 1.766632	 -1.772905	 0.124928
C	 4.524174	 0.097255	 -0.612683
H	 3.987032	 -1.646651	 0.500862
H	 3.556018	 -0.159746	 1.287234
H	 4.563303	 -0.373442	 -1.589878
H	 4.219476	 1.127271	 -0.753789
H	 5.531495	 0.108820	 -0.212514

	symmetry c1
}
set optking {
	frozen_dihedral = ("
		20 17 14 18
	")
}

ee,wfn = optimize('scf', return_wfn=True)
oeprop( wfn, 'DIPOLE', 'QUADRUPOLE', 'MULLIKEN_CHARGES')
f=open( 'psi4out.xyz', 'w' )
f.write( "25  " )
f.write( str(ee) + "\n" )
f.write( MOL.save_string_xyz() )
f.close()
--------------------------------------------------------------------------

    Molecular point group: c1
  Charge       = 0
  Multiplicity = 1
  Basis Set: CC-PVTZ
  Basis Set:
  @DF-RHF Final Energy:  -387.25813800463465
    Total Energy =                       -387.2581380046343611
    Molecular point group: c1
  Basis Set: CC-PVTZ
  Basis Set:
  Basis Set: CC-PVTZ
  Basis Set:
  @DF-RHF Final Energy:  -387.25866102149320
    Total Energy =                       -387.2586610214929124
  Basis Set: CC-PVTZ
  Basis Set:
  Basis Set: CC-PVTZ
  Basis Set:
  @DF-RHF Final Energy:  -387.25870122329258
    Total Energy =                       -387.2587012232925190
  Basis Set: CC-PVTZ
  Basis Set:
  Basis Set: CC-PVTZ
  Basis Set:
  @DF-RHF Final Energy:  -387.25869495106360
    Total Energy =                       -387.2586949510639442
  Basis Set: CC-PVTZ
  Basis Set:
  Basis Set: CC-PVTZ
  Basis Set:
  @DF-RHF Final Energy:  -387.25868161549351
    Total Energy =                       -387.2586816154927192
  Basis Set: CC-PVTZ
  Basis Set:
  Basis Set: CC-PVTZ
  Basis Set:
  @DF-RHF Final Energy:  -387.25870674093778
    Total Energy =                       -387.2587067409380097
  Basis Set: CC-PVTZ
  Basis Set:
  Charge       = 0
  Multiplicity = 1
  Basis Set: CC-PVTZ
  Basis Set:

    Orbital Energies (a.u.)
    -----------------------

    Doubly Occupied:

       1A    -20.551373     2A    -11.320978     3A    -11.233798
       4A    -11.232870     5A    -11.221596     6A    -11.218099
       7A    -11.215882     8A    -11.214765     9A    -11.209270
      10A     -1.406390    11A     -1.105180    12A     -1.070631
      13A     -1.015093    14A     -0.943772    15A     -0.872194
      16A     -0.818672    17A     -0.790148    18A     -0.786681
      19A     -0.667953    20A     -0.663585    21A     -0.634827
      22A     -0.625512    23A     -0.606004    24A     -0.594357
      25A     -0.575832    26A     -0.551883    27A     -0.534471
      28A     -0.526931    29A     -0.509387    30A     -0.499673
      31A     -0.488647    32A     -0.481401    33A     -0.467361
      34A     -0.458823    35A     -0.441241    36A     -0.411877

  @DF-RHF Final Energy:  -387.25870708620675

   => Energetics <=

    Nuclear Repulsion Energy =            438.6340688435193442
    One-Electron Energy =               -1393.8512375468205846
    Two-Electron Energy =                 567.9584616170947129
    DFT Exchange-Correlation Energy =       0.0000000000000000
    Empirical Dispersion Energy =           0.0000000000000000
    PCM Polarization Energy =               0.0000000000000000
    EFP Energy =                            0.0000000000000000
    Total Energy =                       -387.2587070862065275
    Molecular point group: c1
  Basis Set: CC-PVTZ
  Basis Set:

  -Total Gradient:
     Atom            X                  Y                   Z
    ------   -----------------  -----------------  -----------------
       1        0.000004824779    -0.000005071331    -0.000002108625
       2       -0.000012317647     0.000016602078     0.000009298830
       3        0.000009149213    -0.000003537147    -0.000009202861
       4        0.000004362052    -0.000006591701    -0.000002842488
       5        0.000004048250     0.000002840476     0.000003317676
       6        0.000000190445    -0.000001401692    -0.000001412734
       7        0.000004348988     0.000001007447     0.000001078326
       8        0.000003808023    -0.000006971116    -0.000001723902
       9       -0.000003466302     0.000001818035    -0.000000321601
      10       -0.000000816566    -0.000003713867     0.000001152805
      11       -0.000003792437     0.000000590781     0.000019073698
      12       -0.000001827180    -0.000001177677    -0.000003292198
      13        0.000003861073     0.000001072684     0.000002613239
      14        0.000725792716    -0.004773609110    -0.000067609693
      15       -0.000004058847    -0.000004832857    -0.000000312993
      16       -0.000011153671     0.000000266581     0.000005928388
      17       -0.000960265306     0.003667790819     0.001270109583
      18       -0.000378181468     0.003211969934    -0.000268510693
      19        0.000010614676    -0.000002061825     0.000007440869
      20        0.000612149077    -0.002077245463    -0.000962512499
      21       -0.000013679605    -0.000006305722    -0.000004506950
      22        0.000004502349     0.000005856630     0.000002211983
      23        0.000011301957    -0.000008553034    -0.000004473494
      24        0.000006315920    -0.000002821818    -0.000002680231
      25       -0.000015710495    -0.000005921104     0.000009285564

  **** Optimization is complete! (in 7 steps) ****
    Final optimized geometry and variables:
    Molecular point group: c1

    Geometry (in Angstrom), charge = 0, multiplicity = 1:

    H           -3.357477388663    -0.126611671376     1.372688556004
    C           -3.348129663636    -0.097991236050     0.274509441390
    C           -2.605497384528     1.066357530075    -0.322802460121
    O           -3.904519783325    -0.937877769308    -0.343807994590
    C           -1.188316002644     1.216212638156     0.237970939177
    H           -2.599138675016     0.955168496108    -1.399349424959
    H           -3.181099669899     1.957516775508    -0.082319294400
    C           -0.248647947824     0.079937830649    -0.159797611752
    H           -0.780180146776     2.159340147315    -0.108920059025
    H           -1.235956722181     1.288555761123     1.321765840933
    C            1.163817183872     0.251782968730     0.390929039198
    H           -0.209391922712     0.015119519136    -1.243884469865
    H           -0.653010367604    -0.869249639105     0.182862448916
    C            2.105942843667    -0.888843347375     0.004837313568
    H            1.571677963495     1.195971833451     0.038542588233
    H            1.120193451968     0.325564105114     1.474798438009
    C            3.547235162751    -0.679507771877     0.491459171500
    H            2.103451371216    -0.977999622826    -1.078119467256
    H            1.711191798292    -1.818827469031     0.400289301386
    C            4.433180105381     0.048504477443    -0.516382394827
    H            3.997204120419    -1.644176521207     0.702654315808
    H            3.539647192265    -0.139685121067     1.433599858641
    H            4.525063238673    -0.525342688784    -1.432012954717
    H            4.029475422161     1.021453089183    -0.776696069774
    H            5.430503720803     0.203407575498    -0.120762565879

  Mulliken Charges: (a.u.)
   Center  Symbol    Alpha    Beta     Spin     Total
       1     H     0.46419  0.46419  0.00000  0.07161
       2     C     2.90479  2.90479  0.00000  0.19041
       3     C     3.08905  3.08905  0.00000 -0.17811
       4     O     4.16625  4.16625  0.00000 -0.33250
       5     C     3.11604  3.11604  0.00000 -0.23207
       6     H     0.44291  0.44291  0.00000  0.11418
       7     H     0.44048  0.44048  0.00000  0.11904
       8     C     3.09121  3.09121  0.00000 -0.18243
       9     H     0.44308  0.44308  0.00000  0.11383
      10     H     0.44984  0.44984  0.00000  0.10033
      11     C     3.09109  3.09109  0.00000 -0.18218
      12     H     0.44946  0.44946  0.00000  0.10109
      13     H     0.44834  0.44834  0.00000  0.10332
      14     C     3.09515  3.09515  0.00000 -0.19030
      15     H     0.45282  0.45282  0.00000  0.09435
      16     H     0.45381  0.45381  0.00000  0.09237
      17     C     3.09123  3.09123  0.00000 -0.18245
      18     H     0.45505  0.45505  0.00000  0.08989
      19     H     0.44598  0.44598  0.00000  0.10805
      20     C     3.14785  3.14785  0.00000 -0.29569
      21     H     0.44788  0.44788  0.00000  0.10425
      22     H     0.45517  0.45517  0.00000  0.08965
      23     H     0.45422  0.45422  0.00000  0.09156
      24     H     0.45606  0.45606  0.00000  0.08788
      25     H     0.44803  0.44803  0.00000  0.10393

   Total alpha = 36.00000, Total beta = 36.00000, Total charge = -0.00000

*** Psi4 exiting successfully. Buy a developer a beer!
