                              Psi4 1.0.54 Driver

  ==> Input File <==

--------------------------------------------------------------------------
set {
	reference rhf
	basis cc-pvtz
}

set_num_threads( 4 )
memory 2 gb

molecule MOL {
0 1

H	 3.567643	 0.750421	 0.713646
O	 2.662977	 0.606578	 0.947281
C	 2.076458	 -0.067370	 -0.038225
C	 0.626018	 -0.337582	 0.258241
O	 2.662798	 -0.394064	 -1.011527
C	 -0.267326	 0.883135	 0.076490
H	 0.325620	 -1.161483	 -0.378003
H	 0.574537	 -0.713685	 1.275261
C	 -1.726822	 0.642622	 0.463839
H	 -0.210803	 1.217591	 -0.953497
H	 0.129920	 1.693110	 0.675679
C	 -2.480891	 -0.340606	 -0.429852
H	 -2.243098	 1.597649	 0.438609
H	 -1.776542	 0.301208	 1.495542
C	 -3.955933	 -0.460128	 -0.060472
H	 -2.393755	 -0.020485	 -1.464726
H	 -2.024244	 -1.323637	 -0.374360
H	 -4.467673	 -1.160944	 -0.709827
H	 -4.458917	 0.497287	 -0.144505
H	 -4.076458	 -0.806900	 0.960497

	symmetry c1
}
set optking {
	frozen_dihedral = ("
		5 3 4 7
	")
}

ee,wfn = optimize('scf', return_wfn=True)
oeprop( wfn, 'DIPOLE', 'QUADRUPOLE', 'MULLIKEN_CHARGES')
f=open( 'psi4out.xyz', 'w' )
f.write( "20  " )
f.write( str(ee) + "\n" )
f.write( MOL.save_string_xyz() )
f.close()
--------------------------------------------------------------------------

    Molecular point group: c1
  Charge       = 0
  Multiplicity = 1
  Basis Set: CC-PVTZ
  Basis Set:
  @DF-RHF Final Energy:  -384.09324390316397
    Total Energy =                       -384.0932439031633407
    Molecular point group: c1
  Basis Set: CC-PVTZ
  Basis Set:
  Basis Set: CC-PVTZ
  Basis Set:
  @DF-RHF Final Energy:  -384.09341948190985
    Total Energy =                       -384.0934194819096206
  Basis Set: CC-PVTZ
  Basis Set:
  Basis Set: CC-PVTZ
  Basis Set:
  @DF-RHF Final Energy:  -384.09377207036272
    Total Energy =                       -384.0937720703626610
  Basis Set: CC-PVTZ
  Basis Set:
  Basis Set: CC-PVTZ
  Basis Set:
  @DF-RHF Final Energy:  -384.09380826726090
    Total Energy =                       -384.0938082672608971
  Basis Set: CC-PVTZ
  Basis Set:
  Basis Set: CC-PVTZ
  Basis Set:
  @DF-RHF Final Energy:  -384.09381006536626
    Total Energy =                       -384.0938100653661991
  Basis Set: CC-PVTZ
  Basis Set:
  Charge       = 0
  Multiplicity = 1
  Basis Set: CC-PVTZ
  Basis Set:

    Orbital Energies (a.u.)
    -----------------------

    Doubly Occupied:

       1A    -20.604289     2A    -20.538534     3A    -11.371931
       4A    -11.236768     5A    -11.231140     6A    -11.222397
       7A    -11.219755     8A    -11.211675     9A     -1.476679
      10A     -1.367412    11A     -1.100830    12A     -1.043406
      13A     -0.961973    14A     -0.865680    15A     -0.825209
      16A     -0.789520    17A     -0.705230    18A     -0.689588
      19A     -0.646644    20A     -0.635202    21A     -0.623089
      22A     -0.594617    23A     -0.580317    24A     -0.555479
      25A     -0.541871    26A     -0.522431    27A     -0.498858
      28A     -0.486087    29A     -0.478653    30A     -0.470954
      31A     -0.459619    32A     -0.437942

  @DF-RHF Final Energy:  -384.09380988622195

   => Energetics <=

    Nuclear Repulsion Energy =            377.2593806285411802
    One-Electron Energy =               -1270.7188214205257282
    Two-Electron Energy =                 509.3656309057623730
    DFT Exchange-Correlation Energy =       0.0000000000000000
    Empirical Dispersion Energy =           0.0000000000000000
    PCM Polarization Energy =               0.0000000000000000
    EFP Energy =                            0.0000000000000000
    Total Energy =                       -384.0938098862221750
    Molecular point group: c1
  Basis Set: CC-PVTZ
  Basis Set:

  -Total Gradient:
     Atom            X                  Y                   Z
    ------   -----------------  -----------------  -----------------
       1        0.000031215815     0.000002256949     0.000028089270
       2        0.000004097453    -0.000065498009    -0.000055132212
       3       -0.000058409848     0.000092419806    -0.000048035141
       4       -0.000026529590     0.000009202096     0.000090768544
       5        0.000038899591    -0.000001458675     0.000034538530
       6       -0.000033847022    -0.000022852285     0.000021227064
       7       -0.000071990580    -0.000101691997    -0.000041918343
       8        0.000008823483     0.000024459988    -0.000059204146
       9        0.000012938617     0.000039970115    -0.000009983170
      10        0.000008358032    -0.000018963246     0.000064319807
      11       -0.000011150195     0.000046758209     0.000001890462
      12        0.000033818368     0.000025189096    -0.000036504481
      13        0.000003531339     0.000002746820    -0.000006269426
      14        0.000001818441     0.000023927885     0.000002413801
      15        0.000007257044    -0.000018420023     0.000017689286
      16       -0.000007771626    -0.000002434695    -0.000002759151
      17        0.000051666697    -0.000033941773    -0.000007429442
      18        0.000007473231    -0.000002252419     0.000003985173
      19        0.000007732685     0.000001367100    -0.000004940896
      20       -0.000007931928    -0.000000784942     0.000007254474

  **** Optimization is complete! (in 6 steps) ****
    Final optimized geometry and variables:
    Molecular point group: c1

    Geometry (in Angstrom), charge = 0, multiplicity = 1:

    H            3.569011986777     0.773358582141     0.574590877834
    O            2.690275144332     0.575683402538     0.862011444589
    C            2.073501797955    -0.099484807422    -0.103909316755
    C            0.647292149032    -0.428170700231     0.241759762642
    O            2.613201249264    -0.377655728428    -1.119171516682
    C           -0.262152167987     0.796492557939     0.069479571595
    H            0.342909748314    -1.233697848600    -0.408259938783
    H            0.609241701231    -0.770947549064     1.268781011697
    C           -1.717308760348     0.543721359307     0.464299743581
    H           -0.217890458224     1.125993255304    -0.963996988000
    H            0.128399012781     1.607014714505     0.673787839344
    C           -2.461736177319    -0.457579784648    -0.416827137670
    H           -2.243433108969     1.493317991230     0.431236252699
    H           -1.756058147867     0.212999165465     1.499487195875
    C           -3.931782029612    -0.596683322763    -0.034432079249
    H           -2.387071337813    -0.144704887780    -1.454762160843
    H           -1.988737055051    -1.432169588575    -0.357047115306
    H           -4.436077465731    -1.313440857832    -0.671901440864
    H           -4.451595169469     0.351064265668    -0.125794360638
    H           -4.039117984987    -0.933693706782     0.991281471495

  Mulliken Charges: (a.u.)
   Center  Symbol    Alpha    Beta     Spin     Total
       1     H     0.38046  0.38046  0.00000  0.23908
       2     O     4.16380  4.16380  0.00000 -0.32759
       3     C     2.80359  2.80359  0.00000  0.39282
       4     C     3.09138  3.09138  0.00000 -0.18275
       5     O     4.19583  4.19583  0.00000 -0.39167
       6     C     3.11164  3.11164  0.00000 -0.22329
       7     H     0.43613  0.43613  0.00000  0.12774
       8     H     0.44297  0.44297  0.00000  0.11406
       9     C     3.09800  3.09800  0.00000 -0.19600
      10     H     0.44412  0.44412  0.00000  0.11177
      11     H     0.43758  0.43758  0.00000  0.12485
      12     C     3.08656  3.08656  0.00000 -0.17311
      13     H     0.44619  0.44619  0.00000  0.10762
      14     H     0.45222  0.45222  0.00000  0.09556
      15     C     3.14970  3.14970  0.00000 -0.29941
      16     H     0.45149  0.45149  0.00000  0.09702
      17     H     0.45263  0.45263  0.00000  0.09474
      18     H     0.44704  0.44704  0.00000  0.10592
      19     H     0.45390  0.45390  0.00000  0.09220
      20     H     0.45478  0.45478  0.00000  0.09044

   Total alpha = 32.00000, Total beta = 32.00000, Total charge = -0.00000

*** Psi4 exiting successfully. Buy a developer a beer!
