  ==> Input File <==

--------------------------------------------------------------------------
set {
	reference rhf
	basis 6-31G*
}

set_num_threads( 4 )
memory 2 gb

molecule MOL {
0 1

H	 -2.646374	 -0.642757	 1.268656
C	 -2.083525	 -0.384536	 0.393091
O	 -0.807605	 -0.127164	 0.768327
F	 -2.118945	 -1.383102	 -0.486752
F	 -2.621877	 0.670592	 -0.209486
C	 0.084052	 0.273579	 -0.209957
C	 -0.733925	 0.585062	 -1.456573
Cl	 1.269357	 -0.999594	 -0.543571
H	 0.626750	 1.159901	 0.068765
F	 0.051458	 0.988229	 -2.432673
F	 -1.575571	 1.560778	 -1.178995
F	 -1.421678	 -0.451750	 -1.868871

	symmetry c1
}
set optking {
	frozen_dihedral = ("
		9 6 3 2
	")
}

ee = optimize('scf')
oeprop('DIPOLE', 'QUADRUPOLE', 'MULLIKEN_CHARGES')
f=open( 'psi4out.xyz', 'w' )
f.write( "12  " )
f.write( str(ee) + "\n" )
f.write( MOL.save_string_xyz() )
f.close()
--------------------------------------------------------------------------

    Molecular point group: c1
  Charge       = 0
  Multiplicity = 1
  Basis Set: 6-31G*
  Basis Set:
  @DF-RHF Final Energy: -1146.12798071452426
    Total Energy =                      -1146.1279807145240284
    Molecular point group: c1
  Basis Set: 6-31G*
  Basis Set:
  Basis Set: 6-31G*
  Basis Set:
  @DF-RHF Final Energy: -1146.20637380086850
    Total Energy =                      -1146.2063738008691871
  Basis Set: 6-31G*
  Basis Set:
  Basis Set: 6-31G*
  Basis Set:
  @DF-RHF Final Energy: -1146.24799146196438
    Total Energy =                      -1146.2479914619639203
  Basis Set: 6-31G*
  Basis Set:
  Basis Set: 6-31G*
  Basis Set:
  @DF-RHF Final Energy: -1146.27270627718326
    Total Energy =                      -1146.2727062771825786
  Basis Set: 6-31G*
  Basis Set:
  @DF-RHF Final Energy: -1146.28683264357915
    Total Energy =                      -1146.2868326435793733
  @DF-RHF Final Energy: -1146.29425122756538
    Total Energy =                      -1146.2942512275662921
  @DF-RHF Final Energy: -1146.29715316525176
    Total Energy =                      -1146.2971531652510748
  @DF-RHF Final Energy: -1146.29835520054121
    Total Energy =                      -1146.2983552005425736
  @DF-RHF Final Energy: -1146.29868067016241
    Total Energy =                      -1146.2986806701630940
  @DF-RHF Final Energy: -1146.29873279794401
    Total Energy =                      -1146.2987327979444672
  @DF-RHF Final Energy: -1146.29874581510558
    Total Energy =                      -1146.2987458151055762
  @DF-RHF Final Energy: -1146.29875915341518
    Total Energy =                      -1146.2987591534151761
  Basis Set: 6-31G*
  Basis Set:
  @DF-RHF Final Energy: -1146.29878434565967
    Total Energy =                      -1146.2987843456598966
  Basis Set: 6-31G*
  Basis Set:
  Basis Set: 6-31G*
  Basis Set:
  @DF-RHF Final Energy: -1146.29880422824272
    Total Energy =                      -1146.2988042282422612
  Basis Set: 6-31G*
  Basis Set:
  Basis Set: 6-31G*
  Basis Set:
  @DF-RHF Final Energy: -1146.29880818879519
    Total Energy =                      -1146.2988081887956469
  Basis Set: 6-31G*
  Basis Set:
  Charge       = 0
  Multiplicity = 1
  Basis Set: 6-31G*
  Basis Set:

    Orbital Energies (a.u.)
    -----------------------

    Doubly Occupied:

       1A   -104.843114     2A    -26.362248     3A    -26.360862
       4A    -26.359990     5A    -26.341428     6A    -26.335667
       7A    -20.643219     8A    -11.532709     9A    -11.486696
      10A    -11.405672    11A    -10.577999    12A     -8.047366
      13A     -8.043774    14A     -8.043708    15A     -1.764796
      16A     -1.710560    17A     -1.661510    18A     -1.657697
      19A     -1.632334    20A     -1.474787    21A     -1.180105
      22A     -1.046175    23A     -0.997859    24A     -0.917336
      25A     -0.860913    26A     -0.854005    27A     -0.848621
      28A     -0.826813    29A     -0.807490    30A     -0.753681
      31A     -0.730931    32A     -0.729075    33A     -0.705981
      34A     -0.693903    35A     -0.679130    36A     -0.674979
      37A     -0.662871    38A     -0.658172    39A     -0.650856
      40A     -0.639772    41A     -0.586284    42A     -0.553989
      43A     -0.523769    44A     -0.475505    45A     -0.467337

  @DF-RHF Final Energy: -1146.29880885577995

   => Energetics <=

    Nuclear Repulsion Energy =            755.7851600002587702
    One-Electron Energy =               -3094.5445645593854351
    Two-Electron Energy =                1192.4605957033465984
    DFT Exchange-Correlation Energy =       0.0000000000000000
    Empirical Dispersion Energy =           0.0000000000000000
    PCM Polarization Energy =               0.0000000000000000
    EFP Energy =                            0.0000000000000000
    Total Energy =                      -1146.2988088557801802
    Molecular point group: c1
  Basis Set: 6-31G*
  Basis Set:

  -Total Gradient:
     Atom            X                  Y                   Z
    ------   -----------------  -----------------  -----------------
       1        0.000003634659    -0.000054596828    -0.000012543906
       2       -0.001703469916     0.006405041107     0.001265998355
       3        0.001697477898    -0.009403469048    -0.002535278654
       4       -0.000052630253    -0.000100435036     0.000154714924
       5        0.000076533287     0.000017367225    -0.000124964297
       6        0.004867338139    -0.000594656377     0.003958409919
       7       -0.000058371254    -0.000111857686    -0.000101002040
       8       -0.000005126567     0.000032970380     0.000041465978
       9       -0.004872197941     0.003676523040    -0.002645570900
      10        0.000044422459     0.000035442147    -0.000012149602
      11       -0.000045101912    -0.000026795485     0.000071571402
      12        0.000047491323     0.000124466567    -0.000060651200

  **** Optimization is complete! (in 16 steps) ****
    Final optimized geometry and variables:
    Molecular point group: c1

    Geometry (in Angstrom), charge = 0, multiplicity = 1:

    H           -1.713600387768    -0.722935953622     2.355323570321
    C           -1.378107376392    -0.497163685538     1.361449694489
    O           -0.069363447110    -0.153803237084     1.465423173075
    F           -1.542742789563    -1.558197899083     0.582327844372
    F           -2.112683301460     0.483174790334     0.854305393894
    C            0.800043971243     0.281604428012     0.475742512061
    C            0.219701431466     0.714126314450    -0.880249450864
    CL           2.043011185346    -0.957825605776     0.229219857849
    H            1.271271090973     1.173486088485     0.850619873822
    F            1.218766617424     1.053530258293    -1.669029119660
    F           -0.528847135122     1.785822531305    -0.718504043201
    F           -0.486686702400    -0.210659542703    -1.479263103007

  Mulliken Charges: (a.u.)
   Center  Symbol    Alpha    Beta     Spin     Total
       1     H     0.40418  0.40418  0.00000  0.19163
       2     C     2.55894  2.55894  0.00000  0.88212
       3     O     4.32126  4.32126  0.00000 -0.64252
       4     F     4.68300  4.68300  0.00000 -0.36600
       5     F     4.68415  4.68415  0.00000 -0.36830
       6     C     3.00173  3.00173  0.00000 -0.00346
       7     C     2.46080  2.46080  0.00000  1.07840
       8    CL     8.50224  8.50224  0.00000 -0.00447
       9     H     0.37120  0.37120  0.00000  0.25760
      10     F     4.67257  4.67257  0.00000 -0.34514
      11     F     4.67445  4.67445  0.00000 -0.34890
      12     F     4.66548  4.66548  0.00000 -0.33097

   Total alpha = 45.00000, Total beta = 45.00000, Total charge = -0.00000
