  ==> Input File <==

--------------------------------------------------------------------------
set {
	reference rhf
	basis 6-31G*
}

set_num_threads( 4 )
memory 2 gb

molecule MOL {
0 1

H	 1.451294	 -0.352755	 -3.017262
C	 1.439099	 -0.067485	 -1.969069
C	 0.085952	 -0.394519	 -1.345242
H	 1.634356	 0.996794	 -1.898724
H	 2.254455	 -0.588643	 -1.479045
N	 -0.000257	 -0.000071	 0.054619
H	 -0.676251	 0.139931	 -1.898222
H	 -0.138043	 -1.457974	 -1.470045
C	 -1.363055	 0.315058	 0.462241
C	 0.640422	 -0.959294	 0.944608
C	 -2.412078	 -0.285320	 -0.468531
H	 -1.482241	 1.391144	 0.451970
H	 -1.549931	 -0.001174	 1.492681
C	 1.174479	 -0.316337	 2.220786
H	 1.475173	 -1.406769	 0.420099
H	 -0.037577	 -1.781067	 1.193194
H	 -2.262839	 0.075384	 -1.480151
H	 -2.369300	 -1.368867	 -0.491760
H	 -3.410332	 -0.003975	 -0.144961
H	 1.891921	 0.458747	 1.975520
H	 0.386903	 0.134962	 2.814591
H	 1.667186	 -1.059625	 2.841343

	symmetry c1
}
set optking {
	frozen_dihedral = ("
		3 6 9 11
	")
}

ee = optimize('scf')
oeprop('DIPOLE', 'QUADRUPOLE', 'MULLIKEN_CHARGES')
f=open( 'psi4out.xyz', 'w' )
f.write( "22  " )
f.write( str(ee) + "\n" )
f.write( MOL.save_string_xyz() )
f.close()
--------------------------------------------------------------------------

    Molecular point group: c1
  Charge       = 0
  Multiplicity = 1
  Basis Set: 6-31G*
  Basis Set:
  @DF-RHF Final Energy:  -290.35422786021792
    Total Energy =                       -290.3542278602183160
    Molecular point group: c1
  Basis Set: 6-31G*
  Basis Set:
  Basis Set: 6-31G*
  Basis Set:
  @DF-RHF Final Energy:  -290.35028167959979
    Total Energy =                       -290.3502816796002435
  Basis Set: 6-31G*
  Basis Set:
  Basis Set: 6-31G*
  Basis Set:
  @DF-RHF Final Energy:  -290.36091361561398
    Total Energy =                       -290.3609136156142085
  Basis Set: 6-31G*
  Basis Set:
  Basis Set: 6-31G*
  Basis Set:
  @DF-RHF Final Energy:  -290.36298154418751
    Total Energy =                       -290.3629815441877327
  Basis Set: 6-31G*
  Basis Set:
  @DF-RHF Final Energy:  -290.36318260194270
    Total Energy =                       -290.3631826019428672
  Basis Set: 6-31G*
  Basis Set:
  @DF-RHF Final Energy:  -290.36335459016919
    Total Energy =                       -290.3633545901695925
  Basis Set: 6-31G*
  Basis Set:
  Basis Set: 6-31G*
  Basis Set:
  @DF-RHF Final Energy:  -290.36334640251226
    Total Energy =                       -290.3633464025119792
  Basis Set: 6-31G*
  Basis Set:
  Basis Set: 6-31G*
  Basis Set:
  @DF-RHF Final Energy:  -290.36338394694610
    Total Energy =                       -290.3633839469464988
  Basis Set: 6-31G*
  Basis Set:
  Charge       = 0
  Multiplicity = 1
  Basis Set: 6-31G*
  Basis Set:

    Orbital Energies (a.u.)
    -----------------------

    Doubly Occupied:

       1A    -15.534147     2A    -11.240841     3A    -11.239552
       4A    -11.238546     5A    -11.210896     6A    -11.203844
       7A    -11.203208     8A     -1.217337     9A     -1.022924
      10A     -1.021578    11A     -0.955429    12A     -0.857061
      13A     -0.844281    14A     -0.759033    15A     -0.656052
      16A     -0.641929    17A     -0.616919    18A     -0.597268
      19A     -0.580624    20A     -0.545353    21A     -0.539605
      22A     -0.516048    23A     -0.511990    24A     -0.503603
      25A     -0.493301    26A     -0.490627    27A     -0.465638
      28A     -0.456438    29A     -0.332069

  @DF-RHF Final Energy:  -290.36338435398727

   => Energetics <=

    Nuclear Repulsion Energy =            337.4470479612831468
    One-Electron Energy =               -1060.6285871186255463
    Two-Electron Energy =                 432.8181548033547870
    DFT Exchange-Correlation Energy =       0.0000000000000000
    Empirical Dispersion Energy =           0.0000000000000000
    PCM Polarization Energy =               0.0000000000000000
    EFP Energy =                            0.0000000000000000
    Total Energy =                       -290.3633843539876125
    Molecular point group: c1
  Basis Set: 6-31G*
  Basis Set:

  -Total Gradient:
     Atom            X                  Y                   Z
    ------   -----------------  -----------------  -----------------
       1       -0.000000337297     0.000006018341    -0.000005838310
       2       -0.000015067745     0.000003023609    -0.000013215258
       3       -0.000593683714    -0.003785947517     0.000947792269
       4        0.000007799238    -0.000002719712     0.000004215993
       5       -0.000011901058     0.000006616051    -0.000007773492
       6        0.000928027190     0.007049921412    -0.002410988957
       7        0.000007021315    -0.000003702703    -0.000011400919
       8       -0.000006677156    -0.000005714684     0.000007323229
       9       -0.000393122334    -0.006458169727     0.003505004829
      10       -0.000021168038     0.000002645735     0.000025035028
      11        0.000113802546     0.003205561303    -0.002064888419
      12        0.000006573945    -0.000014193735    -0.000028942297
      13       -0.000037163314     0.000004918476     0.000019970957
      14        0.000004243780    -0.000003575235     0.000009589488
      15       -0.000015577054     0.000019462853     0.000000393123
      16        0.000002837466    -0.000005867451    -0.000000536158
      17        0.000004883734    -0.000004650184     0.000017640277
      18        0.000015463690     0.000002457472    -0.000007332879
      19       -0.000002726702    -0.000004722668     0.000004689876
      20       -0.000000051018    -0.000009907705    -0.000007258759
      21        0.000006961395    -0.000000167093     0.000002367594
      22       -0.000000138870    -0.000001286839     0.000014152788

  **** Optimization is complete! (in 9 steps) ****
    Final optimized geometry and variables:
    Molecular point group: c1

    Geometry (in Angstrom), charge = 0, multiplicity = 1:

    H            1.666260589830    -0.073835248339    -2.958516239173
    C            1.606060138260     0.162725645269    -1.899716690429
    C            0.214136502444    -0.171464198386    -1.366346625265
    H            1.809351535593     1.220006849461    -1.770603914505
    H            2.391531826441    -0.391972235540    -1.398854059655
    N            0.046702311084     0.206534589783     0.028974210810
    H           -0.494693854809     0.388826525672    -1.960225285650
    H           -0.002769787993    -1.229055641057    -1.537553244395
    C           -1.317751273139     0.527855448412     0.468179402677
    C            0.722397176630    -0.701789773985     0.946552046643
    C           -2.485171633295     0.011099598434    -0.379455839900
    H           -1.417350330155     1.608575236192     0.543145861177
    H           -1.445543964704     0.147698519185     1.474345138235
    C            1.220544407421    -0.000498057309     2.206736220228
    H            1.577380041763    -1.131698775340     0.441708861452
    H            0.078320062015    -1.542740377154     1.219584333143
    H           -2.539778809819     0.487859029049    -1.350192372393
    H           -2.435319528239    -1.062801557087    -0.531704364923
    H           -3.415514548533     0.227990242245     0.137323748108
    H            1.912183571785     0.792157675652     1.943156721655
    H            0.408896511588     0.442432864941     2.774360899596
    H            1.731857805679    -0.704283103078     2.857823007525

  Mulliken Charges: (a.u.)
   Center  Symbol    Alpha    Beta     Spin     Total
       1     H     0.42386  0.42386  0.00000  0.15228
       2     C     3.23571  3.23571  0.00000 -0.47142
       3     C     3.05495  3.05495  0.00000 -0.10991
       4     H     0.41529  0.41529  0.00000  0.16941
       5     H     0.42173  0.42173  0.00000  0.15655
       6     N     3.79350  3.79350  0.00000 -0.58701
       7     H     0.41833  0.41833  0.00000  0.16335
       8     H     0.43268  0.43268  0.00000  0.13464
       9     C     3.04670  3.04670  0.00000 -0.09339
      10     C     3.06026  3.06026  0.00000 -0.12053
      11     C     3.25399  3.25399  0.00000 -0.50798
      12     H     0.41992  0.41992  0.00000  0.16017
      13     H     0.42124  0.42124  0.00000  0.15753
      14     C     3.23428  3.23428  0.00000 -0.46856
      15     H     0.41909  0.41909  0.00000  0.16182
      16     H     0.43286  0.43286  0.00000  0.13429
      17     H     0.41748  0.41748  0.00000  0.16503
      18     H     0.41869  0.41869  0.00000  0.16262
      19     H     0.41788  0.41788  0.00000  0.16423
      20     H     0.41582  0.41582  0.00000  0.16835
      21     H     0.42118  0.42118  0.00000  0.15764
      22     H     0.42456  0.42456  0.00000  0.15088

   Total alpha = 29.00000, Total beta = 29.00000, Total charge = -0.00000
