                              Psi4 1.0.54 Driver

  ==> Input File <==

--------------------------------------------------------------------------
set {
	reference rhf
	basis cc-pvtz
}

set_num_threads( 4 )
memory 2 gb

molecule MOL {
0 1

H	 -2.984433	 -0.226083	 -1.565704
O	 -3.458596	 0.315260	 -0.960865
C	 -3.176635	 -0.080824	 0.355601
C	 -1.763371	 0.265266	 0.799691
H	 -3.321825	 -1.153438	 0.379502
H	 -3.895468	 0.357385	 1.043382
C	 -0.673390	 -0.426948	 -0.013392
H	 -1.631049	 1.344913	 0.747560
H	 -1.664587	 -0.001624	 1.849167
C	 0.737842	 -0.043159	 0.423759
H	 -0.806103	 -0.190518	 -1.063345
H	 -0.797221	 -1.503753	 0.074146
C	 1.824000	 -0.743224	 -0.390623
H	 0.850588	 1.033777	 0.343840
H	 0.868587	 -0.286314	 1.476203
C	 3.255957	 -0.453067	 0.062319
H	 1.718250	 -0.470599	 -1.438164
H	 1.658105	 -1.815850	 -0.339904
C	 3.707029	 0.992337	 -0.133857
H	 3.928201	 -1.104096	 -0.488158
H	 3.362667	 -0.724561	 1.109374
H	 3.605811	 1.294044	 -1.171549
H	 4.748333	 1.111029	 0.143343
H	 3.129882	 1.683078	 0.468956

	symmetry c1
}
set optking {
	frozen_dihedral = ("
		1 2 3 5
	")
}

ee,wfn = optimize('scf', return_wfn=True)
oeprop( wfn, 'DIPOLE', 'QUADRUPOLE', 'MULLIKEN_CHARGES')
f=open( 'psi4out.xyz', 'w' )
f.write( "24  " )
f.write( str(ee) + "\n" )
f.write( MOL.save_string_xyz() )
f.close()
--------------------------------------------------------------------------

    Molecular point group: c1
  Charge       = 0
  Multiplicity = 1
  Basis Set: CC-PVTZ
  Basis Set:
  @DF-RHF Final Energy:  -349.37834615620750
    Total Energy =                       -349.3783461562072716
    Molecular point group: c1
  Basis Set: CC-PVTZ
  Basis Set:
  Basis Set: CC-PVTZ
  Basis Set:
  @DF-RHF Final Energy:  -349.37922050017067
    Total Energy =                       -349.3792205001705042
  Basis Set: CC-PVTZ
  Basis Set:
  Basis Set: CC-PVTZ
  Basis Set:
  @DF-RHF Final Energy:  -349.38008967130804
    Total Energy =                       -349.3800896713080419
  Basis Set: CC-PVTZ
  Basis Set:
  Basis Set: CC-PVTZ
  Basis Set:
  @DF-RHF Final Energy:  -349.38010175186855
    Total Energy =                       -349.3801017518680396
  Basis Set: CC-PVTZ
  Basis Set:
  Basis Set: CC-PVTZ
  Basis Set:
  @DF-RHF Final Energy:  -349.38010475543882
    Total Energy =                       -349.3801047554385377
  Basis Set: CC-PVTZ
  Basis Set:
  Charge       = 0
  Multiplicity = 1
  Basis Set: CC-PVTZ
  Basis Set:

    Orbital Energies (a.u.)
    -----------------------

    Doubly Occupied:

       1A    -20.545296     2A    -11.265085     3A    -11.217114
       4A    -11.214623     5A    -11.213906     6A    -11.213189
       7A    -11.213077     8A    -11.206929     9A     -1.363268
      10A     -1.093366    11A     -1.051310    12A     -0.988747
      13A     -0.919686    14A     -0.853377    15A     -0.797220
      16A     -0.780271    17A     -0.697563    18A     -0.652042
      19A     -0.628952    20A     -0.609779    21A     -0.604668
      22A     -0.587644    23A     -0.562248    24A     -0.538961
      25A     -0.524528    26A     -0.511958    27A     -0.495290
      28A     -0.481729    29A     -0.475873    30A     -0.462129
      31A     -0.457772    32A     -0.447455    33A     -0.424664

  @DF-RHF Final Energy:  -349.38010499268239

   => Energetics <=

    Nuclear Repulsion Energy =            384.8321160753807817
    One-Electron Energy =               -1236.2250140118435411
    Two-Electron Energy =                 502.0127929437802550
    DFT Exchange-Correlation Energy =       0.0000000000000000
    Empirical Dispersion Energy =           0.0000000000000000
    PCM Polarization Energy =               0.0000000000000000
    EFP Energy =                            0.0000000000000000
    Total Energy =                       -349.3801049926825044
    Molecular point group: c1
  Basis Set: CC-PVTZ
  Basis Set:

  -Total Gradient:
     Atom            X                  Y                   Z
    ------   -----------------  -----------------  -----------------
       1       -0.000113430857    -0.000079534406     0.000029985794
       2        0.000201376822     0.000023671990     0.000031489418
       3       -0.000182865906     0.000049214755     0.000051474544
       4       -0.000015820799     0.000046473609    -0.000032136200
       5        0.000092736980    -0.000029871392    -0.000118035825
       6        0.000005123485    -0.000007983806     0.000009692880
       7       -0.000059755879     0.000003466480    -0.000023963062
       8        0.000035968506     0.000031568413     0.000008431946
       9        0.000002934061     0.000002195148     0.000016471880
      10        0.000004146365    -0.000010514484     0.000015935517
      11       -0.000021604951    -0.000004298920     0.000011336815
      12        0.000009543471    -0.000055127759    -0.000014540998
      13       -0.000007049230     0.000045788057    -0.000013543892
      14       -0.000028929707     0.000003737712     0.000003077572
      15        0.000026448131     0.000013424958     0.000024709261
      16       -0.000025348227    -0.000009061415     0.000047025145
      17       -0.000012120884     0.000012198848    -0.000017178851
      18        0.000011597781    -0.000029602270    -0.000028790699
      19        0.000010097565     0.000001861931    -0.000008863096
      20        0.000016753870    -0.000024795628    -0.000012198202
      21        0.000014436204     0.000007313853     0.000043601540
      22       -0.000006019063     0.000012212336    -0.000032054611
      23        0.000028207845    -0.000009136160    -0.000006675113
      24        0.000013574418     0.000006798151     0.000014748234

  **** Optimization is complete! (in 6 steps) ****
    Final optimized geometry and variables:
    Molecular point group: c1

    Geometry (in Angstrom), charge = 0, multiplicity = 1:

    H           -3.194056905930    -0.193035857421    -1.336096796415
    O           -3.572477040266     0.346543292767    -0.667371233474
    C           -3.141935530057    -0.076204626709     0.599481483425
    C           -1.698404894203     0.296261401098     0.902824181592
    H           -3.280629769373    -1.150092467529     0.707996177610
    H           -3.798008573904     0.405632904433     1.311777344447
    C           -0.672482904537    -0.395045667493     0.008419550766
    H           -1.593742182405     1.373466127321     0.815342232451
    H           -1.498777544110     0.042783013195     1.941341107636
    C            0.769691566152    -0.038627938668     0.361097363732
    H           -0.853839564709    -0.127017104214    -1.029116455005
    H           -0.802350522661    -1.473350417951     0.077900908460
    C            1.792801291592    -0.724712840702    -0.541970408011
    H            0.887274283519     1.038805711562     0.305577535996
    H            0.963584365006    -0.314742567470     1.395121071008
    C            3.254043589988    -0.465828876138    -0.170556166739
    H            1.626402282180    -0.416618501524    -1.571851348003
    H            1.616332235496    -1.796720952067    -0.514964063405
    C            3.712265470260     0.979278046159    -0.351931950965
    H            3.881552774680    -1.108235424120    -0.780757230628
    H            3.421284943493    -0.770329100423     0.859348229488
    H            3.549201383119     1.314301320113    -1.371376267770
    H            4.770807002645     1.075967148164    -0.139099003769
    H            3.185199845749     1.658271985198     0.307376858541

  Mulliken Charges: (a.u.)
   Center  Symbol    Alpha    Beta     Spin     Total
       1     H     0.39216  0.39216  0.00000  0.21568
       2     O     4.20592  4.20592  0.00000 -0.41184
       3     C     2.98090  2.98090  0.00000  0.03819
       4     C     3.08741  3.08741  0.00000 -0.17483
       5     H     0.46960  0.46960  0.00000  0.06080
       6     H     0.44844  0.44844  0.00000  0.10313
       7     C     3.10118  3.10118  0.00000 -0.20235
       8     H     0.45116  0.45116  0.00000  0.09769
       9     H     0.45610  0.45610  0.00000  0.08779
      10     C     3.09167  3.09167  0.00000 -0.18335
      11     H     0.45677  0.45677  0.00000  0.08646
      12     H     0.45368  0.45368  0.00000  0.09265
      13     C     3.09475  3.09475  0.00000 -0.18951
      14     H     0.45062  0.45062  0.00000  0.09875
      15     H     0.45441  0.45441  0.00000  0.09118
      16     C     3.09045  3.09045  0.00000 -0.18090
      17     H     0.45426  0.45426  0.00000  0.09149
      18     H     0.45021  0.45021  0.00000  0.09958
      19     C     3.15232  3.15232  0.00000 -0.30464
      20     H     0.44850  0.44850  0.00000  0.10300
      21     H     0.45478  0.45478  0.00000  0.09044
      22     H     0.45477  0.45477  0.00000  0.09046
      23     H     0.44639  0.44639  0.00000  0.10722
      24     H     0.45354  0.45354  0.00000  0.09291

   Total alpha = 33.00000, Total beta = 33.00000, Total charge = -0.00000

*** Psi4 exiting successfully. Buy a developer a beer!
