                              Psi4 1.0.54 Driver

  ==> Input File <==

--------------------------------------------------------------------------
set {
	reference rhf
	basis cc-pvtz
}

set_num_threads( 4 )
memory 2 gb

molecule MOL {
0 1

H	 -2.278370	 -0.259769	 2.492806
C	 -2.057544	 -1.318439	 2.377320
O	 -0.868216	 -1.517538	 1.689279
H	 -1.950552	 -1.760084	 3.357315
H	 -2.896843	 -1.791438	 1.870632
C	 -0.860668	 -1.006383	 0.396877
C	 0.506228	 -1.185118	 -0.214674
H	 -1.593719	 -1.527089	 -0.219134
H	 -1.115603	 0.051175	 0.399702
O	 1.401606	 -0.295166	 0.366636
H	 0.832932	 -2.212056	 -0.066038
H	 0.438970	 -1.005869	 -1.287669
C	 2.714315	 -0.441627	 -0.061017
H	 2.765292	 -0.641548	 -1.128869
H	 3.305661	 0.447341	 0.150952
H	 3.143725	 -1.278506	 0.470147

	symmetry c1
}
set optking {
	frozen_dihedral = ("
		7 10 13 14
	")
}

ee,wfn = optimize('scf', return_wfn=True)
oeprop( wfn, 'DIPOLE', 'QUADRUPOLE', 'MULLIKEN_CHARGES')
f=open( 'psi4out.xyz', 'w' )
f.write( "16  " )
f.write( str(ee) + "\n" )
f.write( MOL.save_string_xyz() )
f.close()
--------------------------------------------------------------------------

    Molecular point group: c1
  Charge       = 0
  Multiplicity = 1
  Basis Set: CC-PVTZ
  Basis Set:
  @DF-RHF Final Energy:  -307.09615422949707
    Total Energy =                       -307.0961542294970172
    Molecular point group: c1
  Basis Set: CC-PVTZ
  Basis Set:
  Basis Set: CC-PVTZ
  Basis Set:
  @DF-RHF Final Energy:  -307.09685257675403
    Total Energy =                       -307.0968525767540882
  Basis Set: CC-PVTZ
  Basis Set:
  Basis Set: CC-PVTZ
  Basis Set:
  @DF-RHF Final Energy:  -307.09703172576587
    Total Energy =                       -307.0970317257658166
  Basis Set: CC-PVTZ
  Basis Set:
  Charge       = 0
  Multiplicity = 1
  Basis Set: CC-PVTZ
  Basis Set:

    Orbital Energies (a.u.)
    -----------------------

    Doubly Occupied:

       1A    -20.547786     2A    -20.546864     3A    -11.267627
       4A    -11.266881     5A    -11.261572     6A    -11.261501
       7A     -1.391216     8A     -1.373931     9A     -1.031997
      10A     -0.937154    11A     -0.892265    12A     -0.824449
      13A     -0.686041    14A     -0.682501    15A     -0.659596
      16A     -0.636915    17A     -0.632188    18A     -0.598574
      19A     -0.550598    20A     -0.537634    21A     -0.509675
      22A     -0.480150    23A     -0.464769    24A     -0.422220
      25A     -0.412863

  @DF-RHF Final Energy:  -307.09703282425573

   => Energetics <=

    Nuclear Repulsion Energy =            258.8618175989943211
    One-Electron Energy =                -932.1637686495565731
    Two-Electron Energy =                 366.2049182263064040
    DFT Exchange-Correlation Energy =       0.0000000000000000
    Empirical Dispersion Energy =           0.0000000000000000
    PCM Polarization Energy =               0.0000000000000000
    EFP Energy =                            0.0000000000000000
    Total Energy =                       -307.0970328242558480
    Molecular point group: c1
  Basis Set: CC-PVTZ
  Basis Set:

  -Total Gradient:
     Atom            X                  Y                   Z
    ------   -----------------  -----------------  -----------------
       1       -0.000000155178     0.000000029771    -0.000001443057
       2        0.000002451101     0.000000892398     0.000011563935
       3       -0.000014692114    -0.000019979266     0.000012462546
       4       -0.000003066768    -0.000001494370     0.000001393217
       5        0.000003926086    -0.000001308566    -0.000002936123
       6        0.000078145815     0.000079142145     0.000066856380
       7       -0.000337488823     0.001258540935    -0.001574070830
       8        0.000057487137    -0.000001202991    -0.000019117805
       9       -0.000021531322     0.000019724431    -0.000008741452
      10        0.000516166166    -0.002573517566     0.002196114999
      11        0.000026540792     0.000025308999     0.000021260853
      12       -0.000002307845    -0.000001367344    -0.000008895646
      13       -0.000063129827     0.003641542017    -0.001111120388
      14       -0.000153163270    -0.002444819396     0.000387347544
      15       -0.000060949943     0.000018445021     0.000011544592
      16       -0.000028232005     0.000000063782     0.000017781234

  **** Optimization is complete! (in 4 steps) ****
    Final optimized geometry and variables:
    Molecular point group: c1

    Geometry (in Angstrom), charge = 0, multiplicity = 1:

    H           -2.396940991170     0.654988843421     1.775218462022
    C           -2.177603179173    -0.400501270221     1.631414941119
    O           -0.997808035310    -0.582542306691     0.922537634777
    H           -2.057172762050    -0.865487306984     2.598971929226
    H           -3.023675595636    -0.861618779035     1.125024683425
    C           -1.007983791312    -0.040602410042    -0.357243247053
    C            0.350310271028    -0.203451765850    -0.991592783747
    H           -1.748837663812    -0.547192804714    -0.975730046161
    H           -1.263319898364     1.016404136866    -0.325814014414
    O            1.250899507538     0.676843737799    -0.403035912411
    H            0.678585647769    -1.233610742536    -0.870079292450
    H            0.269081760860     0.000438505672    -2.058733279247
    C            2.563272413547     0.544020529613    -0.841061697811
    H            2.612735343531     0.363820627411    -1.912520447204
    H            3.091198229011     1.457603844956    -0.609123741191
    H            3.060309035207    -0.284926442115    -0.342324707585

  Mulliken Charges: (a.u.)
   Center  Symbol    Alpha    Beta     Spin     Total
       1     H     0.47015  0.47015  0.00000  0.05971
       2     C     3.03200  3.03200  0.00000 -0.06400
       3     O     4.17055  4.17055  0.00000 -0.34110
       4     H     0.44636  0.44636  0.00000  0.10728
       5     H     0.47368  0.47368  0.00000  0.05264
       6     C     2.96127  2.96127  0.00000  0.07747
       7     C     2.96016  2.96016  0.00000  0.07968
       8     H     0.47607  0.47607  0.00000  0.04787
       9     H     0.47085  0.47085  0.00000  0.05830
      10     O     4.17179  4.17179  0.00000 -0.34359
      11     H     0.47149  0.47149  0.00000  0.05702
      12     H     0.47518  0.47518  0.00000  0.04963
      13     C     3.03105  3.03105  0.00000 -0.06209
      14     H     0.47532  0.47532  0.00000  0.04935
      15     H     0.44858  0.44858  0.00000  0.10285
      16     H     0.46550  0.46550  0.00000  0.06900

   Total alpha = 25.00000, Total beta = 25.00000, Total charge = -0.00000

*** Psi4 exiting successfully. Buy a developer a beer!
