  ==> Input File <==

--------------------------------------------------------------------------
set {
	reference rhf
	basis 6-31G*
}

set_num_threads( 1 )
memory 2 gb

molecule MOL {
0 1

O	 2.056148	 0.913960	 0.809921
C	 1.705091	 0.115954	 0.001797
C	 0.381791	 -0.609817	 0.001258
O	 2.451776	 -0.245209	 -1.034137
C	 -0.823008	 0.326187	 0.001381
H	 0.371250	 -1.265087	 -0.865474
H	 0.370908	 -1.265746	 0.867490
C	 -2.149452	 -0.435131	 -0.000098
H	 -0.770201	 0.977095	 -0.865636
H	 -0.771220	 0.975655	 0.869608
C	 -3.368779	 0.488503	 -0.000883
H	 -2.193746	 -1.087250	 -0.871175
H	 -2.195311	 -1.087803	 0.870418
C	 -4.693822	 -0.272754	 -0.001129
H	 -3.325798	 1.139422	 -0.871284
H	 -3.326423	 1.139959	 0.869145
H	 -4.781274	 -0.907928	 -0.878124
H	 -5.538651	 0.408946	 -0.001420
H	 -4.781694	 -0.907783	 0.875984
C	 3.723564	 0.365705	 -1.153699
H	 3.622781	 1.436956	 -1.252651
H	 4.169055	 -0.051772	 -2.043151
H	 4.334063	 0.144761	 -0.289997

	symmetry c1
}
set optking {
	frozen_dihedral = ("
		15 11 8 12,
		9 5 8 12,
		9 5 3 6,
		1 2 4 20
	")
}

ee = energy('scf')
oeprop('DIPOLE', 'QUADRUPOLE', 'MULLIKEN_CHARGES')
f=open( 'psi4out.xyz', 'w' )
f.write( "23  " )
f.write( str(ee) + "\n" )
f.write( MOL.save_string_xyz() )
f.close()
--------------------------------------------------------------------------

    Molecular point group: c1

    Geometry (in Angstrom), charge = 0, multiplicity = 1:

       Center              X                  Y                   Z               Mass
    ------------   -----------------  -----------------  -----------------  -----------------
           O          2.098605690723     0.836426495149     0.971467669023    15.994914619560
           C          1.747548690723     0.038420495149     0.163343669023    12.000000000000
           C          0.424248690723    -0.687350504851     0.162804669023    12.000000000000
           O          2.494233690723    -0.322742504851    -0.872590330977    15.994914619560
           C         -0.780550309277     0.248653495149     0.162927669023    12.000000000000
           H          0.413707690723    -1.342620504851    -0.703927330977     1.007825032070
           H          0.413365690723    -1.343279504851     1.029036669023     1.007825032070
           C         -2.106994309277    -0.512664504851     0.161448669023    12.000000000000
           H         -0.727743309277     0.899561495149    -0.704089330977     1.007825032070
           H         -0.728762309277     0.898121495149     1.031154669023     1.007825032070
           C         -3.326321309277     0.410969495149     0.160663669023    12.000000000000
           H         -2.151288309277    -1.164783504851    -0.709628330977     1.007825032070
           H         -2.152853309277    -1.165336504851     1.031964669023     1.007825032070
           C         -4.651364309277    -0.350287504851     0.160417669023    12.000000000000
           H         -3.283340309277     1.061888495149    -0.709737330977     1.007825032070
           H         -3.283965309277     1.062425495149     1.030691669023     1.007825032070
           H         -4.738816309277    -0.985461504851    -0.716577330977     1.007825032070
           H         -5.496193309277     0.331412495149     0.160126669023     1.007825032070
           H         -4.739236309277    -0.985316504851     1.037530669023     1.007825032070
           C          3.766021690723     0.288171495149    -0.992152330977    12.000000000000
           H          3.665238690723     1.359422495149    -1.091104330977     1.007825032070
           H          4.211512690723    -0.129305504851    -1.881604330977     1.007825032070
           H          4.376520690723     0.067227495149    -0.128450330977     1.007825032070

  Charge       = 0
  Multiplicity = 1
  Basis Set: 6-31G*
  Basis Set:

    Orbital Energies (a.u.)
    -----------------------

    Doubly Occupied:

       1A    -20.605039     2A    -20.543292     3A    -11.371494
       4A    -11.280283     5A    -11.233492     6A    -11.226084
       7A    -11.220738     8A    -11.218721     9A    -11.211238
      10A     -1.469111    11A     -1.361757    12A     -1.095916
      13A     -1.044810    14A     -0.986996    15A     -0.933152
      16A     -0.846141    17A     -0.797672    18A     -0.770821
      19A     -0.694402    20A     -0.681170    21A     -0.671922
      22A     -0.652730    23A     -0.606198    24A     -0.598868
      25A     -0.576472    26A     -0.570319    27A     -0.545089
      28A     -0.529318    29A     -0.523865    30A     -0.508453
      31A     -0.485973    32A     -0.474596    33A     -0.468136
      34A     -0.465027    35A     -0.454146    36A     -0.430757

  @DF-RHF Final Energy:  -422.97429370860095

   => Energetics <=

    Nuclear Repulsion Energy =            452.5514730817401414
    One-Electron Energy =               -1472.7431203586133961
    Two-Electron Energy =                 597.2173535682713919
    DFT Exchange-Correlation Energy =       0.0000000000000000
    Empirical Dispersion Energy =           0.0000000000000000
    PCM Polarization Energy =               0.0000000000000000
    EFP Energy =                            0.0000000000000000
    Total Energy =                       -422.9742937086018628

  Mulliken Charges: (a.u.)
   Center  Symbol    Alpha    Beta     Spin     Total
       1     O     4.28608  4.28608  0.00000 -0.57216
       2     C     2.60825  2.60825  0.00000  0.78350
       3     C     3.20630  3.20630  0.00000 -0.41260
       4     O     4.30365  4.30365  0.00000 -0.60731
       5     C     3.16032  3.16032  0.00000 -0.32064
       6     H     0.40034  0.40034  0.00000  0.19932
       7     H     0.40135  0.40135  0.00000  0.19730
       8     C     3.15287  3.15287  0.00000 -0.30573
       9     H     0.41617  0.41617  0.00000  0.16765
      10     H     0.40536  0.40536  0.00000  0.18927
      11     C     3.15230  3.15230  0.00000 -0.30459
      12     H     0.42240  0.42240  0.00000  0.15521
      13     H     0.42172  0.42172  0.00000  0.15655
      14     C     3.23981  3.23981  0.00000 -0.47962
      15     H     0.42193  0.42193  0.00000  0.15615
      16     H     0.42063  0.42063  0.00000  0.15874
      17     H     0.42154  0.42154  0.00000  0.15692
      18     H     0.41816  0.41816  0.00000  0.16369
      19     H     0.42119  0.42119  0.00000  0.15762
      20     C     3.09343  3.09343  0.00000 -0.18686
      21     H     0.40884  0.40884  0.00000  0.18232
      22     H     0.40854  0.40854  0.00000  0.18291
      23     H     0.40883  0.40883  0.00000  0.18235

   Total alpha = 36.00000, Total beta = 36.00000, Total charge = -0.00000
