  ==> Input File <==

--------------------------------------------------------------------------
set {
	reference rhf
	basis cc-pvtz
}

set_num_threads( 4 )
memory 2 gb

molecule MOL {
0 1

H	 -2.698799	 -0.000846	 0.036018
C	 -1.694291	 -0.000483	 0.434279
O	 -0.828718	 -0.000608	 -0.655022
H	 -1.576855	 0.881100	 1.056504
H	 -1.576401	 -0.881658	 1.057001
C	 -0.573647	 -1.213794	 -1.319096
C	 0.133566	 -2.230592	 -0.430140
C	 -1.818959	 -1.791607	 -1.982105
H	 0.114822	 -0.926290	 -2.103934
H	 0.989899	 -1.777145	 0.053737
H	 0.482915	 -3.062987	 -1.029990
H	 -0.521049	 -2.631771	 0.334790
H	 -2.316652	 -1.033762	 -2.574571
H	 -1.540620	 -2.608129	 -2.638301
H	 -2.525413	 -2.181030	 -1.258355

	symmetry c1
}
set optking {
	frozen_dihedral = ("
		6 3 2 1
	")
}

ee = optimize('scf')
oeprop('DIPOLE', 'QUADRUPOLE', 'MULLIKEN_CHARGES')
f=open( 'psi4out.xyz', 'w' )
f.write( "15  " )
f.write( str(ee) + "\n" )
f.write( MOL.save_string_xyz() )
f.close()
--------------------------------------------------------------------------

    Molecular point group: c1
  Charge       = 0
  Multiplicity = 1
  Basis Set: CC-PVTZ
  Basis Set:
  @DF-RHF Final Energy:  -232.22358276343866
    Total Energy =                       -232.2235827634388556
    Molecular point group: c1
  Basis Set: CC-PVTZ
  Basis Set:
  Basis Set: CC-PVTZ
  Basis Set:
  @DF-RHF Final Energy:  -232.22539863043784
    Total Energy =                       -232.2253986304376099
  Basis Set: CC-PVTZ
  Basis Set:
  Basis Set: CC-PVTZ
  Basis Set:
  @DF-RHF Final Energy:  -232.22579413584714
    Total Energy =                       -232.2257941358472522
  Basis Set: CC-PVTZ
  Basis Set:
  Basis Set: CC-PVTZ
  Basis Set:
  @DF-RHF Final Energy:  -232.22580269832881
    Total Energy =                       -232.2258026983289483
  Basis Set: CC-PVTZ
  Basis Set:
  Basis Set: CC-PVTZ
  Basis Set:
  @DF-RHF Final Energy:  -232.22580842687418
    Total Energy =                       -232.2258084268742095
  Basis Set: CC-PVTZ
  Basis Set:
  Charge       = 0
  Multiplicity = 1
  Basis Set: CC-PVTZ
  Basis Set:

    Orbital Energies (a.u.)
    -----------------------

    Doubly Occupied:

       1A    -20.541361     2A    -11.272718     3A    -11.258750
       4A    -11.209414     5A    -11.207951     6A     -1.373183
       7A     -1.051395     8A     -0.940705     9A     -0.931209
      10A     -0.781528    11A     -0.676270    12A     -0.642251
      13A     -0.634574    14A     -0.572949    15A     -0.564488
      16A     -0.552868    17A     -0.535018    18A     -0.499653
      19A     -0.497476    20A     -0.444699    21A     -0.408550

  @DF-RHF Final Energy:  -232.22580917799624

   => Energetics <=

    Nuclear Repulsion Energy =            199.0608473736160420
    One-Electron Energy =                -709.3792929675830692
    Two-Electron Energy =                 278.0926364159710147
    DFT Exchange-Correlation Energy =       0.0000000000000000
    Empirical Dispersion Energy =           0.0000000000000000
    PCM Polarization Energy =               0.0000000000000000
    EFP Energy =                            0.0000000000000000
    Total Energy =                       -232.2258091779959841
    Molecular point group: c1
  Basis Set: CC-PVTZ
  Basis Set:

  -Total Gradient:
     Atom            X                  Y                   Z
    ------   -----------------  -----------------  -----------------
       1        0.000114916281     0.001303735525     0.000006847397
       2        0.000308912031    -0.001779245705     0.000337936416
       3       -0.001224228930     0.000678537800    -0.001120206990
       4       -0.000041710837     0.000014293564     0.000044197146
       5        0.000008623912     0.000035736815    -0.000069551182
       6        0.000820177710    -0.000270508310     0.000733536810
       7        0.000019976821    -0.000069106019    -0.000047926581
       8       -0.000022370607     0.000047385273     0.000068012874
       9        0.000008793399     0.000032760404     0.000012427469
      10       -0.000012132162     0.000007999005    -0.000001322754
      11        0.000013629826    -0.000023776417     0.000024971484
      12        0.000014204573    -0.000001888813    -0.000026164978
      13       -0.000001498186     0.000002402838     0.000000275659
      14        0.000029164475     0.000029584659     0.000027355559
      15       -0.000036458306    -0.000007910618     0.000009611673

  **** Optimization is complete! (in 6 steps) ****
    Final optimized geometry and variables:
    Molecular point group: c1

    Geometry (in Angstrom), charge = 0, multiplicity = 1:

    H           -1.792921073509     1.117291696300     0.769329481923
    C           -0.785352594074     1.038418910732     1.166589036211
    O            0.170358719338     1.029730666917     0.154265525040
    H           -0.597107063918     1.912481310834     1.774547184358
    H           -0.729540399098     0.164704120822     1.806426860604
    C            0.407870319211    -0.168738049086    -0.542156419522
    C            1.133971038700    -1.199590908117     0.315280370543
    C           -0.852066080742    -0.732353979247    -1.188418445707
    H            1.081508694706     0.131799827629    -1.335026018393
    H            2.005984621923    -0.753563356216     0.776989401154
    H            1.460879350531    -2.028953847061    -0.301639567439
    H            0.501673042127    -1.604536148861     1.096636353522
    H           -1.348683707163     0.028971919955    -1.777657540725
    H           -0.593832448945    -1.555131967086    -1.844750980945
    H           -1.553654780389    -1.107440726355    -0.451867717425

  Mulliken Charges: (a.u.)
   Center  Symbol    Alpha    Beta     Spin     Total
       1     H     0.46612  0.46612  0.00000  0.06775
       2     C     3.04025  3.04025  0.00000 -0.08049
       3     O     4.18404  4.18404  0.00000 -0.36808
       4     H     0.44277  0.44277  0.00000  0.11446
       5     H     0.47047  0.47047  0.00000  0.05906
       6     C     2.93587  2.93587  0.00000  0.12826
       7     C     3.15374  3.15374  0.00000 -0.30748
       8     C     3.16050  3.16050  0.00000 -0.32101
       9     H     0.44689  0.44689  0.00000  0.10622
      10     H     0.44464  0.44464  0.00000  0.11073
      11     H     0.45130  0.45130  0.00000  0.09739
      12     H     0.45624  0.45624  0.00000  0.08751
      13     H     0.44401  0.44401  0.00000  0.11198
      14     H     0.44824  0.44824  0.00000  0.10352
      15     H     0.45492  0.45492  0.00000  0.09016

   Total alpha = 21.00000, Total beta = 21.00000, Total charge =  0.00000
