  ==> Input File <==

--------------------------------------------------------------------------
set {
	reference rhf
	basis 6-31G*
}

set_num_threads( 4 )
memory 2 gb

molecule MOL {
0 1

H	 1.140107	 -4.734385	 -3.150431
C	 1.169635	 -4.086460	 -2.280332
C	 -0.008851	 -3.113769	 -2.278480
H	 1.157414	 -4.719548	 -1.397565
H	 2.118750	 -3.558044	 -2.294633
C	 -0.004404	 -2.182497	 -1.070544
H	 -0.946413	 -3.660796	 -2.289820
H	 0.013986	 -2.518973	 -3.190121
N	 -1.151324	 -1.296079	 -1.087731
H	 -0.053540	 -2.775066	 -0.160922
H	 0.943993	 -1.636151	 -1.032759
C	 -1.217365	 -0.386708	 0.039277
H	 -1.152313	 -0.769529	 -1.940833
C	 -2.452633	 0.504241	 -0.042481
H	 -1.264515	 -0.982301	 0.947024
H	 -0.321067	 0.236765	 0.124803
C	 -3.758029	 -0.289423	 -0.010781
H	 -2.394220	 1.093569	 -0.952170
H	 -2.440793	 1.210787	 0.785871
H	 -3.816659	 -0.981993	 -0.845726
H	 -4.617837	 0.370165	 -0.069296
H	 -3.847478	 -0.867502	 0.904682

	symmetry c1
}
set optking {
	frozen_dihedral = ("
		15 12 14 18
	")
}

ee = optimize('scf')
oeprop('DIPOLE', 'QUADRUPOLE', 'MULLIKEN_CHARGES')
f=open( 'psi4out.xyz', 'w' )
f.write( "22  " )
f.write( str(ee) + "\n" )
f.write( MOL.save_string_xyz() )
f.close()
--------------------------------------------------------------------------

    Molecular point group: c1
  Charge       = 0
  Multiplicity = 1
  Basis Set: 6-31G*
  Basis Set:
  @DF-RHF Final Energy:  -290.38283332969115
    Total Energy =                       -290.3828333296907545
    Molecular point group: c1
  Basis Set: 6-31G*
  Basis Set:
  Basis Set: 6-31G*
  Basis Set:
  @DF-RHF Final Energy:  -290.38298219419937
    Total Energy =                       -290.3829821941997125
  Basis Set: 6-31G*
  Basis Set:
  Basis Set: 6-31G*
  Basis Set:
  @DF-RHF Final Energy:  -290.38300618059810
    Total Energy =                       -290.3830061805977039
  Basis Set: 6-31G*
  Basis Set:
  Basis Set: 6-31G*
  Basis Set:
  @DF-RHF Final Energy:  -290.38300799789431
    Total Energy =                       -290.3830079978941967
  Basis Set: 6-31G*
  Basis Set:
  Charge       = 0
  Multiplicity = 1
  Basis Set: 6-31G*
  Basis Set:

    Orbital Energies (a.u.)
    -----------------------

    Doubly Occupied:

       1A    -15.534413     2A    -11.238596     3A    -11.238458
       4A    -11.214054     5A    -11.214021     6A    -11.210090
       7A    -11.200189     8A     -1.206340     9A     -1.058170
      10A     -1.021971    11A     -0.925983    12A     -0.874997
      13A     -0.807088    14A     -0.790782    15A     -0.661327
      16A     -0.633681    17A     -0.611920    18A     -0.610527
      19A     -0.571139    20A     -0.564864    21A     -0.537476
      22A     -0.525246    23A     -0.501559    24A     -0.488223
      25A     -0.480974    26A     -0.471341    27A     -0.466923
      28A     -0.450527    29A     -0.358647

  @DF-RHF Final Energy:  -290.38300830933122

   => Energetics <=

    Nuclear Repulsion Energy =            317.6042357334661119
    One-Electron Energy =               -1021.0354302954434615
    Two-Electron Energy =                 413.0481862526463601
    DFT Exchange-Correlation Energy =       0.0000000000000000
    Empirical Dispersion Energy =           0.0000000000000000
    PCM Polarization Energy =               0.0000000000000000
    EFP Energy =                            0.0000000000000000
    Total Energy =                       -290.3830083093309895
    Molecular point group: c1
  Basis Set: 6-31G*
  Basis Set:

  -Total Gradient:
     Atom            X                  Y                   Z
    ------   -----------------  -----------------  -----------------
       1        0.000001082216     0.000000139893    -0.000000455056
       2        0.000000513557     0.000001661275    -0.000003304827
       3        0.000004982339    -0.000002467363     0.000001129512
       4       -0.000001219088    -0.000000174485    -0.000000299705
       5        0.000000311954    -0.000000222883     0.000000916411
       6       -0.000001476112     0.000001403150    -0.000006778004
       7       -0.000000527141     0.000000308683     0.000002670566
       8       -0.000000348630    -0.000001555679    -0.000000752278
       9        0.000009122075     0.000029391726     0.000017287185
      10       -0.000001064024     0.000001078044     0.000001369888
      11        0.000001597657    -0.000004793068    -0.000000955837
      12       -0.000160935442    -0.000234890036    -0.000145861256
      13       -0.000000327116    -0.000005615667    -0.000010454549
      14       -0.000136338477    -0.000202937915    -0.000164140515
      15        0.000147634772     0.000214087966     0.000156353146
      16        0.000004466957    -0.000010991231    -0.000018294051
      17        0.000005650415     0.000019874839     0.000029247756
      18        0.000149014646     0.000211170258     0.000150398692
      19       -0.000015180791     0.000008054183     0.000010700220
      20       -0.000000880903    -0.000007020935    -0.000011186054
      21        0.000005497978    -0.000011147175    -0.000006513125
      22       -0.000011576839    -0.000005353584    -0.000001078120

  **** Optimization is complete! (in 5 steps) ****
    Final optimized geometry and variables:
    Molecular point group: c1

    Geometry (in Angstrom), charge = 0, multiplicity = 1:

    H            2.221172575388    -3.177498306755    -2.182608817709
    C            2.239857784357    -2.534349442759    -1.308669748650
    C            1.065012055878    -1.557366169490    -1.319590548982
    H            2.211885197324    -3.172028263170    -0.429615696322
    H            3.190965258832    -2.009351941370    -1.305733536945
    C            1.054176239545    -0.633096524453    -0.106367801985
    H            0.125815003767    -2.100933827628    -1.348482256008
    H            1.104126452128    -0.957483235770    -2.227395373636
    N           -0.088827583801     0.257966082005    -0.135873413408
    H            0.988944526249    -1.230427611760     0.798999060053
    H            2.003717014028    -0.090206350663    -0.050974446596
    C           -0.164574720183     1.165219577466     0.993057773047
    H           -0.075359984645     0.788893785645    -0.986561828206
    C           -1.404229126850     2.054702551784     0.923558693831
    H           -0.201604444716     0.568812355318     1.900864109092
    H            0.726040999663     1.796137997809     1.074233511178
    C           -2.720552781418     1.280906612978     0.977303529339
    H           -1.364836761900     2.651267329006     0.013198438535
    H           -1.362415042077     2.762751805431     1.747886942579
    H           -2.795423645879     0.579379429825     0.155858087716
    H           -3.569272371197     1.956698103168     0.928966754157
    H           -2.799333572178     0.716649536188     1.902576526640

  Mulliken Charges: (a.u.)
   Center  Symbol    Alpha    Beta     Spin     Total
       1     H     0.41766  0.41766  0.00000  0.16469
       2     C     3.24333  3.24333  0.00000 -0.48667
       3     C     3.15562  3.15562  0.00000 -0.31124
       4     H     0.42062  0.42062  0.00000  0.15877
       5     H     0.42159  0.42159  0.00000  0.15682
       6     C     3.04610  3.04610  0.00000 -0.09220
       7     H     0.41313  0.41313  0.00000  0.17375
       8     H     0.42665  0.42665  0.00000  0.14670
       9     N     3.85559  3.85559  0.00000 -0.71119
      10     H     0.42142  0.42142  0.00000  0.15715
      11     H     0.43634  0.43634  0.00000  0.12732
      12     C     3.05230  3.05230  0.00000 -0.10460
      13     H     0.33553  0.33553  0.00000  0.32895
      14     C     3.15817  3.15817  0.00000 -0.31635
      15     H     0.42173  0.42173  0.00000  0.15653
      16     H     0.43366  0.43366  0.00000  0.13267
      17     C     3.23640  3.23640  0.00000 -0.47280
      18     H     0.42645  0.42645  0.00000  0.14710
      19     H     0.42140  0.42140  0.00000  0.15719
      20     H     0.40899  0.40899  0.00000  0.18203
      21     H     0.42331  0.42331  0.00000  0.15338
      22     H     0.42400  0.42400  0.00000  0.15201

   Total alpha = 29.00000, Total beta = 29.00000, Total charge =  0.00000
