                              Psi4 1.0.54 Driver

  ==> Input File <==

--------------------------------------------------------------------------
set {
	reference rhf
	basis cc-pvtz
}

set_num_threads( 4 )
memory 2 gb

molecule MOL {
0 1

O	 3.219313	 0.959291	 -0.614106
C	 2.698710	 0.058177	 -0.050237
C	 1.246364	 -0.005813	 0.348416
O	 3.344101	 -1.038700	 0.312317
C	 0.453207	 1.232821	 -0.049003
H	 0.839270	 -0.907818	 -0.092281
H	 1.216683	 -0.160521	 1.422434
C	 -0.998367	 1.217982	 0.432195
H	 0.481498	 1.345443	 -1.127236
H	 0.951413	 2.105557	 0.354893
C	 -1.882951	 0.151251	 -0.211235
H	 -1.429490	 2.193659	 0.228843
H	 -1.019755	 1.099323	 1.513279
C	 -3.342450	 0.243269	 0.226009
H	 -1.826223	 0.246578	 -1.293162
H	 -1.508033	 -0.839650	 0.027695
C	 -4.234517	 -0.821434	 -0.405970
H	 -3.730149	 1.228245	 -0.022691
H	 -3.398860	 0.159952	 1.308941
C	 -4.671199	 -1.900202	 0.579598
H	 -5.113917	 -0.345885	 -0.831680
H	 -3.707812	 -1.284688	 -1.235930
H	 -5.302122	 -2.639323	 0.099369
H	 -5.231762	 -1.472894	 1.404393
H	 -3.814495	 -2.418369	 0.997652
C	 4.720529	 -1.114346	 0.001449
H	 4.874321	 -1.055557	 -1.065852
H	 5.057824	 -2.067950	 0.373977
H	 5.264321	 -0.313596	 0.480350

	symmetry c1
}
set optking {
	frozen_dihedral = ("
		21 17 14 11
	")
}

ee,wfn = optimize('scf', return_wfn=True)
oeprop( wfn, 'DIPOLE', 'QUADRUPOLE', 'MULLIKEN_CHARGES')
f=open( 'psi4out.xyz', 'w' )
f.write( "29  " )
f.write( str(ee) + "\n" )
f.write( MOL.save_string_xyz() )
f.close()
--------------------------------------------------------------------------

    Molecular point group: c1
  Charge       = 0
  Multiplicity = 1
  Basis Set: CC-PVTZ
  Basis Set:
  @DF-RHF Final Energy:  -501.21953218397994
    Total Energy =                       -501.2195321839797089
    Molecular point group: c1
  Basis Set: CC-PVTZ
  Basis Set:
  Basis Set: CC-PVTZ
  Basis Set:
  @DF-RHF Final Energy:  -501.21977709450869
    Total Energy =                       -501.2197770945087996
  Basis Set: CC-PVTZ
  Basis Set:
  Basis Set: CC-PVTZ
  Basis Set:
  @DF-RHF Final Energy:  -501.21985413167056
    Total Energy =                       -501.2198541316711271
  Basis Set: CC-PVTZ
  Basis Set:
  Basis Set: CC-PVTZ
  Basis Set:
  @DF-RHF Final Energy:  -501.21985485950279
    Total Energy =                       -501.2198548595025613
  Basis Set: CC-PVTZ
  Basis Set:
  Basis Set: CC-PVTZ
  Basis Set:
  @DF-RHF Final Energy:  -501.21986143551487
    Total Energy =                       -501.2198614355154405
  Basis Set: CC-PVTZ
  Basis Set:
  Basis Set: CC-PVTZ
  Basis Set:
  @DF-RHF Final Energy:  -501.21986330561776
    Total Energy =                       -501.2198633056175368
  Basis Set: CC-PVTZ
  Basis Set:
  Charge       = 0
  Multiplicity = 1
  Basis Set: CC-PVTZ
  Basis Set:

    Orbital Energies (a.u.)
    -----------------------

    Doubly Occupied:

       1A    -20.596033     2A    -20.533882     3A    -11.364298
       4A    -11.278279     5A    -11.233012     6A    -11.217119
       7A    -11.215400     8A    -11.214182     9A    -11.213653
      10A    -11.212116    11A    -11.208027    12A     -1.471928
      13A     -1.365515    14A     -1.098887    15A     -1.066529
      16A     -1.019876    17A     -0.977809    18A     -0.928941
      19A     -0.864622    20A     -0.801528    21A     -0.788996
      22A     -0.765879    23A     -0.702999    24A     -0.685536
      25A     -0.676010    26A     -0.645450    27A     -0.626859
      28A     -0.609861    29A     -0.596947    30A     -0.587135
      31A     -0.562984    32A     -0.554049    33A     -0.533690
      34A     -0.529948    35A     -0.519682    36A     -0.508262
      37A     -0.500483    38A     -0.475858    39A     -0.473891
      40A     -0.463511    41A     -0.459457    42A     -0.452557
      43A     -0.443295    44A     -0.436885

  @DF-RHF Final Energy:  -501.21986343400260

   => Energetics <=

    Nuclear Repulsion Energy =            614.4759641087536011
    One-Electron Energy =               -1900.4279438583894262
    Two-Electron Energy =                 784.7321163156327657
    DFT Exchange-Correlation Energy =       0.0000000000000000
    Empirical Dispersion Energy =           0.0000000000000000
    PCM Polarization Energy =               0.0000000000000000
    EFP Energy =                            0.0000000000000000
    Total Energy =                       -501.2198634340031731
    Molecular point group: c1
  Basis Set: CC-PVTZ
  Basis Set:

  -Total Gradient:
     Atom            X                  Y                   Z
    ------   -----------------  -----------------  -----------------
       1       -0.000000015410    -0.000002050588    -0.000000224444
       2        0.000000767210     0.000004895606     0.000005265417
       3       -0.000001094946    -0.000003110647    -0.000007903643
       4       -0.000000125284    -0.000002892426    -0.000004713495
       5        0.000000291897    -0.000002098286    -0.000002399480
       6       -0.000003684266    -0.000000612983     0.000002043533
       7        0.000000377536     0.000002537420     0.000000501162
       8       -0.000000314694     0.000005024702    -0.000001014153
       9        0.000000822054     0.000000143173     0.000002212387
      10       -0.000000683445     0.000000300328     0.000002502323
      11       -0.000331155258     0.001007926111    -0.001407608496
      12       -0.000000171557     0.000000447953     0.000001877449
      13       -0.000001174878    -0.000002773073    -0.000001515526
      14        0.000742746011    -0.001366809897     0.001452191297
      15        0.000000608295     0.000000443287     0.000000870976
      16        0.000005934735    -0.000004097763     0.000002609638
      17       -0.001585261085     0.000190011346     0.002061696578
      18       -0.000000465438     0.000000273244     0.000000979329
      19       -0.000001801465     0.000001439347     0.000001539569
      20       -0.000002104979    -0.000000245621     0.000001334915
      21        0.001176645363     0.000167832045    -0.002111722175
      22       -0.000001864072     0.000001517817    -0.000004188055
      23        0.000001563372     0.000001745016     0.000000346321
      24       -0.000001343506    -0.000001109637     0.000002670487
      25        0.000001209409    -0.000000236230     0.000000655230
      26       -0.000000243065     0.000001827760     0.000002715290
      27       -0.000000987551    -0.000000118994     0.000000267932
      28        0.000000036755     0.000000259823    -0.000000417907
      29        0.000001488248    -0.000000468834    -0.000000572458

  **** Optimization is complete! (in 7 steps) ****
    Final optimized geometry and variables:
    Molecular point group: c1

    Geometry (in Angstrom), charge = 0, multiplicity = 1:

    O            3.120791134427     1.065380007050    -0.690421440937
    C            2.601845833258     0.173803534181    -0.110102356321
    C            1.149903701160     0.115016786806     0.290951390756
    O            3.248994742412    -0.915769844207     0.270870624183
    C            0.355023237162     1.345986297161    -0.126377205749
    H            0.743287656890    -0.794601160621    -0.134350847375
    H            1.121239221171    -0.021884277315     1.367405959775
    C           -1.096254304832     1.337157584594     0.356025213361
    H            0.382436647975     1.440747088627    -1.206341574032
    H            0.852375599809     2.225953072760     0.262623532233
    C           -1.979548893107     0.258763997681    -0.268270239615
    H           -1.529181152388     2.308613558054     0.136266877303
    H           -1.116954657831     1.237158358468     1.439000907291
    C           -3.443674999606     0.366377667768     0.155014965971
    H           -1.918864132773     0.329166297285    -1.351570696898
    H           -1.608168311839    -0.728086688277    -0.005746630202
    C           -4.338552808707    -0.743159736370    -0.430632144014
    H           -3.817279968734     1.338452606233    -0.151236461042
    H           -3.506250987445     0.352016272285     1.239405516736
    C           -4.758965757624    -1.795408279702     0.590676175043
    H           -5.219598623272    -0.305584362933    -0.887169243815
    H           -3.810760435890    -1.234315377150    -1.242900615341
    H           -5.352925563532    -2.576810716365     0.130231837048
    H           -5.350477524350    -1.353431702631     1.385337126166
    H           -3.893297214846    -2.264353204454     1.047573777634
    C            4.625179128475    -0.995165844552    -0.040205966672
    H            4.777677779672    -0.954812175397    -1.108550825868
    H            4.964142079239    -1.941703045098     0.348495642418
    H            5.168524956063    -0.185506034642     0.424003524281

  Mulliken Charges: (a.u.)
   Center  Symbol    Alpha    Beta     Spin     Total
       1     O     4.19697  4.19697  0.00000 -0.39394
       2     C     2.80483  2.80483  0.00000  0.39034
       3     C     3.10172  3.10172  0.00000 -0.20344
       4     O     4.14721  4.14721  0.00000 -0.29441
       5     C     3.09242  3.09242  0.00000 -0.18485
       6     H     0.43921  0.43921  0.00000  0.12157
       7     H     0.43991  0.43991  0.00000  0.12019
       8     C     3.10479  3.10479  0.00000 -0.20959
       9     H     0.44624  0.44624  0.00000  0.10752
      10     H     0.43958  0.43958  0.00000  0.12083
      11     C     3.09289  3.09289  0.00000 -0.18578
      12     H     0.44538  0.44538  0.00000  0.10923
      13     H     0.45324  0.45324  0.00000  0.09352
      14     C     3.09544  3.09544  0.00000 -0.19089
      15     H     0.45204  0.45204  0.00000  0.09592
      16     H     0.45336  0.45336  0.00000  0.09328
      17     C     3.09119  3.09119  0.00000 -0.18239
      18     H     0.44738  0.44738  0.00000  0.10524
      19     H     0.45470  0.45470  0.00000  0.09060
      20     C     3.14689  3.14689  0.00000 -0.29378
      21     H     0.44803  0.44803  0.00000  0.10394
      22     H     0.45500  0.45500  0.00000  0.09001
      23     H     0.44917  0.44917  0.00000  0.10167
      24     H     0.45462  0.45462  0.00000  0.09077
      25     H     0.45580  0.45580  0.00000  0.08839
      26     C     3.03813  3.03813  0.00000 -0.07626
      27     H     0.45435  0.45435  0.00000  0.09130
      28     H     0.44527  0.44527  0.00000  0.10946
      29     H     0.45422  0.45422  0.00000  0.09155

   Total alpha = 44.00000, Total beta = 44.00000, Total charge =  0.00000

*** Psi4 exiting successfully. Buy a developer a beer!
