  ==> Input File <==

--------------------------------------------------------------------------
set {
	reference rhf
	basis 6-31G*
}

set_num_threads( 4 )
memory 2 gb

molecule MOL {
0 1

O	 -1.276010	 1.052711	 -0.768302
C	 -1.204840	 0.067374	 -0.106123
C	 -2.388195	 -0.672128	 0.458071
O	 -0.067104	 -0.527208	 0.221609
H	 -2.388023	 -1.694060	 0.097175
H	 -3.300579	 -0.174919	 0.164318
H	 -2.315377	 -0.706351	 1.539059
C	 0.575016	 -1.379285	 -0.737336
C	 1.411055	 -2.357846	 0.068298
C	 1.402145	 -0.539511	 -1.698213
H	 -0.195179	 -1.905377	 -1.281885
H	 0.786777	 -2.923803	 0.750366
H	 1.913475	 -3.054447	 -0.594765
H	 2.162765	 -1.833179	 0.648222
H	 1.909136	 -1.180447	 -2.412479
H	 0.771537	 0.146906	 -2.248796
H	 2.151685	 0.028621	 -1.156527

	symmetry c1
}
set optking {
	frozen_dihedral = ("
		8 4 2 1
	")
}

ee = optimize('scf')
oeprop('DIPOLE', 'QUADRUPOLE', 'MULLIKEN_CHARGES')
f=open( 'psi4out.xyz', 'w' )
f.write( "17  " )
f.write( str(ee) + "\n" )
f.write( MOL.save_string_xyz() )
f.close()
--------------------------------------------------------------------------

    Molecular point group: c1
  Charge       = 0
  Multiplicity = 1
  Basis Set: 6-31G*
  Basis Set:
  @DF-RHF Final Energy:  -344.89509466474368
    Total Energy =                       -344.8950946647440787
    Molecular point group: c1
  Basis Set: 6-31G*
  Basis Set:
  Basis Set: 6-31G*
  Basis Set:
  @DF-RHF Final Energy:  -344.89343652481728
    Total Energy =                       -344.8934365248171048
  Basis Set: 6-31G*
  Basis Set:
  Basis Set: 6-31G*
  Basis Set:
  @DF-RHF Final Energy:  -344.89615943380130
    Total Energy =                       -344.8961594338013583
  Basis Set: 6-31G*
  Basis Set:
  Basis Set: 6-31G*
  Basis Set:
  @DF-RHF Final Energy:  -344.89642256484791
    Total Energy =                       -344.8964225648480806
  Basis Set: 6-31G*
  Basis Set:
  Basis Set: 6-31G*
  Basis Set:
  @DF-RHF Final Energy:  -344.89642974158437
    Total Energy =                       -344.8964297415844840
  Basis Set: 6-31G*
  Basis Set:
  Charge       = 0
  Multiplicity = 1
  Basis Set: 6-31G*
  Basis Set:

    Orbital Energies (a.u.)
    -----------------------

    Doubly Occupied:

       1A    -20.580679     2A    -20.555458     3A    -11.377012
       4A    -11.301184     5A    -11.235986     6A    -11.222411
       7A    -11.213773     8A     -1.456405     9A     -1.365039
      10A     -1.073892    11A     -1.009336    12A     -0.948784
      13A     -0.844716    14A     -0.770882    15A     -0.691914
      16A     -0.674113    17A     -0.651235    18A     -0.613541
      19A     -0.591477    20A     -0.586558    21A     -0.555681
      22A     -0.549882    23A     -0.549030    24A     -0.516537
      25A     -0.502647    26A     -0.483599    27A     -0.445478
      28A     -0.434625

  @DF-RHF Final Energy:  -344.89643067089958

   => Energetics <=

    Nuclear Repulsion Energy =            322.2237978440446113
    One-Electron Energy =               -1108.6367115702421415
    Two-Electron Energy =                 441.5164830552978401
    DFT Exchange-Correlation Energy =       0.0000000000000000
    Empirical Dispersion Energy =           0.0000000000000000
    PCM Polarization Energy =               0.0000000000000000
    EFP Energy =                            0.0000000000000000
    Total Energy =                       -344.8964306708996901
    Molecular point group: c1
  Basis Set: 6-31G*
  Basis Set:

  -Total Gradient:
     Atom            X                  Y                   Z
    ------   -----------------  -----------------  -----------------
       1        0.000140362527     0.002442309251     0.003512828815
       2       -0.000895373291    -0.005050150491    -0.004484547526
       3       -0.000000524693     0.000004095920    -0.000016297564
       4        0.002465104412     0.005230494098    -0.000268875057
       5        0.000010103665     0.000013205791     0.000005364413
       6       -0.000028982065    -0.000000549960     0.000003282978
       7       -0.000001081874    -0.000005857393    -0.000018677940
       8       -0.001649715742    -0.002700180885     0.001176654333
       9       -0.000008065156     0.000009718343     0.000042628779
      10       -0.000019676128     0.000011839750     0.000014616233
      11       -0.000016555036     0.000019816704     0.000019331166
      12        0.000002219309    -0.000006776688     0.000009316171
      13       -0.000012472968     0.000011425233     0.000000585200
      14        0.000008002367    -0.000001501407     0.000002014320
      15       -0.000015416948     0.000004890534     0.000015094719
      16        0.000007091097     0.000010290049    -0.000011111774
      17        0.000014980522     0.000006931149    -0.000002207265

  **** Optimization is complete! (in 6 steps) ****
    Final optimized geometry and variables:
    Molecular point group: c1

    Geometry (in Angstrom), charge = 0, multiplicity = 1:

    O           -1.091328180093     1.626043975666    -0.441790258206
    C           -1.015949790721     0.659791974486     0.236424613521
    C           -2.196697504334    -0.025699648116     0.870542688454
    O            0.162018451312     0.104433886191     0.586229934392
    H           -2.222585780231    -1.069172816397     0.573843145752
    H           -3.115132962712     0.463412003639     0.581184203328
    H           -2.084870510703    -0.000357728140     1.948812442090
    C            0.822727633940    -0.735749950878    -0.369520746152
    C            1.640096817615    -1.730975076373     0.433864223550
    C            1.667544080192     0.103358805006    -1.315715996206
    H            0.063128014888    -1.268491292669    -0.935957292165
    H            1.001401771709    -2.309967875092     1.090818624612
    H            2.164158618952    -2.411729382458    -0.228878257011
    H            2.371553359550    -1.209484438782     1.041270241638
    H            2.162569771438    -0.534920711353    -2.041459606826
    H            1.057241335707     0.822999869553    -1.845057588352
    H            2.424206615936     0.643940952563    -0.757530213559

  Mulliken Charges: (a.u.)
   Center  Symbol    Alpha    Beta     Spin     Total
       1     O     4.25567  4.25567  0.00000 -0.51133
       2     C     2.62460  2.62460  0.00000  0.75081
       3     C     3.28324  3.28324  0.00000 -0.56649
       4     O     4.32338  4.32338  0.00000 -0.64675
       5     H     0.40735  0.40735  0.00000  0.18529
       6     H     0.39787  0.39787  0.00000  0.20427
       7     H     0.39799  0.39799  0.00000  0.20401
       8     C     2.92927  2.92927  0.00000  0.14145
       9     C     3.23908  3.23908  0.00000 -0.47816
      10     C     3.24354  3.24354  0.00000 -0.48709
      11     H     0.42188  0.42188  0.00000  0.15624
      12     H     0.41346  0.41346  0.00000  0.17308
      13     H     0.41821  0.41821  0.00000  0.16358
      14     H     0.41010  0.41010  0.00000  0.17980
      15     H     0.42271  0.42271  0.00000  0.15458
      16     H     0.39876  0.39876  0.00000  0.20248
      17     H     0.41289  0.41289  0.00000  0.17422

   Total alpha = 28.00000, Total beta = 28.00000, Total charge =  0.00000
