  ==> Input File <==

--------------------------------------------------------------------------
set {
	reference rhf
	basis 6-31G*
}

set_num_threads( 1 )
memory 2 gb

molecule MOL {
0 1

H	 3.191260	 0.111045	 -0.529673
N	 2.434251	 -0.367735	 -0.081097
C	 1.267428	 0.496480	 0.024474
H	 2.758527	 -0.632690	 0.829704
C	 -0.016086	 -0.325158	 -0.029487
H	 1.288818	 1.183521	 -0.816092
H	 1.267576	 1.109062	 0.929528
C	 -1.282277	 0.529072	 0.046735
H	 -0.012495	 -0.908639	 -0.945788
H	 -0.015903	 -1.041248	 0.791956
C	 -2.563920	 -0.301775	 -0.006060
H	 -1.284084	 1.244622	 -0.773004
H	 -1.271387	 1.115393	 0.963286
H	 -2.621848	 -0.873522	 -0.927727
H	 -3.445135	 0.329952	 0.047812
H	 -2.609542	 -1.004582	 0.821105

	symmetry c1
}
set optking {
	frozen_dihedral = ("
		6 3 5 9,
		12 8 5 9
	")
}

ee = energy('scf')
oeprop('DIPOLE', 'QUADRUPOLE', 'MULLIKEN_CHARGES')
f=open( 'psi4out.xyz', 'w' )
f.write( "16  " )
f.write( str(ee) + "\n" )
f.write( MOL.save_string_xyz() )
f.close()
--------------------------------------------------------------------------

    Molecular point group: c1

    Geometry (in Angstrom), charge = 0, multiplicity = 1:

       Center              X                  Y                   Z               Mass
    ------------   -----------------  -----------------  -----------------  -----------------
           H          3.188893409396     0.107325239193    -0.525383774164     1.007825032070
           N          2.431884409396    -0.371454760807    -0.076807774164    14.003074004780
           C          1.265061409396     0.492760239193     0.028763225836    12.000000000000
           H          2.756160409396    -0.636409760807     0.833993225836     1.007825032070
           C         -0.018452590604    -0.328877760807    -0.025197774164    12.000000000000
           H          1.286451409396     1.179801239193    -0.811802774164     1.007825032070
           H          1.265209409396     1.105342239193     0.933817225836     1.007825032070
           C         -1.284643590604     0.525352239193     0.051024225836    12.000000000000
           H         -0.014861590604    -0.912358760807    -0.941498774164     1.007825032070
           H         -0.018269590604    -1.044967760807     0.796245225836     1.007825032070
           C         -2.566286590604    -0.305494760807    -0.001770774164    12.000000000000
           H         -1.286450590604     1.240902239193    -0.768714774164     1.007825032070
           H         -1.273753590604     1.111673239193     0.967575225836     1.007825032070
           H         -2.624214590604    -0.877241760807    -0.923437774164     1.007825032070
           H         -3.447501590604     0.326232239193     0.052101225836     1.007825032070
           H         -2.611908590604    -1.008301760807     0.825394225836     1.007825032070

  Charge       = 0
  Multiplicity = 1
  Basis Set: 6-31G*
  Basis Set:

    Orbital Energies (a.u.)
    -----------------------

    Doubly Occupied:

       1A    -15.532708     2A    -11.240178     3A    -11.212311
       4A    -11.206004     5A    -11.204542     6A     -1.176574
       7A     -1.057265     8A     -0.957262     9A     -0.842108
      10A     -0.787669    11A     -0.672874    12A     -0.627208
      13A     -0.608788    14A     -0.575480    15A     -0.555092
      16A     -0.529462    17A     -0.491792    18A     -0.471572
      19A     -0.464304    20A     -0.459524    21A     -0.380156

  @DF-RHF Final Energy:  -212.31536882911089

   => Energetics <=

    Nuclear Repulsion Energy =            186.1203202741802727
    One-Electron Energy =                -654.7655753428732623
    Two-Electron Energy =                 256.3298862395822653
    DFT Exchange-Correlation Energy =       0.0000000000000000
    Empirical Dispersion Energy =           0.0000000000000000
    PCM Polarization Energy =               0.0000000000000000
    EFP Energy =                            0.0000000000000000
    Total Energy =                       -212.3153688291107528

  Mulliken Charges: (a.u.)
   Center  Symbol    Alpha    Beta     Spin     Total
       1     H     0.33169  0.33169  0.00000  0.33662
       2     N     3.92219  3.92219  0.00000 -0.84438
       3     C     3.06716  3.06716  0.00000 -0.13431
       4     H     0.33374  0.33374  0.00000  0.33252
       5     C     3.14120  3.14120  0.00000 -0.28240
       6     H     0.42317  0.42317  0.00000  0.15367
       7     H     0.43139  0.43139  0.00000  0.13722
       8     C     3.15690  3.15690  0.00000 -0.31380
       9     H     0.41611  0.41611  0.00000  0.16778
      10     H     0.42615  0.42615  0.00000  0.14770
      11     C     3.23817  3.23817  0.00000 -0.47634
      12     H     0.42415  0.42415  0.00000  0.15169
      13     H     0.42484  0.42484  0.00000  0.15033
      14     H     0.42093  0.42093  0.00000  0.15814
      15     H     0.42035  0.42035  0.00000  0.15931
      16     H     0.42188  0.42188  0.00000  0.15624

   Total alpha = 21.00000, Total beta = 21.00000, Total charge =  0.00000
