  ==> Input File <==

--------------------------------------------------------------------------
set {
	reference rhf
	basis 6-31G*
}

set_num_threads( 1 )
memory 2 gb

molecule MOL {
0 1

H	 2.176868	 -0.646004	 -0.217325
O	 1.337496	 -0.537251	 0.205931
C	 0.702312	 0.627605	 -0.264544
C	 -0.714990	 0.596302	 0.266387
H	 0.682322	 0.642550	 -1.350929
H	 1.215941	 1.520383	 0.085680
O	 -1.405996	 -0.526611	 -0.195820
H	 -1.257453	 1.468809	 -0.075599
H	 -0.688972	 0.618407	 1.353696
H	 -0.862573	 -1.287102	 -0.033463

	symmetry c1
}
set optking {
	frozen_dihedral = ("
		5 3 4 7
	")
}

ee = energy('scf')
oeprop('DIPOLE', 'QUADRUPOLE', 'MULLIKEN_CHARGES')
f=open( 'psi4out.xyz', 'w' )
f.write( "10  " )
f.write( str(ee) + "\n" )
f.write( MOL.save_string_xyz() )
f.close()
--------------------------------------------------------------------------

    Molecular point group: c1

    Geometry (in Angstrom), charge = 0, multiplicity = 1:

       Center              X                  Y                   Z               Mass
    ------------   -----------------  -----------------  -----------------  -----------------
           H          2.176412578552    -0.646095495381    -0.216422933405     1.007825032070
           O          1.337040578552    -0.537342495381     0.206833066595    15.994914619560
           C          0.701856578552     0.627513504619    -0.263641933405    12.000000000000
           C         -0.715445421448     0.596210504619     0.267289066595    12.000000000000
           H          0.681866578552     0.642458504619    -1.350026933405     1.007825032070
           H          1.215485578552     1.520291504619     0.086582066595     1.007825032070
           O         -1.406451421448    -0.526702495381    -0.194917933405    15.994914619560
           H         -1.257908421448     1.468717504619    -0.074696933405     1.007825032070
           H         -0.689427421448     0.618315504619     1.354598066595     1.007825032070
           H         -0.863028421448    -1.287193495381    -0.032560933405     1.007825032070

  Charge       = 0
  Multiplicity = 1
  Basis Set: 6-31G*
  Basis Set:

    Orbital Energies (a.u.)
    -----------------------

    Doubly Occupied:

       1A    -20.570752     2A    -20.547677     3A    -11.277107
       4A    -11.267941     5A     -1.383344     6A     -1.350421
       7A     -1.002276     8A     -0.843830     9A     -0.729406
      10A     -0.676577    11A     -0.651132    12A     -0.603510
      13A     -0.574341    14A     -0.532840    15A     -0.488840
      16A     -0.455158    17A     -0.431969

  @DF-RHF Final Energy:  -228.92551883961966

   => Energetics <=

    Nuclear Repulsion Energy =            134.6642765441675920
    One-Electron Energy =                -580.4054205207969517
    Two-Electron Energy =                 216.8156251370098460
    DFT Exchange-Correlation Energy =       0.0000000000000000
    Empirical Dispersion Energy =           0.0000000000000000
    PCM Polarization Energy =               0.0000000000000000
    EFP Energy =                            0.0000000000000000
    Total Energy =                       -228.9255188396195138

  Mulliken Charges: (a.u.)
   Center  Symbol    Alpha    Beta     Spin     Total
       1     H     0.27619  0.27619  0.00000  0.44763
       2     O     4.37753  4.37753  0.00000 -0.75505
       3     C     3.01433  3.01433  0.00000 -0.02865
       4     C     2.99484  2.99484  0.00000  0.01031
       5     H     0.42268  0.42268  0.00000  0.15465
       6     H     0.42760  0.42760  0.00000  0.14481
       7     O     4.37378  4.37378  0.00000 -0.74755
       8     H     0.41727  0.41727  0.00000  0.16547
       9     H     0.42343  0.42343  0.00000  0.15314
      10     H     0.27237  0.27237  0.00000  0.45525

   Total alpha = 17.00000, Total beta = 17.00000, Total charge = -0.00000
