                              Psi4 1.0.54 Driver

  ==> Input File <==

--------------------------------------------------------------------------
set {
	reference rhf
	basis cc-pvtz
}

set_num_threads( 4 )
memory 2 gb

molecule MOL {
0 1

H	 -3.941973	 0.934228	 -0.390224
C	 -3.240162	 0.342701	 0.161016
C	 -2.105997	 -0.000418	 -0.398703
H	 -3.485368	 0.047206	 1.162193
O	 -1.189946	 -0.765863	 0.237511
H	 -1.846458	 0.297311	 -1.398265
C	 0.026572	 -0.995256	 -0.379403
C	 1.057223	 0.049888	 -0.004615
H	 -0.054361	 -1.010670	 -1.459674
H	 0.397526	 -1.952058	 -0.044198
F	 1.683810	 0.457384	 -1.090163
F	 0.505615	 1.104004	 0.557591
F	 1.955775	 -0.419750	 0.826350

	symmetry c1
}
set optking {
	frozen_dihedral = ("
		11 8 7 9
	")
}

ee,wfn = optimize('scf', return_wfn=True)
oeprop( wfn, 'DIPOLE', 'QUADRUPOLE', 'MULLIKEN_CHARGES')
f=open( 'psi4out.xyz', 'w' )
f.write( "13  " )
f.write( str(ee) + "\n" )
f.write( MOL.save_string_xyz() )
f.close()
--------------------------------------------------------------------------

    Molecular point group: c1
  Charge       = 0
  Multiplicity = 1
  Basis Set: CC-PVTZ
  Basis Set:
  @DF-RHF Final Energy:  -527.73534443445214
    Total Energy =                       -527.7353444344524860
    Molecular point group: c1
  Basis Set: CC-PVTZ
  Basis Set:
  Basis Set: CC-PVTZ
  Basis Set:
  @DF-RHF Final Energy:  -527.73590036000803
    Total Energy =                       -527.7359003600082588
  Basis Set: CC-PVTZ
  Basis Set:
  Basis Set: CC-PVTZ
  Basis Set:
  @DF-RHF Final Energy:  -527.73609532405862
    Total Energy =                       -527.7360953240586241
  Basis Set: CC-PVTZ
  Basis Set:
  Basis Set: CC-PVTZ
  Basis Set:
  @DF-RHF Final Energy:  -527.73611243356208
    Total Energy =                       -527.7361124335616296
  Basis Set: CC-PVTZ
  Basis Set:
  Basis Set: CC-PVTZ
  Basis Set:
  @DF-RHF Final Energy:  -527.73611809725151
    Total Energy =                       -527.7361180972513921
  Basis Set: CC-PVTZ
  Basis Set:
  Basis Set: CC-PVTZ
  Basis Set:
  @DF-RHF Final Energy:  -527.73612182180682
    Total Energy =                       -527.7361218218069325
  Basis Set: CC-PVTZ
  Basis Set:
  Basis Set: CC-PVTZ
  Basis Set:
  @DF-RHF Final Energy:  -527.73612322225267
    Total Energy =                       -527.7361232222521039
  Basis Set: CC-PVTZ
  Basis Set:
  Charge       = 0
  Multiplicity = 1
  Basis Set: CC-PVTZ
  Basis Set:

    Orbital Energies (a.u.)
    -----------------------

    Doubly Occupied:

       1A    -26.340011     2A    -26.339534     3A    -26.339351
       4A    -20.603637     5A    -11.499611     6A    -11.319681
       7A    -11.298432     8A    -11.214243     9A     -1.750707
      10A     -1.646131    11A     -1.645181    12A     -1.444535
      13A     -1.084575    14A     -1.019206    15A     -0.932587
      16A     -0.844169    17A     -0.837938    18A     -0.828228
      19A     -0.795795    20A     -0.732056    21A     -0.723163
      22A     -0.701929    23A     -0.680376    24A     -0.668003
      25A     -0.662223    26A     -0.650015    27A     -0.634251
      28A     -0.587331    29A     -0.564881    30A     -0.529566
      31A     -0.516041    32A     -0.357025

  @DF-RHF Final Energy:  -527.73612375026403

   => Energetics <=

    Nuclear Repulsion Energy =            412.8327767746927748
    One-Electron Energy =               -1549.5569778257245162
    Two-Electron Energy =                 608.9880773007680546
    DFT Exchange-Correlation Energy =       0.0000000000000000
    Empirical Dispersion Energy =           0.0000000000000000
    PCM Polarization Energy =               0.0000000000000000
    EFP Energy =                            0.0000000000000000
    Total Energy =                       -527.7361237502636868
    Molecular point group: c1
  Basis Set: CC-PVTZ
  Basis Set:

  -Total Gradient:
     Atom            X                  Y                   Z
    ------   -----------------  -----------------  -----------------
       1        0.000007007069    -0.000013856284     0.000004177028
       2        0.000011633244    -0.000005000543     0.000017910095
       3        0.000057598950     0.000037725871     0.000002047399
       4        0.000020518153     0.000017204535    -0.000040731607
       5       -0.000087678719    -0.000048299002     0.000022049345
       6       -0.000019907604    -0.000027806114     0.000035759085
       7       -0.003204382954     0.003353988817    -0.000053621664
       8        0.002772255622    -0.002974399736     0.000423180361
       9        0.002239050218    -0.002254259973    -0.000054974921
      10       -0.000034059075     0.000004763856     0.000004102981
      11       -0.001738186688     0.001933952367    -0.000424522368
      12       -0.000018792401    -0.000030810139     0.000024520905
      13       -0.000005055817     0.000006796347     0.000040103360

  **** Optimization is complete! (in 8 steps) ****
    Final optimized geometry and variables:
    Molecular point group: c1

    Geometry (in Angstrom), charge = 0, multiplicity = 1:

    H           -3.924924738822     0.995012423036    -0.323345311814
    C           -3.260226243014     0.331979705550     0.191270521894
    C           -2.092334582539     0.053364187849    -0.333555438375
    H           -3.568392756639    -0.084782778254     1.129944208033
    O           -1.214754132693    -0.786373962616     0.261308479716
    H           -1.771690466444     0.471478353934    -1.270757394334
    C           -0.002228785181    -1.010258131502    -0.360227732222
    C            1.063271486836     0.044009142250    -0.023162181773
    H           -0.088965121417    -1.066405398207    -1.437733365975
    H            0.366904122213    -1.960744595401    -0.008225271998
    F            1.707815603755     0.414924313460    -1.113587299333
    F            0.543789026351     1.124087445693     0.507074145432
    F            1.958512306766    -0.422751464930     0.819876085481

  Mulliken Charges: (a.u.)
   Center  Symbol    Alpha    Beta     Spin     Total
       1     H     0.42544  0.42544  0.00000  0.14911
       2     C     3.19639  3.19639  0.00000 -0.39277
       3     C     2.95652  2.95652  0.00000  0.08697
       4     H     0.42507  0.42507  0.00000  0.14987
       5     O     4.13952  4.13952  0.00000 -0.27903
       6     H     0.43464  0.43464  0.00000  0.13072
       7     C     3.03492  3.03492  0.00000 -0.06983
       8     C     2.67150  2.67150  0.00000  0.65700
       9     H     0.45447  0.45447  0.00000  0.09106
      10     H     0.43601  0.43601  0.00000  0.12798
      11     F     4.61280  4.61280  0.00000 -0.22560
      12     F     4.60385  4.60385  0.00000 -0.20770
      13     F     4.60889  4.60889  0.00000 -0.21778

   Total alpha = 32.00000, Total beta = 32.00000, Total charge = -0.00000

*** Psi4 exiting successfully. Buy a developer a beer!
