                              Psi4 1.0.54 Driver

  ==> Input File <==

--------------------------------------------------------------------------
set {
	reference rhf
	basis cc-pvtz
}

set_num_threads( 4 )
memory 2 gb

molecule MOL {
0 1

H	 1.720631	 0.004476	 -2.032429
C	 1.147006	 0.002741	 -1.123416
N	 1.834566	 0.008319	 0.000000
C	 -0.232275	 -0.007588	 -1.179906
C	 1.147006	 0.002741	 1.123416
H	 -0.727426	 -0.015287	 -2.131933
C	 -0.956978	 -0.010723	 -0.000000
H	 1.720631	 0.004476	 2.032429
C	 -0.232275	 -0.007588	 1.179906
C	 -2.462104	 0.007459	 0.000000
H	 -0.727426	 -0.015287	 2.131933
H	 -2.859532	 -0.484465	 -0.877814
H	 -2.859532	 -0.484465	 0.877814
H	 -2.825815	 1.029311	 0.000000

	symmetry c1
}
ee,wfn = energy('scf', return_wfn=True)
oeprop( wfn, 'DIPOLE', 'QUADRUPOLE', 'MULLIKEN_CHARGES')
oeprop( wfn, 'GRID_ESP')
f=open( 'psi4out.xyz', 'w' )
f.write( "14  " )
f.write( str(ee) + "\n" )
f.write( MOL.save_string_xyz() )
f.close()
--------------------------------------------------------------------------

    Molecular point group: c1

    Geometry (in Angstrom), charge = 0, multiplicity = 1:

       Center              X                  Y                   Z               Mass
    ------------   -----------------  -----------------  -----------------  -----------------
           H          1.720584424301     0.004475378203    -2.032429000000     1.007825032070
           C          1.146959424301     0.002740378203    -1.123416000000    12.000000000000
           N          1.834519424301     0.008318378203     0.000000000000    14.003074004780
           C         -0.232321575699    -0.007588621797    -1.179906000000    12.000000000000
           C          1.146959424301     0.002740378203     1.123416000000    12.000000000000
           H         -0.727472575699    -0.015287621797    -2.131933000000     1.007825032070
           C         -0.957024575699    -0.010723621797     0.000000000000    12.000000000000
           H          1.720584424301     0.004475378203     2.032429000000     1.007825032070
           C         -0.232321575699    -0.007588621797     1.179906000000    12.000000000000
           C         -2.462150575699     0.007458378203     0.000000000000    12.000000000000
           H         -0.727472575699    -0.015287621797     2.131933000000     1.007825032070
           H         -2.859578575699    -0.484465621797    -0.877814000000     1.007825032070
           H         -2.859578575699    -0.484465621797     0.877814000000     1.007825032070
           H         -2.825861575699     1.029310378203     0.000000000000     1.007825032070

  Charge       = 0
  Multiplicity = 1
  Basis Set: CC-PVTZ
  Basis Set:

    Orbital Energies (a.u.)
    -----------------------

    Doubly Occupied:

       1A    -15.550601     2A    -11.263365     3A    -11.263331
       4A    -11.259183     5A    -11.231922     6A    -11.227597
       7A    -11.227555     8A     -1.263895     9A     -1.110804
      10A     -1.032532    11A     -0.971716    12A     -0.858870
      13A     -0.824736    14A     -0.698120    15A     -0.674437
      16A     -0.647950    17A     -0.594918    18A     -0.592854
      19A     -0.561484    20A     -0.547775    21A     -0.533281
      22A     -0.507429    23A     -0.410360    24A     -0.369900
      25A     -0.345337

  @DF-RHF Final Energy:  -285.82987914429964

   => Energetics <=

    Nuclear Repulsion Energy =            274.5095513766162867
    One-Electron Energy =                -929.5386341106835744
    Two-Electron Energy =                 369.1992035897676487
    DFT Exchange-Correlation Energy =       0.0000000000000000
    Empirical Dispersion Energy =           0.0000000000000000
    PCM Polarization Energy =               0.0000000000000000
    EFP Energy =                            0.0000000000000000
    Total Energy =                       -285.8298791442996389

  Mulliken Charges: (a.u.)
   Center  Symbol    Alpha    Beta     Spin     Total
       1     H     0.42014  0.42014  0.00000  0.15971
       2     C     3.04917  3.04917  0.00000 -0.09834
       3     N     3.60361  3.60361  0.00000 -0.20722
       4     C     3.08327  3.08327  0.00000 -0.16654
       5     C     3.04918  3.04918  0.00000 -0.09837
       6     H     0.41645  0.41645  0.00000  0.16709
       7     C     2.97301  2.97301  0.00000  0.05398
       8     H     0.42014  0.42014  0.00000  0.15972
       9     C     3.08328  3.08328  0.00000 -0.16656
      10     C     3.14506  3.14506  0.00000 -0.29012
      11     H     0.41645  0.41645  0.00000  0.16710
      12     H     0.44783  0.44783  0.00000  0.10434
      13     H     0.44783  0.44783  0.00000  0.10434
      14     H     0.44457  0.44457  0.00000  0.11087

   Total alpha = 25.00000, Total beta = 25.00000, Total charge =  0.00000

*** Psi4 exiting successfully. Buy a developer a beer!
