                              Psi4 1.0.54 Driver

  ==> Input File <==

--------------------------------------------------------------------------
set {
	reference rhf
	basis cc-pvtz
}

set_num_threads( 4 )
memory 2 gb

molecule MOL {
0 1

H	 -2.708250	 1.625506	 -2.102375
C	 -1.720806	 2.106061	 -2.072261
C	 -1.189422	 2.376092	 -0.690738
O	 -1.165037	 2.379200	 -3.079149
C	 -1.216901	 1.136108	 0.207794
H	 -0.190321	 2.782634	 -0.779367
H	 -1.826016	 3.144879	 -0.258281
C	 -0.247837	 0.040196	 -0.230469
H	 -0.980771	 1.441816	 1.221266
H	 -2.228111	 0.737907	 0.240704
C	 1.181757	 0.280428	 0.247371
H	 -0.259600	 -0.030819	 -1.314870
H	 -0.591284	 -0.923375	 0.136958
C	 2.151032	 -0.811012	 -0.202643
H	 1.515939	 1.247397	 -0.115449
H	 1.191514	 0.341223	 1.333422
C	 3.580021	 -0.656538	 0.320835
H	 2.170545	 -0.847575	 -1.289412
H	 1.766632	 -1.772905	 0.124928
C	 4.327657	 0.562694	 -0.213579
H	 4.138806	 -1.549270	 0.057813
H	 3.561991	 -0.620783	 1.406976
H	 4.355973	 0.557257	 -1.298551
H	 3.867136	 1.491650	 0.100501
H	 5.351524	 0.571613	 0.142204

	symmetry c1
}
set optking {
	frozen_dihedral = ("
		3 5 8 12
	")
}

ee,wfn = optimize('scf', return_wfn=True)
oeprop( wfn, 'DIPOLE', 'QUADRUPOLE', 'MULLIKEN_CHARGES')
f=open( 'psi4out.xyz', 'w' )
f.write( "25  " )
f.write( str(ee) + "\n" )
f.write( MOL.save_string_xyz() )
f.close()
--------------------------------------------------------------------------

    Molecular point group: c1
  Charge       = 0
  Multiplicity = 1
  Basis Set: CC-PVTZ
  Basis Set:
  @DF-RHF Final Energy:  -387.25791470830654
    Total Energy =                       -387.2579147083065436
    Molecular point group: c1
  Basis Set: CC-PVTZ
  Basis Set:
  Basis Set: CC-PVTZ
  Basis Set:
  @DF-RHF Final Energy:  -387.25809391327942
    Total Energy =                       -387.2580939132792537
  Basis Set: CC-PVTZ
  Basis Set:
  Basis Set: CC-PVTZ
  Basis Set:
  @DF-RHF Final Energy:  -387.25806333078850
    Total Energy =                       -387.2580633307887865
  Basis Set: CC-PVTZ
  Basis Set:
  Basis Set: CC-PVTZ
  Basis Set:
  @DF-RHF Final Energy:  -387.25804187415520
    Total Energy =                       -387.2580418741548556
  Basis Set: CC-PVTZ
  Basis Set:
  Basis Set: CC-PVTZ
  Basis Set:
  @DF-RHF Final Energy:  -387.25815738388434
    Total Energy =                       -387.2581573838841678
  Basis Set: CC-PVTZ
  Basis Set:
  Basis Set: CC-PVTZ
  Basis Set:
  @DF-RHF Final Energy:  -387.25815959092836
    Total Energy =                       -387.2581595909273346
  Basis Set: CC-PVTZ
  Basis Set:
  Basis Set: CC-PVTZ
  Basis Set:
  @DF-RHF Final Energy:  -387.25816097524051
    Total Energy =                       -387.2581609752401164
  Basis Set: CC-PVTZ
  Basis Set:
  Charge       = 0
  Multiplicity = 1
  Basis Set: CC-PVTZ
  Basis Set:

    Orbital Energies (a.u.)
    -----------------------

    Doubly Occupied:

       1A    -20.552104     2A    -11.321286     3A    -11.233790
       4A    -11.233017     5A    -11.221344     6A    -11.216032
       7A    -11.214629     8A    -11.213410     9A    -11.206475
      10A     -1.406981    11A     -1.104322    12A     -1.069021
      13A     -1.011916    14A     -0.943345    15A     -0.877448
      16A     -0.821108    17A     -0.787390    18A     -0.777968
      19A     -0.668597    20A     -0.656441    21A     -0.645379
      22A     -0.615916    23A     -0.611464    24A     -0.594420
      25A     -0.570877    26A     -0.548772    27A     -0.542964
      28A     -0.521295    29A     -0.516294    30A     -0.501069
      31A     -0.483030    32A     -0.476772    33A     -0.463104
      34A     -0.455574    35A     -0.443024    36A     -0.412480

  @DF-RHF Final Energy:  -387.25816118882665

   => Energetics <=

    Nuclear Repulsion Energy =            447.7689613077627655
    One-Electron Energy =               -1412.1761261834344623
    Two-Electron Energy =                 577.1490036868452762
    DFT Exchange-Correlation Energy =       0.0000000000000000
    Empirical Dispersion Energy =           0.0000000000000000
    PCM Polarization Energy =               0.0000000000000000
    EFP Energy =                            0.0000000000000000
    Total Energy =                       -387.2581611888264206
    Molecular point group: c1
  Basis Set: CC-PVTZ
  Basis Set:

  -Total Gradient:
     Atom            X                  Y                   Z
    ------   -----------------  -----------------  -----------------
       1        0.000049476108     0.000017524753     0.000022108604
       2       -0.000126278065    -0.000069552579    -0.000099597241
       3       -0.001152987763    -0.000771628465    -0.000924085490
       4        0.000031128071     0.000032815280    -0.000006996346
       5        0.002041445307     0.001385782753     0.001362668303
       6        0.000047945204     0.000030280694    -0.000002236101
       7       -0.000025973236     0.000059278967     0.000032209098
       8       -0.002588484500    -0.002223152882    -0.000267428299
       9       -0.000011499079    -0.000012796781     0.000005941928
      10        0.000001350584     0.000004633882    -0.000009366970
      11        0.000030493905     0.000007921917    -0.000004859082
      12        0.001701912575     0.001529321732    -0.000117755121
      13        0.000006652674     0.000022322304     0.000007634784
      14       -0.000004234127    -0.000009010190     0.000007669277
      15        0.000024085336     0.000007255943     0.000004493157
      16       -0.000005196991    -0.000007415545    -0.000006296401
      17        0.000010611829    -0.000011776271    -0.000016887977
      18       -0.000000295311    -0.000006371203     0.000003982494
      19       -0.000005265759     0.000003385722     0.000008428040
      20       -0.000011197309     0.000004265428     0.000001993253
      21        0.000000719430     0.000004500361    -0.000005632595
      22        0.000000398078    -0.000006837646    -0.000003335338
      23        0.000001148074    -0.000003064474     0.000006504786
      24       -0.000016291687     0.000008822057    -0.000003494597
      25        0.000000336655     0.000003494240     0.000004337832

  **** Optimization is complete! (in 8 steps) ****
    Final optimized geometry and variables:
    Molecular point group: c1

    Geometry (in Angstrom), charge = 0, multiplicity = 1:

    H           -3.382874463560     0.815376483396    -1.470209289873
    C           -2.383771470115     1.271088557312    -1.452018016181
    C           -1.841481392716     1.557010504542    -0.077862217382
    O           -1.822012879663     1.506242208125    -2.465356068689
    C           -1.870329400878     0.321535198970     0.829840845354
    H           -0.846002248194     1.967298299253    -0.180587126772
    H           -2.475494911571     2.328839194019     0.353119947501
    C           -0.888073809826    -0.783939833166     0.423682741152
    H           -1.671785929388     0.629512195043     1.850245222616
    H           -2.881021158836    -0.077183485120     0.829753810925
    C            0.541533384438    -0.543266425508     0.909751706381
    H           -0.871511484509    -0.881292638013    -0.658363798942
    H           -1.238206920264    -1.732463921107     0.817207425149
    C            1.509186395385    -1.636546166694     0.460867814125
    H            0.886869235033     0.421390644399     0.554193178166
    H            0.541942806848    -0.488468349878     1.996135755092
    C            2.932001481749    -1.497758192717     1.005091315232
    H            1.543028760384    -1.660669562371    -0.625693647027
    H            1.113914138844    -2.599520490049     0.773031946184
    C            3.691729985387    -0.273407496074     0.500276513555
    H            3.489878677648    -2.388819640216     0.734334984941
    H            2.900210578480    -1.479899077115     2.091426051133
    H            3.731629131785    -0.259644907146    -0.584078686663
    H            3.232506648129     0.652339109286     0.825489724303
    H            4.711575272415    -0.276247493670     0.867626965779

  Mulliken Charges: (a.u.)
   Center  Symbol    Alpha    Beta     Spin     Total
       1     H     0.46418  0.46418  0.00000  0.07165
       2     C     2.90377  2.90377  0.00000  0.19246
       3     C     3.08936  3.08936  0.00000 -0.17871
       4     O     4.16610  4.16610  0.00000 -0.33220
       5     C     3.12343  3.12343  0.00000 -0.24686
       6     H     0.44261  0.44261  0.00000  0.11477
       7     H     0.44091  0.44091  0.00000  0.11818
       8     C     3.09653  3.09653  0.00000 -0.19305
       9     H     0.44291  0.44291  0.00000  0.11417
      10     H     0.44287  0.44287  0.00000  0.11426
      11     C     3.09104  3.09104  0.00000 -0.18208
      12     H     0.45029  0.45029  0.00000  0.09943
      13     H     0.44510  0.44510  0.00000  0.10980
      14     C     3.09639  3.09639  0.00000 -0.19277
      15     H     0.44961  0.44961  0.00000  0.10078
      16     H     0.45417  0.45417  0.00000  0.09166
      17     C     3.08999  3.08999  0.00000 -0.17999
      18     H     0.45067  0.45067  0.00000  0.09866
      19     H     0.44991  0.44991  0.00000  0.10018
      20     C     3.15309  3.15309  0.00000 -0.30617
      21     H     0.44817  0.44817  0.00000  0.10367
      22     H     0.45518  0.45518  0.00000  0.08963
      23     H     0.45294  0.45294  0.00000  0.09412
      24     H     0.45470  0.45470  0.00000  0.09060
      25     H     0.44609  0.44609  0.00000  0.10783

   Total alpha = 36.00000, Total beta = 36.00000, Total charge = -0.00000

*** Psi4 exiting successfully. Buy a developer a beer!
