                              Psi4 1.0.54 Driver

  ==> Input File <==

--------------------------------------------------------------------------
set {
	reference rhf
	basis cc-pvtz
}

set_num_threads( 4 )
memory 2 gb

molecule MOL {
0 1

H	 3.296519	 -0.413552	 -0.019985
C	 2.237957	 -0.236382	 -0.015243
C	 1.389023	 -1.151165	 0.589584
C	 1.729617	 0.900348	 -0.611021
H	 1.791614	 -2.032224	 1.050506
C	 0.030426	 -0.927676	 0.597887
H	 2.388647	 1.606076	 -1.078036
C	 0.364946	 1.123418	 -0.601875
H	 -0.641719	 -1.622783	 1.060169
C	 -0.486398	 0.214248	 0.000000
H	 -0.037481	 2.006005	 -1.063682
C	 -1.946525	 0.470130	 0.000000
O	 -2.779618	 -0.371226	 0.000000
H	 -2.227127	 1.528393	 0.000000

	symmetry c1
}
set optking {
	frozen_dihedral = ("
		8 10 12 14
	")
}

ee,wfn = optimize('scf', return_wfn=True)
oeprop( wfn, 'DIPOLE', 'QUADRUPOLE', 'MULLIKEN_CHARGES')
f=open( 'psi4out.xyz', 'w' )
f.write( "14  " )
f.write( str(ee) + "\n" )
f.write( MOL.save_string_xyz() )
f.close()
--------------------------------------------------------------------------

    Molecular point group: c1
  Charge       = 0
  Multiplicity = 1
  Basis Set: CC-PVTZ
  Basis Set:
  @DF-RHF Final Energy:  -343.54700278983779
    Total Energy =                       -343.5470027898377907
    Molecular point group: c1
  Basis Set: CC-PVTZ
  Basis Set:
  Basis Set: CC-PVTZ
  Basis Set:
  @DF-RHF Final Energy:  -343.54416927245893
    Total Energy =                       -343.5441692724589302
  Basis Set: CC-PVTZ
  Basis Set:
  Basis Set: CC-PVTZ
  Basis Set:
  @DF-RHF Final Energy:  -343.54682295845635
    Total Energy =                       -343.5468229584564597
  Basis Set: CC-PVTZ
  Basis Set:
  Basis Set: CC-PVTZ
  Basis Set:
  @DF-RHF Final Energy:  -343.54744461773083
    Total Energy =                       -343.5474446177307755
  Basis Set: CC-PVTZ
  Basis Set:
  Basis Set: CC-PVTZ
  Basis Set:
  @DF-RHF Final Energy:  -343.54745760712274
    Total Energy =                       -343.5474576071227943
  Basis Set: CC-PVTZ
  Basis Set:
  Charge       = 0
  Multiplicity = 1
  Basis Set: CC-PVTZ
  Basis Set:

    Orbital Energies (a.u.)
    -----------------------

    Doubly Occupied:

       1A    -20.554778     2A    -11.327968     3A    -11.251628
       4A    -11.248557     5A    -11.246902     6A    -11.245542
       7A    -11.243529     8A    -11.241957     9A     -1.410350
      10A     -1.176568    11A     -1.051156    12A     -1.035587
      13A     -0.892222    14A     -0.847679    15A     -0.795215
      16A     -0.725554    17A     -0.681845    18A     -0.656836
      19A     -0.627224    20A     -0.622330    21A     -0.605972
      22A     -0.556775    23A     -0.530270    24A     -0.510527
      25A     -0.508493    26A     -0.425999    27A     -0.354888
      28A     -0.352242

  @DF-RHF Final Energy:  -343.54746106037635

   => Energetics <=

    Nuclear Repulsion Energy =            323.9563941779657625
    One-Electron Energy =               -1107.5505348299443540
    Two-Electron Energy =                 440.0466795916022420
    DFT Exchange-Correlation Energy =       0.0000000000000000
    Empirical Dispersion Energy =           0.0000000000000000
    PCM Polarization Energy =               0.0000000000000000
    EFP Energy =                            0.0000000000000000
    Total Energy =                       -343.5474610603763495
    Molecular point group: c1
  Basis Set: CC-PVTZ
  Basis Set:

  -Total Gradient:
     Atom            X                  Y                   Z
    ------   -----------------  -----------------  -----------------
       1       -0.000002789895    -0.000009202218    -0.000008652219
       2        0.000004073038     0.000021456628     0.000021362853
       3       -0.000014509618     0.000009787839     0.000038648909
       4       -0.000001320087    -0.000018957990    -0.000021630146
       5        0.000002750908    -0.000005078945    -0.000004023306
       6        0.000019742849    -0.000057356218    -0.000043473640
       7       -0.000004075961     0.000005343214     0.000005140611
       8       -0.000278325893    -0.002240240074    -0.003631100559
       9        0.000002411304     0.000016884051     0.000017560380
      10        0.000322053918     0.003355545923     0.006906631066
      11       -0.000001949693     0.000000600722     0.000002404571
      12        0.000034632923    -0.001235739605    -0.008472521219
      13        0.000006932694    -0.000032919066    -0.000006640155
      14       -0.000089626496     0.000189875736     0.005196292853

  **** Optimization is complete! (in 6 steps) ****
    Final optimized geometry and variables:
    Molecular point group: c1

    Geometry (in Angstrom), charge = 0, multiplicity = 1:

    H            3.291184861713    -0.432940886266    -0.050815511759
    C            2.234488648796    -0.245780153153    -0.033021847186
    C            1.384204207556    -1.152872912032     0.579578197388
    C            1.728477237396     0.895604725055    -0.622633351729
    H            1.783145288591    -2.039215121893     1.033691627596
    C            0.026105494456    -0.921249421784     0.595511558234
    H            2.387023983402     1.592042912345    -1.104271654564
    C            0.367652254911     1.137779076443    -0.587402646941
    H           -0.647286802885    -1.623447186064     1.045587738266
    C           -0.484405053957     0.236699839824     0.025748945013
    H           -0.030466813521     2.028671011252    -1.037364322669
    C           -1.950234805722     0.471996978311    -0.012292453206
    O           -2.766103925798    -0.382855034292     0.051314675778
    H           -2.250928500467     1.524273796267    -0.052168755857

  Mulliken Charges: (a.u.)
   Center  Symbol    Alpha    Beta     Spin     Total
       1     H     0.41977  0.41977  0.00000  0.16047
       2     C     3.07222  3.07222  0.00000 -0.14443
       3     C     3.06990  3.06990  0.00000 -0.13980
       4     C     3.07305  3.07305  0.00000 -0.14609
       5     H     0.41987  0.41987  0.00000  0.16026
       6     C     3.08371  3.08371  0.00000 -0.16742
       7     H     0.42060  0.42060  0.00000  0.15881
       8     C     3.08911  3.08911  0.00000 -0.17822
       9     H     0.41065  0.41065  0.00000  0.17870
      10     C     2.97454  2.97454  0.00000  0.05092
      11     H     0.42321  0.42321  0.00000  0.15358
      12     C     2.91718  2.91718  0.00000  0.16564
      13     O     4.16889  4.16889  0.00000 -0.33778
      14     H     0.45732  0.45732  0.00000  0.08536

   Total alpha = 28.00000, Total beta = 28.00000, Total charge =  0.00000

*** Psi4 exiting successfully. Buy a developer a beer!
