  ==> Input File <==

--------------------------------------------------------------------------
set {
	reference rhf
	basis cc-pvtz
}

set_num_threads( 4 )
memory 2 gb

molecule MOL {
0 1

H	 -3.162190	 0.493205	 -0.000107
C	 -2.363908	 -0.234727	 0.000005
O	 -1.158738	 0.454634	 -0.000087
H	 -2.464314	 -0.863616	 -0.882153
H	 -2.464327	 -0.863359	 0.882345
C	 -0.028611	 -0.359694	 0.000037
C	 1.212847	 0.509314	 -0.000053
H	 -0.034155	 -1.007047	 -0.877198
H	 -0.034195	 -1.006836	 0.877430
C	 2.336420	 -0.080469	 -0.845092
H	 0.945503	 1.493546	 -0.368483
H	 1.544235	 0.638300	 1.024396
H	 2.033731	 -0.195526	 -1.880576
H	 3.209797	 0.559786	 -0.827576
H	 2.636665	 -1.056339	 -0.478217

	symmetry c1
}
set optking {
	frozen_dihedral = ("
		11 7 6 8
	")
}

ee = optimize('scf')
oeprop('DIPOLE', 'QUADRUPOLE', 'MULLIKEN_CHARGES')
f=open( 'psi4out.xyz', 'w' )
f.write( "15  " )
f.write( str(ee) + "\n" )
f.write( MOL.save_string_xyz() )
f.close()
--------------------------------------------------------------------------

    Molecular point group: c1
  Charge       = 0
  Multiplicity = 1
  Basis Set: CC-PVTZ
  Basis Set:
  @DF-RHF Final Energy:  -232.22404570910146
    Total Energy =                       -232.2240457091012900
    Molecular point group: c1
  Basis Set: CC-PVTZ
  Basis Set:
  Basis Set: CC-PVTZ
  Basis Set:
  @DF-RHF Final Energy:  -232.22439658232821
    Total Energy =                       -232.2243965823282679
  Basis Set: CC-PVTZ
  Basis Set:
  Basis Set: CC-PVTZ
  Basis Set:
  @DF-RHF Final Energy:  -232.22447069594699
    Total Energy =                       -232.2244706959470477
  Basis Set: CC-PVTZ
  Basis Set:
  Basis Set: CC-PVTZ
  Basis Set:
  @DF-RHF Final Energy:  -232.22447309091970
    Total Energy =                       -232.2244730909196733
  Basis Set: CC-PVTZ
  Basis Set:
  Charge       = 0
  Multiplicity = 1
  Basis Set: CC-PVTZ
  Basis Set:

    Orbital Energies (a.u.)
    -----------------------

    Doubly Occupied:

       1A    -20.548583     2A    -11.264519     3A    -11.261949
       4A    -11.212458     5A    -11.210319     6A     -1.382523
       7A     -1.056133     8A     -0.956106     9A     -0.878447
      10A     -0.810132    11A     -0.673814    12A     -0.658330
      13A     -0.633680    14A     -0.601837    15A     -0.568085
      16A     -0.543852    17A     -0.500646    18A     -0.491259
      19A     -0.476822    20A     -0.462860    21A     -0.414815

  @DF-RHF Final Energy:  -232.22447342325776

   => Energetics <=

    Nuclear Repulsion Energy =            189.9023262184682892
    One-Electron Energy =                -691.0392536670740355
    Two-Electron Energy =                 268.9124540253479836
    DFT Exchange-Correlation Energy =       0.0000000000000000
    Empirical Dispersion Energy =           0.0000000000000000
    PCM Polarization Energy =               0.0000000000000000
    EFP Energy =                            0.0000000000000000
    Total Energy =                       -232.2244734232577912
    Molecular point group: c1
  Basis Set: CC-PVTZ
  Basis Set:

  -Total Gradient:
     Atom            X                  Y                   Z
    ------   -----------------  -----------------  -----------------
       1       -0.000009910221    -0.000002373256    -0.000002922733
       2        0.000001149652     0.000003249101     0.000003962560
       3        0.000008866138    -0.000014316579     0.000001711131
       4       -0.000006258654     0.000000295034    -0.000002089928
       5       -0.000005197493    -0.000000431894     0.000000880998
       6       -0.002797765252     0.004200801881    -0.001946649253
       7        0.001679622947    -0.002369261189    -0.004474061167
       8        0.002123702282    -0.003131073884     0.002288907725
       9       -0.000028099425     0.000015198324     0.000005008262
      10       -0.000004724791     0.000011588858    -0.000006880073
      11       -0.000942253005     0.001289145513     0.004101968452
      12       -0.000006843824    -0.000011429737     0.000010647144
      13        0.000002096237     0.000004114892     0.000012980687
      14       -0.000001428328    -0.000000308361     0.000001623372
      15       -0.000012956266     0.000004801297     0.000004912823

  **** Optimization is complete! (in 5 steps) ****
    Final optimized geometry and variables:
    Molecular point group: c1

    Geometry (in Angstrom), charge = 0, multiplicity = 1:

    H           -3.142823166804     0.437738818158     0.221737797910
    C           -2.340994160150    -0.286311172424     0.211111416735
    O           -1.139997062446     0.408444000581     0.160315581320
    H           -2.465074739235    -0.932629219361    -0.655374876627
    H           -2.410484968866    -0.898490255566     1.107835971004
    C           -0.008052816546    -0.401401758537     0.130489897154
    C            1.247839279169     0.464999930330     0.148582500725
    H           -0.014628447880    -1.046517401648    -0.748230936321
    H           -0.011953089879    -1.071186486330     0.990562319898
    C            2.402870609453    -0.129145665877    -0.647090292999
    H            0.980174550690     1.448350933778    -0.218321606722
    H            1.557937410625     0.616655743977     1.177510281142
    H            2.149983150460    -0.217674174646    -1.697970776167
    H            3.288306396635     0.490151293285    -0.568397693254
    H            2.662466264540    -1.119181078395    -0.285416537070

  Mulliken Charges: (a.u.)
   Center  Symbol    Alpha    Beta     Spin     Total
       1     H     0.44685  0.44685  0.00000  0.10631
       2     C     3.03047  3.03047  0.00000 -0.06095
       3     O     4.17112  4.17112  0.00000 -0.34224
       4     H     0.47272  0.47272  0.00000  0.05455
       5     H     0.47164  0.47164  0.00000  0.05671
       6     C     2.95907  2.95907  0.00000  0.08186
       7     C     3.08457  3.08457  0.00000 -0.16914
       8     H     0.47621  0.47621  0.00000  0.04759
       9     H     0.47545  0.47545  0.00000  0.04910
      10     C     3.15338  3.15338  0.00000 -0.30676
      11     H     0.44637  0.44637  0.00000  0.10725
      12     H     0.45433  0.45433  0.00000  0.09133
      13     H     0.45395  0.45395  0.00000  0.09211
      14     H     0.44769  0.44769  0.00000  0.10462
      15     H     0.45616  0.45616  0.00000  0.08767

   Total alpha = 21.00000, Total beta = 21.00000, Total charge = -0.00000
