  ==> Input File <==

--------------------------------------------------------------------------
set {
	reference rhf
	basis 6-31G*
}

set_num_threads( 4 )
memory 2 gb

molecule MOL {
0 1

H	 -3.892951	 0.981613	 -0.358725
C	 -3.196921	 0.361773	 0.172313
C	 -2.076860	 -0.007332	 -0.404944
H	 -3.439953	 0.057760	 1.173024
O	 -1.180634	 -0.819263	 0.215062
H	 -1.811520	 0.292194	 -1.403480
C	 0.051604	 -1.018856	 -0.387932
C	 1.043764	 0.054862	 -0.001873
H	 -0.017620	 -1.041351	 -1.469781
H	 0.437898	 -1.966374	 -0.042284
F	 2.211580	 -0.504576	 0.279268
F	 1.238667	 0.919069	 -0.984212
F	 0.652643	 0.732368	 1.057561

	symmetry c1
}
set optking {
	frozen_dihedral = ("
		11 8 7 9
	")
}

ee = optimize('scf')
oeprop('DIPOLE', 'QUADRUPOLE', 'MULLIKEN_CHARGES')
f=open( 'psi4out.xyz', 'w' )
f.write( "13  " )
f.write( str(ee) + "\n" )
f.write( MOL.save_string_xyz() )
f.close()
--------------------------------------------------------------------------

    Molecular point group: c1
  Charge       = 0
  Multiplicity = 1
  Basis Set: 6-31G*
  Basis Set:
  @DF-RHF Final Energy:  -527.52982305444471
    Total Energy =                       -527.5298230544449325
    Molecular point group: c1
  Basis Set: 6-31G*
  Basis Set:
  Basis Set: 6-31G*
  Basis Set:
  @DF-RHF Final Energy:  -527.53031010931841
    Total Energy =                       -527.5303101093188616
  Basis Set: 6-31G*
  Basis Set:
  Basis Set: 6-31G*
  Basis Set:
  @DF-RHF Final Energy:  -527.53051038583612
    Total Energy =                       -527.5305103858363509
  Basis Set: 6-31G*
  Basis Set:
  Basis Set: 6-31G*
  Basis Set:
  @DF-RHF Final Energy:  -527.53054048659760
    Total Energy =                       -527.5305404865974879
  Basis Set: 6-31G*
  Basis Set:
  Basis Set: 6-31G*
  Basis Set:
  @DF-RHF Final Energy:  -527.53055759534163
    Total Energy =                       -527.5305575953414063
  Basis Set: 6-31G*
  Basis Set:
  Basis Set: 6-31G*
  Basis Set:
  @DF-RHF Final Energy:  -527.53055874648771
    Total Energy =                       -527.5305587464881683
  Basis Set: 6-31G*
  Basis Set:
  Charge       = 0
  Multiplicity = 1
  Basis Set: 6-31G*
  Basis Set:

    Orbital Energies (a.u.)
    -----------------------

    Doubly Occupied:

       1A    -26.343211     2A    -26.342406     3A    -26.340312
       4A    -20.606576     5A    -11.504187     6A    -11.318613
       7A    -11.298887     8A    -11.217024     9A     -1.741564
      10A     -1.638559    11A     -1.637689    12A     -1.437074
      13A     -1.080078    14A     -1.015462    15A     -0.925093
      16A     -0.836310    17A     -0.828717    18A     -0.821234
      19A     -0.791795    20A     -0.719848    21A     -0.714936
      22A     -0.694073    23A     -0.675223    24A     -0.660235
      25A     -0.655388    26A     -0.641971    27A     -0.628408
      28A     -0.584490    29A     -0.562780    30A     -0.522787
      31A     -0.511727    32A     -0.352393

  @DF-RHF Final Energy:  -527.53055969914612

   => Energetics <=

    Nuclear Repulsion Energy =            413.8824741011121091
    One-Electron Energy =               -1551.5279657489459169
    Two-Electron Energy =                 610.1149319486873992
    DFT Exchange-Correlation Energy =       0.0000000000000000
    Empirical Dispersion Energy =           0.0000000000000000
    PCM Polarization Energy =               0.0000000000000000
    EFP Energy =                            0.0000000000000000
    Total Energy =                       -527.5305596991463517
    Molecular point group: c1
  Basis Set: 6-31G*
  Basis Set:

  -Total Gradient:
     Atom            X                  Y                   Z
    ------   -----------------  -----------------  -----------------
       1        0.000002515667     0.000005958230     0.000001670872
       2       -0.000011024824    -0.000009102328    -0.000002656983
       3        0.000022018860    -0.000027408805    -0.000001609940
       4       -0.000001157325     0.000000942848    -0.000001353019
       5       -0.000056770246     0.000033154570     0.000045138706
       6       -0.000001977124     0.000011994074     0.000007064151
       7        0.003778827672    -0.003449205404     0.000829706268
       8        0.000497763354     0.000982354545    -0.004391360203
       9       -0.003284207345     0.002750750888     0.000116250836
      10       -0.000008216474     0.000002328426    -0.000000353879
      11       -0.000949311033    -0.000300963480     0.003434437740
      12        0.000006748682     0.000013865015    -0.000040081026
      13        0.000004790135    -0.000014668579     0.000003146481

  **** Optimization is complete! (in 7 steps) ****
    Final optimized geometry and variables:
    Molecular point group: c1

    Geometry (in Angstrom), charge = 0, multiplicity = 1:

    H           -3.800823842906     1.061459100717    -0.321990226678
    C           -3.150463463578     0.372539533284     0.181159430255
    C           -2.029201595714    -0.005080848106    -0.388260675945
    H           -3.439803151902     0.006218295889     1.148197776789
    O           -1.189954189592    -0.902295832102     0.191453188272
    H           -1.719363893187     0.356168681812    -1.354214959621
    C            0.066046084494    -1.063963013970    -0.375021428896
    C            1.030787551827     0.066097705095    -0.006181452283
    H           -0.005042179754    -1.101102685674    -1.456089678244
    H            0.467355147956    -1.991143772289     0.001304266148
    F            2.226823980038    -0.425232616571     0.279332745923
    F            1.182034626077     0.923800405304    -1.005580035931
    F            0.622604688897     0.747772741429     1.041835936627

  Mulliken Charges: (a.u.)
   Center  Symbol    Alpha    Beta     Spin     Total
       1     H     0.40685  0.40685  0.00000  0.18630
       2     C     3.23295  3.23295  0.00000 -0.46591
       3     C     2.90133  2.90133  0.00000  0.19734
       4     H     0.40148  0.40148  0.00000  0.19704
       5     O     4.29796  4.29796  0.00000 -0.59592
       6     H     0.40581  0.40581  0.00000  0.18838
       7     C     3.07695  3.07695  0.00000 -0.15389
       8     C     2.45049  2.45049  0.00000  1.09903
       9     H     0.40196  0.40196  0.00000  0.19608
      10     H     0.38562  0.38562  0.00000  0.22876
      11     F     4.68325  4.68325  0.00000 -0.36649
      12     F     4.68291  4.68291  0.00000 -0.36582
      13     F     4.67244  4.67244  0.00000 -0.34489

   Total alpha = 32.00000, Total beta = 32.00000, Total charge = -0.00000
