  ==> Input File <==

--------------------------------------------------------------------------
set {
	reference rhf
	basis 6-31G*
}

set_num_threads( 4 )
memory 2 gb

molecule MOL {
0 1

H	 0.849402	 1.729797	 0.123999
O	 0.055946	 1.300438	 -0.164479
C	 0.004957	 -0.004114	 0.366649
C	 1.201664	 -0.828089	 -0.095740
C	 -1.317755	 -0.601827	 -0.081511
H	 0.013527	 0.048298	 1.454924
H	 1.216388	 -0.895289	 -1.178704
H	 2.135132	 -0.372895	 0.226467
H	 1.166770	 -1.832878	 0.313827
H	 -1.355732	 -0.658248	 -1.164429
H	 -2.141614	 0.017037	 0.254547
H	 -1.447303	 -1.600817	 0.322594

	symmetry c1
}
set optking {
	frozen_dihedral = ("
		1 2 3 4
	")
}

ee = optimize('scf')
oeprop('DIPOLE', 'QUADRUPOLE', 'MULLIKEN_CHARGES')
f=open( 'psi4out.xyz', 'w' )
f.write( "12  " )
f.write( str(ee) + "\n" )
f.write( MOL.save_string_xyz() )
f.close()
--------------------------------------------------------------------------

    Molecular point group: c1
  Charge       = 0
  Multiplicity = 1
  Basis Set: 6-31G*
  Basis Set:
  @DF-RHF Final Energy:  -193.11532756861322
    Total Energy =                       -193.1153275686132815
    Molecular point group: c1
  Basis Set: 6-31G*
  Basis Set:
  Charge       = 0
  Multiplicity = 1
  Basis Set: 6-31G*
  Basis Set:

    Orbital Energies (a.u.)
    -----------------------

    Doubly Occupied:

       1A    -20.551128     2A    -11.275634     3A    -11.212862
       4A    -11.206558     5A     -1.360407     6A     -1.041595
       7A     -0.939623     8A     -0.801749     9A     -0.699616
      10A     -0.625596    11A     -0.603802    12A     -0.546185
      13A     -0.534771    14A     -0.527825    15A     -0.510116
      16A     -0.467351    17A     -0.429828

  @DF-RHF Final Energy:  -193.11532757283703

   => Energetics <=

    Nuclear Repulsion Energy =            135.5390674124670909
    One-Electron Energy =                -530.6394976912766879
    Two-Electron Energy =                 201.9851027059725368
    DFT Exchange-Correlation Energy =       0.0000000000000000
    Empirical Dispersion Energy =           0.0000000000000000
    PCM Polarization Energy =               0.0000000000000000
    EFP Energy =                            0.0000000000000000
    Total Energy =                       -193.1153275728370602
    Molecular point group: c1
  Basis Set: 6-31G*
  Basis Set:

  -Total Gradient:
     Atom            X                  Y                   Z
    ------   -----------------  -----------------  -----------------
       1        0.000011280110     0.000000985538    -0.000015110096
       2        0.000001331359     0.000004904373     0.000047078944
       3       -0.000017462988    -0.000017062482    -0.000054356993
       4        0.000021797345     0.000003606181     0.000021173959
       5       -0.000015425581    -0.000006250621     0.000006126588
       6        0.000004032928     0.000009307034    -0.000005348434
       7       -0.000011734816     0.000000640028     0.000002661854
       8        0.000010241122     0.000000093188    -0.000003791394
       9        0.000003676562     0.000002686953     0.000002322371
      10        0.000004494538     0.000000793629     0.000002309485
      11       -0.000007856419    -0.000000435103    -0.000003629674
      12       -0.000004374161     0.000000731282     0.000000563390

  **** Optimization is complete! (in 2 steps) ****
    Final optimized geometry and variables:
    Molecular point group: c1

    Geometry (in Angstrom), charge = 0, multiplicity = 1:

    H            0.849403616578     1.729791650813     0.124843901734
    O            0.056025281280     1.300531763374    -0.163998285787
    C            0.004898403647    -0.004259779198     0.366559664231
    C            1.201707039049    -0.828066788282    -0.095872008352
    C           -1.317909743281    -0.601770090876    -0.081718450938
    H            0.013485594607     0.047991615500     1.454863875758
    H            1.215647540112    -0.896217220527    -1.178783991203
    H            2.135250452774    -0.372176909794     0.225288411221
    H            1.167569719997    -1.832525312111     0.314589273085
    H           -1.355580379686    -0.658514208921    -1.164629705351
    H           -2.141752794808     0.017404427744     0.253915018441
    H           -1.447904381224    -1.600593673181     0.322661072659

  Mulliken Charges: (a.u.)
   Center  Symbol    Alpha    Beta     Spin     Total
       1     H     0.28261  0.28261  0.00000  0.43478
       2     O     4.37174  4.37174  0.00000 -0.74348
       3     C     2.91820  2.91820  0.00000  0.16360
       4     C     3.24815  3.24815  0.00000 -0.49629
       5     C     3.23960  3.23960  0.00000 -0.47920
       6     H     0.43049  0.43049  0.00000  0.13901
       7     H     0.41366  0.41366  0.00000  0.17268
       8     H     0.42527  0.42527  0.00000  0.14947
       9     H     0.42041  0.42041  0.00000  0.15918
      10     H     0.41519  0.41519  0.00000  0.16962
      11     H     0.41137  0.41137  0.00000  0.17725
      12     H     0.42331  0.42331  0.00000  0.15338

   Total alpha = 17.00000, Total beta = 17.00000, Total charge = -0.00000
