  ==> Input File <==

--------------------------------------------------------------------------
set {
	reference rhf
	basis 6-31G*
}

set_num_threads( 4 )
memory 2 gb

molecule MOL {
0 1

H	 4.059732	 4.902775	 -0.000121
C	 3.500063	 3.984323	 -0.000085
C	 2.113736	 4.019601	 -0.000019
C	 4.167072	 2.769402	 -0.000103
H	 1.597681	 4.962497	 -0.000005
C	 1.394805	 2.838237	 0.000029
H	 5.241764	 2.744025	 -0.000153
C	 3.449487	 1.585576	 -0.000055
H	 0.321676	 2.846419	 0.000078
C	 2.059976	 1.617553	 0.000010
H	 3.961522	 0.643164	 -0.000067
C	 1.239129	 0.373821	 0.000060
O	 1.970282	 -0.730723	 0.000018
O	 0.048025	 0.362498	 0.000126
C	 3.377318	 -0.566646	 -0.000065
H	 3.695437	 -0.028981	 -0.881264
H	 3.789299	 -1.563704	 0.000236
H	 3.695516	 -0.028316	 0.880770

	symmetry c1
}
set optking {
	frozen_dihedral = ("
		10 12 13 15
	")
}

ee = optimize('scf')
oeprop('DIPOLE', 'QUADRUPOLE', 'MULLIKEN_CHARGES')
f=open( 'psi4out.xyz', 'w' )
f.write( "18  " )
f.write( str(ee) + "\n" )
f.write( MOL.save_string_xyz() )
f.close()
--------------------------------------------------------------------------

    Molecular point group: c1
  Charge       = 0
  Multiplicity = 1
  Basis Set: 6-31G*
  Basis Set:
  @DF-RHF Final Energy:  -457.13186129007829
    Total Energy =                       -457.1318612900786320
    Molecular point group: c1
  Basis Set: 6-31G*
  Basis Set:
  Basis Set: 6-31G*
  Basis Set:
  @DF-RHF Final Energy:  -457.24016761562626
    Total Energy =                       -457.2401676156264330
  Basis Set: 6-31G*
  Basis Set:
  Basis Set: 6-31G*
  Basis Set:
  @DF-RHF Final Energy:  -457.28589688643586
    Total Energy =                       -457.2858968864361486
  Basis Set: 6-31G*
  Basis Set:
  Basis Set: 6-31G*
  Basis Set:
  @DF-RHF Final Energy:  -457.30903489164490
    Total Energy =                       -457.3090348916447283
  Basis Set: 6-31G*
  Basis Set:
  @DF-RHF Final Energy:  -457.31777911995084
    Total Energy =                       -457.3177791199510693
  @DF-RHF Final Energy:  -457.32048231281317
    Total Energy =                       -457.3204823128130556
  @DF-RHF Final Energy:  -457.32121297902711
    Total Energy =                       -457.3212129790267682
  @DF-RHF Final Energy:  -457.32141516974087
    Total Energy =                       -457.3214151697407033
  @DF-RHF Final Energy:  -457.32126877512201
    Total Energy =                       -457.3212687751220074
  Basis Set: 6-31G*
  Basis Set:
  @DF-RHF Final Energy:  -457.32154214784669
    Total Energy =                       -457.3215421478466851
  Basis Set: 6-31G*
  Basis Set:
  Basis Set: 6-31G*
  Basis Set:
  @DF-RHF Final Energy:  -457.32156258073155
    Total Energy =                       -457.3215625807317792
  Basis Set: 6-31G*
  Basis Set:
  Basis Set: 6-31G*
  Basis Set:
  @DF-RHF Final Energy:  -457.32156964393045
    Total Energy =                       -457.3215696439303883
  Basis Set: 6-31G*
  Basis Set:
  Charge       = 0
  Multiplicity = 1
  Basis Set: 6-31G*
  Basis Set:

    Orbital Energies (a.u.)
    -----------------------

    Doubly Occupied:

       1A    -20.601976     2A    -20.534455     3A    -11.382370
       4A    -11.298284     5A    -11.258498     6A    -11.255518
       7A    -11.250732     8A    -11.244675     9A    -11.243889
      10A    -11.240999    11A     -1.463405    12A     -1.361475
      13A     -1.170433    14A     -1.044641    15A     -1.031054
      16A     -0.994493    17A     -0.872852    18A     -0.843573
      19A     -0.786943    20A     -0.737095    21A     -0.691220
      22A     -0.678694    23A     -0.671302    24A     -0.642250
      25A     -0.622988    26A     -0.605631    27A     -0.590884
      28A     -0.572941    29A     -0.542999    30A     -0.513695
      31A     -0.507545    32A     -0.490359    33A     -0.447902
      34A     -0.438327    35A     -0.352283    36A     -0.345575

  @DF-RHF Final Energy:  -457.32157018908936

   => Energetics <=

    Nuclear Repulsion Energy =            494.9606625716650115
    One-Electron Energy =               -1603.9005640353821036
    Two-Electron Energy =                 651.6183312746275078
    DFT Exchange-Correlation Energy =       0.0000000000000000
    Empirical Dispersion Energy =           0.0000000000000000
    PCM Polarization Energy =               0.0000000000000000
    EFP Energy =                            0.0000000000000000
    Total Energy =                       -457.3215701890894707
    Molecular point group: c1
  Basis Set: 6-31G*
  Basis Set:

  -Total Gradient:
     Atom            X                  Y                   Z
    ------   -----------------  -----------------  -----------------
       1       -0.000000003569     0.000001864655    -0.000001014935
       2       -0.000034856651     0.000018075197     0.000003652770
       3        0.000034320410     0.000022663279    -0.000000682373
       4        0.000002680522    -0.000036907701    -0.000002400135
       5       -0.000001432283     0.000001546327     0.000000030902
       6       -0.000001259515    -0.000036985047    -0.000005544802
       7       -0.000001765499     0.000002714798    -0.000000635267
       8        0.000060254635     0.000085961514     0.000001327632
       9        0.000001537678     0.000007254148    -0.000000199007
      10       -0.000007975030     0.000003929756     0.000014942932
      11       -0.000033242139    -0.000047634643    -0.000004052313
      12       -0.000100611711     0.000066298383    -0.000010158394
      13       -0.000031494335    -0.000097872574     0.000011225562
      14        0.000051807293    -0.000007105068     0.000002526745
      15        0.000005869580     0.000079620572    -0.000012781781
      16        0.000019519842    -0.000037943841     0.000001418569
      17        0.000030763400     0.000003037872    -0.000002093616
      18        0.000005887378    -0.000028517629     0.000004437511

  **** Optimization is complete! (in 13 steps) ****
    Final optimized geometry and variables:
    Molecular point group: c1

    Geometry (in Angstrom), charge = 0, multiplicity = 1:

    H            1.526511326453     3.635777456382    -0.000337116375
    C            1.062995321644     2.665535850471    -0.000210708719
    C           -0.318235098468     2.550308029788    -0.000219298702
    C            1.841496493050     1.523492431805    -0.000096958409
    H           -0.935356498731     3.430351203376    -0.000339994647
    C           -0.907717239720     1.301844401598    -0.000084368403
    H            2.913774130394     1.599663534733    -0.000130404011
    C            1.249788290462     0.269540108243     0.000052896039
    H           -1.974638353145     1.208683522519    -0.000097742190
    C           -0.136488460704     0.136738696069     0.000091748309
    H            1.899691366780    -0.576214661644     0.000100240172
    C           -0.945390878682    -1.141702809416     0.000171194884
    O           -0.411011873702    -2.362045597369     0.000057437774
    O           -2.131801236028    -1.082923896031     0.000374390748
    C            0.934829541444    -2.763836611372    -0.000162701756
    H            1.452995194470    -2.430563800582    -0.889087195985
    H            0.904075924499    -3.842563435945    -0.000348464430
    H            1.453035935766    -2.430832498058     0.888842915753

  Mulliken Charges: (a.u.)
   Center  Symbol    Alpha    Beta     Spin     Total
       1     H     0.39368  0.39368  0.00000  0.21264
       2     C     3.09017  3.09017  0.00000 -0.18034
       3     C     3.10378  3.10378  0.00000 -0.20757
       4     C     3.10548  3.10548  0.00000 -0.21095
       5     H     0.39349  0.39349  0.00000  0.21301
       6     C     3.08574  3.08574  0.00000 -0.17147
       7     H     0.39602  0.39602  0.00000  0.20795
       8     C     3.09929  3.09929  0.00000 -0.19859
       9     H     0.36899  0.36899  0.00000  0.26202
      10     C     3.08870  3.08870  0.00000 -0.17739
      11     H     0.39331  0.39331  0.00000  0.21338
      12     C     2.57621  2.57621  0.00000  0.84758
      13     O     4.31091  4.31091  0.00000 -0.62181
      14     O     4.27348  4.27348  0.00000 -0.54695
      15     C     3.09564  3.09564  0.00000 -0.19129
      16     H     0.41415  0.41415  0.00000  0.17170
      17     H     0.39681  0.39681  0.00000  0.20637
      18     H     0.41415  0.41415  0.00000  0.17170

   Total alpha = 36.00000, Total beta = 36.00000, Total charge =  0.00000
