                              Psi4 1.0.54 Driver

  ==> Input File <==

--------------------------------------------------------------------------
set {
	reference rhf
	basis cc-pvtz
}

set_num_threads( 4 )
memory 2 gb

molecule MOL {
0 1

O	 3.219313	 0.959291	 -0.614106
C	 2.698710	 0.058177	 -0.050237
C	 1.246364	 -0.005813	 0.348416
O	 3.344101	 -1.038700	 0.312317
C	 0.453207	 1.232821	 -0.049003
H	 0.839270	 -0.907818	 -0.092281
H	 1.216683	 -0.160521	 1.422434
C	 -0.998367	 1.217982	 0.432195
H	 0.481498	 1.345443	 -1.127236
H	 0.951413	 2.105557	 0.354893
C	 -1.882951	 0.151251	 -0.211235
H	 -1.429490	 2.193659	 0.228843
H	 -1.019755	 1.099323	 1.513279
C	 -1.501526	 -1.268096	 0.200780
H	 -2.919623	 0.336923	 0.060256
H	 -1.832915	 0.226687	 -1.293521
C	 -2.374830	 -2.342597	 -0.440749
H	 -1.562887	 -1.356400	 1.282805
H	 -0.461427	 -1.450399	 -0.059654
C	 -1.988831	 -3.757586	 -0.022911
H	 -3.414406	 -2.161881	 -0.181243
H	 -2.312422	 -2.257491	 -1.522284
H	 -2.627298	 -4.495065	 -0.495638
H	 -2.074924	 -3.885659	 1.051005
H	 -0.963945	 -3.981591	 -0.299747
C	 4.720529	 -1.114346	 0.001449
H	 4.874321	 -1.055557	 -1.065852
H	 5.057824	 -2.067950	 0.373977
H	 5.264321	 -0.313596	 0.480350

	symmetry c1
}
set optking {
	frozen_dihedral = ("
		15 11 8 5
	")
}

ee,wfn = optimize('scf', return_wfn=True)
oeprop( wfn, 'DIPOLE', 'QUADRUPOLE', 'MULLIKEN_CHARGES')
f=open( 'psi4out.xyz', 'w' )
f.write( "29  " )
f.write( str(ee) + "\n" )
f.write( MOL.save_string_xyz() )
f.close()
--------------------------------------------------------------------------

    Molecular point group: c1
  Charge       = 0
  Multiplicity = 1
  Basis Set: CC-PVTZ
  Basis Set:
  @DF-RHF Final Energy:  -501.20545115676396
    Total Energy =                       -501.2054511567639565
    Molecular point group: c1
  Basis Set: CC-PVTZ
  Basis Set:
  Basis Set: CC-PVTZ
  Basis Set:
  @DF-RHF Final Energy:  -501.21686718373257
    Total Energy =                       -501.2168671837325746
  Basis Set: CC-PVTZ
  Basis Set:
  Basis Set: CC-PVTZ
  Basis Set:
  @DF-RHF Final Energy:  -501.21898900666133
    Total Energy =                       -501.2189890066607632
  Basis Set: CC-PVTZ
  Basis Set:
  Basis Set: CC-PVTZ
  Basis Set:
  @DF-RHF Final Energy:  -501.21810877555754
    Total Energy =                       -501.2181087755568569
  Basis Set: CC-PVTZ
  Basis Set:
  @DF-RHF Final Energy:  -501.21960354892690
    Total Energy =                       -501.2196035489275801
  @DF-RHF Final Energy:  -501.21998510790286
    Total Energy =                       -501.2199851079030850
  @DF-RHF Final Energy:  -501.22027130040681
    Total Energy =                       -501.2202713004064663
  @DF-RHF Final Energy:  -501.22028093140875
    Total Energy =                       -501.2202809314090928
  Basis Set: CC-PVTZ
  Basis Set:
  @DF-RHF Final Energy:  -501.22034259557915
    Total Energy =                       -501.2203425955790408
  Basis Set: CC-PVTZ
  Basis Set:
  Basis Set: CC-PVTZ
  Basis Set:
  @DF-RHF Final Energy:  -501.22034763212309
    Total Energy =                       -501.2203476321228663
  Basis Set: CC-PVTZ
  Basis Set:
  Basis Set: CC-PVTZ
  Basis Set:
  @DF-RHF Final Energy:  -501.22035020470889
    Total Energy =                       -501.2203502047093480
  Basis Set: CC-PVTZ
  Basis Set:
  Charge       = 0
  Multiplicity = 1
  Basis Set: CC-PVTZ
  Basis Set:

    Orbital Energies (a.u.)
    -----------------------

    Doubly Occupied:

       1A    -20.595794     2A    -20.533616     3A    -11.363804
       4A    -11.278117     5A    -11.232200     6A    -11.216970
       7A    -11.215845     8A    -11.214445     9A    -11.213820
      10A    -11.213210    11A    -11.207749    12A     -1.471661
      13A     -1.365183    14A     -1.098063    15A     -1.066643
      16A     -1.020647    17A     -0.977170    18A     -0.931397
      19A     -0.863234    20A     -0.806872    21A     -0.782336
      22A     -0.767356    23A     -0.700210    24A     -0.685626
      25A     -0.675693    26A     -0.650695    27A     -0.628856
      28A     -0.606820    29A     -0.595158    30A     -0.580809
      31A     -0.565909    32A     -0.558622    33A     -0.536324
      34A     -0.528156    35A     -0.522217    36A     -0.503779
      37A     -0.493232    38A     -0.483842    39A     -0.473933
      40A     -0.462028    41A     -0.459776    42A     -0.458633
      43A     -0.438577    44A     -0.436811

  @DF-RHF Final Energy:  -501.22035099734092

   => Energetics <=

    Nuclear Repulsion Energy =            626.3834086141195030
    One-Electron Energy =               -1924.2438511003895201
    Two-Electron Energy =                 796.6400914889289879
    DFT Exchange-Correlation Energy =       0.0000000000000000
    Empirical Dispersion Energy =           0.0000000000000000
    PCM Polarization Energy =               0.0000000000000000
    EFP Energy =                            0.0000000000000000
    Total Energy =                       -501.2203509973411428
    Molecular point group: c1
  Basis Set: CC-PVTZ
  Basis Set:

  -Total Gradient:
     Atom            X                  Y                   Z
    ------   -----------------  -----------------  -----------------
       1       -0.000009928774     0.000039693233    -0.000048208933
       2        0.000066236488    -0.000102087123     0.000136711017
       3        0.000053535324     0.000024164800    -0.000018803696
       4       -0.000082004452     0.000072343012    -0.000086251926
       5       -0.000109660562     0.000512940005    -0.000425708991
       6       -0.000028235590    -0.000017905935    -0.000009693859
       7        0.000010301973    -0.000007293135     0.000004986497
       8        0.000180745167    -0.000554718165     0.000491830193
       9       -0.000005467222    -0.000016529159     0.000005202241
      10       -0.000023468668    -0.000012592521    -0.000011423756
      11        0.000027567896    -0.000479405712     0.000571608410
      12        0.000021043824    -0.000004181886    -0.000002858702
      13        0.000003269247    -0.000009320504    -0.000007758401
      14       -0.000031479013    -0.000038595109     0.000009896568
      15       -0.000094380822     0.000569412767    -0.000649959837
      16       -0.000002208269     0.000001579438     0.000013955599
      17       -0.000006079070     0.000005496499     0.000011099157
      18       -0.000005983176     0.000014629432    -0.000003570047
      19        0.000012403153    -0.000009515679    -0.000002682219
      20        0.000010005967     0.000001036636    -0.000006064953
      21        0.000009684725    -0.000001966556    -0.000004004629
      22        0.000000418174     0.000001965850     0.000006751750
      23        0.000012031461     0.000016088136     0.000003106772
      24       -0.000002436720     0.000003785506    -0.000003566592
      25       -0.000003450534    -0.000003739721     0.000002231209
      26        0.000035994562     0.000008341061     0.000008665261
      27       -0.000022704363     0.000008987457     0.000008931997
      28        0.000005050619    -0.000006404881     0.000008509123
      29       -0.000020801344    -0.000016207743    -0.000002929255

  **** Optimization is complete! (in 12 steps) ****
    Final optimized geometry and variables:
    Molecular point group: c1

    Geometry (in Angstrom), charge = 0, multiplicity = 1:

    O            2.542764127452     1.397272481049    -0.752631582889
    C            2.162674915415     0.714393126993     0.136565420381
    C            0.747525396285     0.652708131390     0.652142961869
    O            2.954766813387    -0.104243074790     0.809790530887
    C           -0.209086734373     1.581854528860    -0.087317744736
    H            0.436208200995    -0.382717465497     0.603700999019
    H            0.783608835265     0.899139163545     1.708312316847
    C           -1.656186008232     1.540483366956     0.431218741266
    H           -0.187768486492     1.355412886034    -1.147093468908
    H            0.173062261885     2.590717844203     0.004215971548
    C           -2.602520261387     0.567944489820    -0.279896163626
    H           -2.078625157175     2.533102611569     0.318690663058
    H           -1.660957720344     1.336896456175     1.499376299820
    C           -2.315143735140    -0.919789334456    -0.090943075181
    H           -3.612299605894     0.773642799471     0.065028591322
    H           -2.601372058936     0.796132400373    -1.343046095193
    C           -3.389440165363    -1.813928775722    -0.705020385559
    H           -2.230181501364    -1.141745138488     0.970645310883
    H           -1.357894074399    -1.172829189081    -0.536541941063
    C           -3.099156195583    -3.301789825089    -0.538849940543
    H           -4.349765213890    -1.581692718136    -0.253191289318
    H           -3.486842427300    -1.582055393091    -1.762103749122
    H           -3.881710318446    -3.906577797348    -0.982359516142
    H           -3.027027259048    -3.571917453774     0.509547236544
    H           -2.162458173821    -3.573806254350    -1.014056571845
    C            4.315882403439    -0.146703272367     0.432423704152
    H            4.417033696616    -0.463150587950    -0.595124105883
    H            4.784974721126    -0.860852299621     1.089612154517
    H            4.774350839446     0.824114228964     0.548722570457

  Mulliken Charges: (a.u.)
   Center  Symbol    Alpha    Beta     Spin     Total
       1     O     4.19716  4.19716  0.00000 -0.39433
       2     C     2.80508  2.80508  0.00000  0.38984
       3     C     3.10170  3.10170  0.00000 -0.20341
       4     O     4.14769  4.14769  0.00000 -0.29538
       5     C     3.09612  3.09612  0.00000 -0.19224
       6     H     0.43781  0.43781  0.00000  0.12438
       7     H     0.43891  0.43891  0.00000  0.12219
       8     C     3.10938  3.10938  0.00000 -0.21876
       9     H     0.44419  0.44419  0.00000  0.11163
      10     H     0.43896  0.43896  0.00000  0.12208
      11     C     3.09245  3.09245  0.00000 -0.18490
      12     H     0.44080  0.44080  0.00000  0.11840
      13     H     0.45496  0.45496  0.00000  0.09007
      14     C     3.09587  3.09587  0.00000 -0.19174
      15     H     0.44842  0.44842  0.00000  0.10315
      16     H     0.45207  0.45207  0.00000  0.09586
      17     C     3.08374  3.08374  0.00000 -0.16747
      18     H     0.45254  0.45254  0.00000  0.09491
      19     H     0.45398  0.45398  0.00000  0.09203
      20     C     3.15056  3.15056  0.00000 -0.30111
      21     H     0.45362  0.45362  0.00000  0.09275
      22     H     0.45375  0.45375  0.00000  0.09250
      23     H     0.44771  0.44771  0.00000  0.10458
      24     H     0.45510  0.45510  0.00000  0.08980
      25     H     0.45532  0.45532  0.00000  0.08936
      26     C     3.03821  3.03821  0.00000 -0.07642
      27     H     0.45440  0.45440  0.00000  0.09119
      28     H     0.44528  0.44528  0.00000  0.10943
      29     H     0.45420  0.45420  0.00000  0.09159

   Total alpha = 44.00000, Total beta = 44.00000, Total charge =  0.00000

*** Psi4 exiting successfully. Buy a developer a beer!
