                              Psi4 1.0.54 Driver

  ==> Input File <==

--------------------------------------------------------------------------
set {
	reference rhf
	basis cc-pvtz
}

set_num_threads( 4 )
memory 2 gb

molecule MOL {
0 1

H	 -2.439823	 -0.285760	 -0.718506
O	 -2.041679	 -0.058866	 0.103463
C	 -0.959304	 0.780994	 -0.094939
C	 0.354905	 0.037902	 -0.006215
H	 -0.985899	 1.279578	 -1.057596
H	 -0.969809	 1.529522	 0.682889
F	 0.412060	 -0.931028	 -0.902708
F	 1.359641	 0.856111	 -0.239961
F	 0.545380	 -0.506387	 1.171682

	symmetry c1
}
set optking {
	frozen_dihedral = ("
		1 2 3 5
	")
}

ee,wfn = optimize('scf', return_wfn=True)
oeprop( wfn, 'DIPOLE', 'QUADRUPOLE', 'MULLIKEN_CHARGES')
f=open( 'psi4out.xyz', 'w' )
f.write( "9  " )
f.write( str(ee) + "\n" )
f.write( MOL.save_string_xyz() )
f.close()
--------------------------------------------------------------------------

    Molecular point group: c1
  Charge       = 0
  Multiplicity = 1
  Basis Set: CC-PVTZ
  Basis Set:
  @DF-RHF Final Energy:  -450.84569702381407
    Total Energy =                       -450.8456970238139547
    Molecular point group: c1
  Basis Set: CC-PVTZ
  Basis Set:
  Basis Set: CC-PVTZ
  Basis Set:
  @DF-RHF Final Energy:  -450.84589662127559
    Total Energy =                       -450.8458966212755854
  Basis Set: CC-PVTZ
  Basis Set:
  Basis Set: CC-PVTZ
  Basis Set:
  @DF-RHF Final Energy:  -450.84594730823318
    Total Energy =                       -450.8459473082333488
  Basis Set: CC-PVTZ
  Basis Set:
  Basis Set: CC-PVTZ
  Basis Set:
  @DF-RHF Final Energy:  -450.84595005208678
    Total Energy =                       -450.8459500520865504
  Basis Set: CC-PVTZ
  Basis Set:
  Charge       = 0
  Multiplicity = 1
  Basis Set: CC-PVTZ
  Basis Set:

    Orbital Energies (a.u.)
    -----------------------

    Doubly Occupied:

       1A    -26.335454     2A    -26.333995     3A    -26.331655
       4A    -20.583372     5A    -11.489597     6A    -11.310449
       7A     -1.743442     8A     -1.640158     9A     -1.638655
      10A     -1.406740    11A     -1.049815    12A     -0.926255
      13A     -0.834086    14A     -0.832533    15A     -0.800058
      16A     -0.739639    17A     -0.714717    18A     -0.704483
      19A     -0.669201    20A     -0.660770    21A     -0.644789
      22A     -0.635665    23A     -0.606452    24A     -0.536975
      25A     -0.483523

  @DF-RHF Final Energy:  -450.84595033816379

   => Energetics <=

    Nuclear Repulsion Energy =            277.4961010974442388
    One-Electron Energy =               -1177.3791437105796831
    Two-Electron Energy =                 449.0370922749715987
    DFT Exchange-Correlation Energy =       0.0000000000000000
    Empirical Dispersion Energy =           0.0000000000000000
    PCM Polarization Energy =               0.0000000000000000
    EFP Energy =                            0.0000000000000000
    Total Energy =                       -450.8459503381638456
    Molecular point group: c1
  Basis Set: CC-PVTZ
  Basis Set:

  -Total Gradient:
     Atom            X                  Y                   Z
    ------   -----------------  -----------------  -----------------
       1       -0.001284815201     0.001628466476     0.000102301801
       2        0.001874318629    -0.002441202695    -0.000369480129
       3       -0.001558097994     0.002197489984     0.000964757270
       4        0.000046093444     0.000101648151     0.000071058232
       5        0.000943427900    -0.001392473988    -0.000695360938
       6        0.000002442961    -0.000005028834    -0.000011016318
       7        0.000012434814    -0.000017781386    -0.000018934999
       8       -0.000039501053    -0.000070138324    -0.000011412118
       9        0.000003696500    -0.000000979378    -0.000031912805

  **** Optimization is complete! (in 5 steps) ****
    Final optimized geometry and variables:
    Molecular point group: c1

    Geometry (in Angstrom), charge = 0, multiplicity = 1:

    H           -2.419568885895    -0.318252424991    -0.694592370687
    O           -2.027714935897    -0.061085084492     0.118916349383
    C           -0.952716590894     0.787566439235    -0.096110705732
    C            0.354230178095     0.030612680230    -0.010010471467
    H           -0.976578391962     1.258850509455    -1.070994889317
    H           -0.942346458745     1.553502772980     0.666072043079
    F            0.425042898897    -0.913649966331    -0.926331619706
    F            1.365517520459     0.853788938035    -0.208030854536
    F            0.524760836680    -0.537805831670     1.159602291728

  Mulliken Charges: (a.u.)
   Center  Symbol    Alpha    Beta     Spin     Total
       1     H     0.38576  0.38576  0.00000  0.22848
       2     O     4.19232  4.19232  0.00000 -0.38464
       3     C     2.99409  2.99409  0.00000  0.01182
       4     C     2.67907  2.67907  0.00000  0.64185
       5     H     0.46128  0.46128  0.00000  0.07743
       6     H     0.45044  0.45044  0.00000  0.09912
       7     F     4.61486  4.61486  0.00000 -0.22973
       8     F     4.61430  4.61430  0.00000 -0.22860
       9     F     4.60787  4.60787  0.00000 -0.21575

   Total alpha = 25.00000, Total beta = 25.00000, Total charge = -0.00000

*** Psi4 exiting successfully. Buy a developer a beer!
