  ==> Input File <==

--------------------------------------------------------------------------
set {
	reference rhf
	basis 6-31G*
}

set_num_threads( 4 )
memory 2 gb

molecule MOL {
0 1

H	 -0.423598	 -1.462320	 0.560676
N	 -0.626943	 -0.667432	 -0.000092
C	 -1.979713	 -0.158776	 0.000050
C	 0.377207	 -0.115593	 -0.723503
H	 -2.520245	 -0.492427	 -0.879443
H	 -1.934741	 0.918111	 -0.004428
H	 -2.517790	 -0.485056	 0.883818
C	 1.715838	 -0.810475	 -0.574542
O	 0.229247	 0.844534	 -1.428115
H	 1.647165	 -1.845856	 -0.893327
H	 2.445338	 -0.297240	 -1.182914
H	 2.040322	 -0.799341	 0.461278

	symmetry c1
}
set optking {
	frozen_dihedral = ("
		4 2 3 5
	")
}

ee = optimize('scf')
oeprop('DIPOLE', 'QUADRUPOLE', 'MULLIKEN_CHARGES')
f=open( 'psi4out.xyz', 'w' )
f.write( "12  " )
f.write( str(ee) + "\n" )
f.write( MOL.save_string_xyz() )
f.close()
--------------------------------------------------------------------------

    Molecular point group: c1
  Charge       = 0
  Multiplicity = 1
  Basis Set: 6-31G*
  Basis Set:
  @DF-RHF Final Energy:  -247.00517110104050
    Total Energy =                       -247.0051711010405597
    Molecular point group: c1
  Basis Set: 6-31G*
  Basis Set:
  Basis Set: 6-31G*
  Basis Set:
  @DF-RHF Final Energy:  -247.00555947376489
    Total Energy =                       -247.0055594737650608
  Basis Set: 6-31G*
  Basis Set:
  Basis Set: 6-31G*
  Basis Set:
  @DF-RHF Final Energy:  -247.00559691561872
    Total Energy =                       -247.0055969156185824
  Basis Set: 6-31G*
  Basis Set:
  Basis Set: 6-31G*
  Basis Set:
  @DF-RHF Final Energy:  -247.00560776371506
    Total Energy =                       -247.0056077637151475
  Basis Set: 6-31G*
  Basis Set:
  @DF-RHF Final Energy:  -247.00564624381690
    Total Energy =                       -247.0056462438169547
  @DF-RHF Final Energy:  -247.00567053994010
    Total Energy =                       -247.0056705399400130
  @DF-RHF Final Energy:  -247.00568423184646
    Total Energy =                       -247.0056842318464305
  @DF-RHF Final Energy:  -247.00568711870980
    Total Energy =                       -247.0056871187097727
  @DF-RHF Final Energy:  -247.00569839308554
    Total Energy =                       -247.0056983930857086
  @DF-RHF Final Energy:  -247.00570929497943
    Total Energy =                       -247.0057092949795106
  @DF-RHF Final Energy:  -247.00571501959607
    Total Energy =                       -247.0057150195960958
  @DF-RHF Final Energy:  -247.00571858141396
    Total Energy =                       -247.0057185814139302
  @DF-RHF Final Energy:  -247.00571746207717
    Total Energy =                       -247.0057174620770866
  @DF-RHF Final Energy:  -247.00571771351409
    Total Energy =                       -247.0057177135140591
  @DF-RHF Final Energy:  -247.00571918794816
    Total Energy =                       -247.0057191879481024
  @DF-RHF Final Energy:  -247.00572151846032
    Total Energy =                       -247.0057215184603479
  @DF-RHF Final Energy:  -247.00572308746507
    Total Energy =                       -247.0057230874650713
  @DF-RHF Final Energy:  -247.00572502485221
    Total Energy =                       -247.0057250248521541
  @DF-RHF Final Energy:  -247.00572641899717
    Total Energy =                       -247.0057264189970851
  @DF-RHF Final Energy:  -247.00572679350827
    Total Energy =                       -247.0057267935085292
  @DF-RHF Final Energy:  -247.00572552309467
    Total Energy =                       -247.0057255230947248
  @DF-RHF Final Energy:  -247.00572548164871
    Total Energy =                       -247.0057254816487102
  @DF-RHF Final Energy:  -247.00572548002691
    Total Energy =                       -247.0057254800269106
  @DF-RHF Final Energy:  -247.00572548505824
    Total Energy =                       -247.0057254850584059
  @DF-RHF Final Energy:  -247.00572548402110
    Total Energy =                       -247.0057254840211840
  @DF-RHF Final Energy:  -247.00572549051074
    Total Energy =                       -247.0057254905108266
  @DF-RHF Final Energy:  -247.00572480557841
    Total Energy =                       -247.0057248055783816
  @DF-RHF Final Energy:  -247.00572468255513
    Total Energy =                       -247.0057246825553534
  @DF-RHF Final Energy:  -247.00572490984882
    Total Energy =                       -247.0057249098485954
  @DF-RHF Final Energy:  -247.00572573918831
    Total Energy =                       -247.0057257391882217
  @DF-RHF Final Energy:  -247.00572710202431
    Total Energy =                       -247.0057271020243661
  @DF-RHF Final Energy:  -247.00572738172815
    Total Energy =                       -247.0057273817283203
  @DF-RHF Final Energy:  -247.00572747101978
    Total Energy =                       -247.0057274710197817
  @DF-RHF Final Energy:  -247.00572744628860
    Total Energy =                       -247.0057274462886312
  @DF-RHF Final Energy:  -247.00572726370564
    Total Energy =                       -247.0057272637056371
  @DF-RHF Final Energy:  -247.00572534589847
    Total Energy =                       -247.0057253458984405
  Basis Set: 6-31G*
  Basis Set:
  @DF-RHF Final Energy:  -247.00572743485230
    Total Energy =                       -247.0057274348522469
  Basis Set: 6-31G*
  Basis Set:
  Basis Set: 6-31G*
  Basis Set:
  @DF-RHF Final Energy:  -247.00572742124285
    Total Energy =                       -247.0057274212430229
  Basis Set: 6-31G*
  Basis Set:
  Basis Set: 6-31G*
  Basis Set:
  @DF-RHF Final Energy:  -247.00572740869418
    Total Energy =                       -247.0057274086940993
  Basis Set: 6-31G*
  Basis Set:
  Charge       = 0
  Multiplicity = 1
  Basis Set: 6-31G*
  Basis Set:

    Orbital Energies (a.u.)
    -----------------------

    Doubly Occupied:

       1A    -20.517028     2A    -15.580838     3A    -11.342411
       4A    -11.254516     5A    -11.230101     6A     -1.385640
       7A     -1.226788     8A     -1.015398     9A     -0.931089
      10A     -0.785818    11A     -0.688761    12A     -0.647945
      13A     -0.632334    14A     -0.584677    15A     -0.580458
      16A     -0.555753    17A     -0.544929    18A     -0.505087
      19A     -0.413765    20A     -0.385129

  @DF-RHF Final Energy:  -247.00572722119443

   => Energetics <=

    Nuclear Repulsion Energy =            181.3594419194207603
    One-Electron Energy =                -695.1134123364605557
    Two-Electron Energy =                 266.7482431958453049
    DFT Exchange-Correlation Energy =       0.0000000000000000
    Empirical Dispersion Energy =           0.0000000000000000
    PCM Polarization Energy =               0.0000000000000000
    EFP Energy =                            0.0000000000000000
    Total Energy =                       -247.0057272211944905
    Molecular point group: c1
  Basis Set: 6-31G*
  Basis Set:

  -Total Gradient:
     Atom            X                  Y                   Z
    ------   -----------------  -----------------  -----------------
       1        0.000172543949    -0.000448635167     0.000318446836
       2       -0.001563493745    -0.001001227312     0.001288009789
       3        0.000706836153    -0.000262136972    -0.000071412524
       4        0.002019699391     0.002677692124    -0.003235725078
       5       -0.000472693742     0.000135307773    -0.000190454112
       6       -0.000683988535     0.000461909604    -0.000127359948
       7        0.000026879238     0.000167582072     0.000121467592
       8        0.000298124116    -0.000737354900     0.000630141967
       9       -0.000201612650    -0.001252539908     0.001485753317
      10        0.000091494245     0.000183322655     0.000213950367
      11       -0.000149850718     0.000219965279    -0.000417400388
      12       -0.000243937702    -0.000143885247    -0.000015417816

    Molecular point group: c1

    Geometry (in Angstrom), charge = 0, multiplicity = 1:

    H           -0.364043785734    -1.269703127869     1.137025685279
    N           -0.536224907892    -0.442347144080     0.613687342475
    C           -1.890674319330     0.053076943815     0.544193279340
    C            0.443208628189     0.054974120703    -0.184893682617
    H           -2.448492226091    -0.374644066704    -0.289846079847
    H           -1.874356696822     1.125973130324     0.414485180531
    H           -2.407631343450    -0.182891721876     1.467100717471
    C            1.793988962290    -0.614741030410    -0.035140978978
    O            0.255493593398     0.958855089399    -0.950174076129
    H            1.780749581281    -1.569859763962    -0.553889657973
    H            2.540346122719     0.016215927956    -0.490545554223
    H            2.043063082100    -0.783619690954     1.009133801849

  Mulliken Charges: (a.u.)
   Center  Symbol    Alpha    Beta     Spin     Total
       1     H     0.31069  0.31069  0.00000  0.37862
       2     N     3.89149  3.89149  0.00000 -0.78299
       3     C     3.13677  3.13677  0.00000 -0.27354
       4     C     2.63159  2.63159  0.00000  0.73681
       5     H     0.41457  0.41457  0.00000  0.17086
       6     H     0.39483  0.39483  0.00000  0.21033
       7     H     0.41727  0.41727  0.00000  0.16546
       8     C     3.29451  3.29451  0.00000 -0.58902
       9     O     4.30046  4.30046  0.00000 -0.60093
      10     H     0.40425  0.40425  0.00000  0.19150
      11     H     0.39249  0.39249  0.00000  0.21502
      12     H     0.41107  0.41107  0.00000  0.17786

   Total alpha = 20.00000, Total beta = 20.00000, Total charge =  0.00000
