                              Psi4 1.0.54 Driver

  ==> Input File <==

--------------------------------------------------------------------------
set {
	reference rhf
	basis cc-pvtz
}

set_num_threads( 4 )
memory 2 gb

molecule MOL {
0 1

O	 -2.081319	 -0.951530	 -0.502732
N	 -1.613558	 0.006676	 0.014756
C	 -0.329345	 -0.171618	 0.743966
O	 -2.068523	 1.100482	 -0.024385
C	 0.360296	 -1.441330	 0.260940
H	 -0.584675	 -0.227184	 1.789020
H	 0.257157	 0.707422	 0.535313
C	 1.686526	 -1.663205	 0.983472
H	 -0.298765	 -2.285235	 0.428333
H	 0.528288	 -1.365890	 -0.807154
C	 2.401490	 -2.924935	 0.513001
H	 1.508834	 -1.725863	 2.053022
H	 2.330927	 -0.803102	 0.827341
H	 1.794297	 -3.806187	 0.687382
H	 2.620447	 -2.877477	 -0.547905
H	 3.338567	 -3.058055	 1.039620

	symmetry c1
}
set optking {
	frozen_dihedral = ("
		5 3 2 1
	")
}

ee,wfn = optimize('scf', return_wfn=True)
oeprop( wfn, 'DIPOLE', 'QUADRUPOLE', 'MULLIKEN_CHARGES')
f=open( 'psi4out.xyz', 'w' )
f.write( "16  " )
f.write( str(ee) + "\n" )
f.write( MOL.save_string_xyz() )
f.close()
--------------------------------------------------------------------------

    Molecular point group: c1
  Charge       = 0
  Multiplicity = 1
  Basis Set: CC-PVTZ
  Basis Set:
  @DF-RHF Final Energy:  -360.90671451382065
    Total Energy =                       -360.9067145138203614
    Molecular point group: c1
  Basis Set: CC-PVTZ
  Basis Set:
  Basis Set: CC-PVTZ
  Basis Set:
  @DF-RHF Final Energy:  -360.90484038157513
    Total Energy =                       -360.9048403815749566
  Basis Set: CC-PVTZ
  Basis Set:
  Basis Set: CC-PVTZ
  Basis Set:
  @DF-RHF Final Energy:  -360.90323497576219
    Total Energy =                       -360.9032349757623592
  Basis Set: CC-PVTZ
  Basis Set:
  Basis Set: CC-PVTZ
  Basis Set:
  @DF-RHF Final Energy:  -360.90590604209342
    Total Energy =                       -360.9059060420933633
  Basis Set: CC-PVTZ
  Basis Set:
  Basis Set: CC-PVTZ
  Basis Set:
  @DF-RHF Final Energy:  -360.90751868264556
    Total Energy =                       -360.9075186826457298
  Basis Set: CC-PVTZ
  Basis Set:
  Basis Set: CC-PVTZ
  Basis Set:
  @DF-RHF Final Energy:  -360.90849894353084
    Total Energy =                       -360.9084989435305602
  Basis Set: CC-PVTZ
  Basis Set:
  Basis Set: CC-PVTZ
  Basis Set:
  @DF-RHF Final Energy:  -360.90853163660296
    Total Energy =                       -360.9085316366026177
  Basis Set: CC-PVTZ
  Basis Set:
  Charge       = 0
  Multiplicity = 1
  Basis Set: CC-PVTZ
  Basis Set:

    Orbital Energies (a.u.)
    -----------------------

    Doubly Occupied:

       1A    -20.592155     2A    -20.587858     3A    -15.837744
       4A    -11.298093     5A    -11.243919     6A    -11.239831
       7A    -11.224299     8A     -1.636497     9A     -1.420492
      10A     -1.134126    11A     -1.058669    12A     -0.948853
      13A     -0.843462    14A     -0.821755    15A     -0.759563
      16A     -0.750544    17A     -0.730499    18A     -0.667820
      19A     -0.615335    20A     -0.603114    21A     -0.565738
      22A     -0.535561    23A     -0.522574    24A     -0.501993
      25A     -0.494945    26A     -0.485914    27A     -0.469256
      28A     -0.453167

  @DF-RHF Final Energy:  -360.90853241699978

   => Energetics <=

    Nuclear Repulsion Energy =            312.5013969042680060
    One-Electron Energy =               -1110.7323075055787740
    Two-Electron Energy =                 437.3223781843114466
    DFT Exchange-Correlation Energy =       0.0000000000000000
    Empirical Dispersion Energy =           0.0000000000000000
    PCM Polarization Energy =               0.0000000000000000
    EFP Energy =                            0.0000000000000000
    Total Energy =                       -360.9085324169993783
    Molecular point group: c1
  Basis Set: CC-PVTZ
  Basis Set:

  -Total Gradient:
     Atom            X                  Y                   Z
    ------   -----------------  -----------------  -----------------
       1        0.000090914700     0.000189578663    -0.000231387620
       2       -0.000126123985    -0.000165586783     0.000387142955
       3        0.000243011784     0.000182499340    -0.000265204310
       4       -0.000108520867    -0.000087796478    -0.000070502186
       5       -0.000156064728    -0.000092800932     0.000169655540
       6        0.000024987036    -0.000024825785     0.000005723784
       7        0.000027449688    -0.000025263228     0.000002153471
       8        0.000027126342    -0.000004357683     0.000017842238
       9       -0.000006760721     0.000018614822     0.000018679643
      10        0.000001982835     0.000003255493    -0.000008556982
      11        0.000001711815     0.000004071317    -0.000016099505
      12       -0.000012379639    -0.000003118038    -0.000004865438
      13       -0.000010386784     0.000005261435     0.000000896193
      14       -0.000000238192     0.000000473740     0.000002202425
      15        0.000005063085    -0.000006694218    -0.000005666184
      16       -0.000001772373     0.000006688346    -0.000002014025

  **** Optimization is complete! (in 8 steps) ****
    Final optimized geometry and variables:
    Molecular point group: c1

    Geometry (in Angstrom), charge = 0, multiplicity = 1:

    O           -1.877649262720     0.005395713743    -0.845974120850
    N           -1.338061423257     0.892452600611    -0.277747188025
    C           -0.059600194298     0.607577369289     0.441374755343
    O           -1.741359479550     2.004867137158    -0.205705449042
    C            0.637772174471    -0.652499722352    -0.028571945976
    H           -0.347869810392     0.549896385324     1.482155708556
    H            0.536467696548     1.495322515871     0.307083986632
    C            1.950139365124    -0.860516195057     0.725630325308
    H           -0.013668852144    -1.503387119966     0.115285686921
    H            0.830844669023    -0.581620197119    -1.092774050210
    C            2.684046563156    -2.119858059813     0.278567697336
    H            1.750125100019    -0.919705798365     1.791863772664
    H            2.594453796904     0.002119693780     0.582075714440
    H            2.077811402430    -3.003876120766     0.441853472180
    H            2.927695132571    -2.075973167155    -0.777154415798
    H            3.609277296027    -2.245467049954     0.827658648924

  Mulliken Charges: (a.u.)
   Center  Symbol    Alpha    Beta     Spin     Total
       1     O     4.16945  4.16945  0.00000 -0.33890
       2     N     3.27278  3.27278  0.00000  0.45444
       3     C     3.05049  3.05049  0.00000 -0.10099
       4     O     4.17385  4.17385  0.00000 -0.34770
       5     C     3.09442  3.09442  0.00000 -0.18885
       6     H     0.43436  0.43436  0.00000  0.13127
       7     H     0.43124  0.43124  0.00000  0.13751
       8     C     3.09431  3.09431  0.00000 -0.18863
       9     H     0.43610  0.43610  0.00000  0.12780
      10     H     0.44216  0.44216  0.00000  0.11569
      11     C     3.14803  3.14803  0.00000 -0.29605
      12     H     0.45182  0.45182  0.00000  0.09636
      13     H     0.45146  0.45146  0.00000  0.09709
      14     H     0.45181  0.45181  0.00000  0.09638
      15     H     0.45211  0.45211  0.00000  0.09577
      16     H     0.44560  0.44560  0.00000  0.10881

   Total alpha = 28.00000, Total beta = 28.00000, Total charge = -0.00000

*** Psi4 exiting successfully. Buy a developer a beer!
