  ==> Input File <==

--------------------------------------------------------------------------
set {
	reference rhf
	basis 6-31G*
}

set_num_threads( 1 )
memory 2 gb

molecule MOL {
0 1

O	 3.454395	 -3.053254	 1.232796
C	 2.822948	 -2.092518	 0.930601
C	 1.350563	 -1.888374	 1.193654
O	 3.347903	 -1.046386	 0.304773
C	 0.703312	 -3.062650	 1.924583
H	 1.251805	 -0.960398	 1.747096
H	 0.872033	 -1.713634	 0.233356
C	 -0.811424	 -2.917341	 2.106114
H	 1.179309	 -3.189000	 2.892354
H	 0.908921	 -3.971294	 1.369143
C	 -1.244022	 -1.776050	 3.031006
H	 -1.193899	 -3.853182	 2.506910
H	 -1.282836	 -2.791500	 1.132490
C	 -2.755421	 -1.741515	 3.266547
H	 -0.733382	 -1.877640	 3.987429
H	 -0.931214	 -0.819839	 2.617745
C	 -3.199816	 -0.601867	 4.185158
H	 -3.074857	 -2.690948	 3.692896
H	 -3.267015	 -1.650736	 2.309609
C	 -4.710016	 -0.576752	 4.418321
H	 -2.688773	 -0.690483	 5.141518
H	 -2.885227	 0.348273	 3.758486
H	 -4.993843	 0.241564	 5.072850
H	 -5.051285	 -1.500566	 4.876905
H	 -5.249168	 -0.454424	 3.483107
C	 4.728119	 -1.109107	 -0.004993
H	 4.882018	 -1.033965	 -1.071845
H	 5.068212	 -2.067527	 0.355250
H	 5.265056	 -0.311663	 0.488280

	symmetry c1
}
set optking {
	frozen_dihedral = ("
		21 17 14 11,
		17 14 11 15,
		15 11 8 5,
		6 3 5 9,
		11 8 5 9,
		1 2 4 26,
		6 3 2 1
	")
}

ee = energy('scf')
oeprop('DIPOLE', 'QUADRUPOLE', 'MULLIKEN_CHARGES')
f=open( 'psi4out.xyz', 'w' )
f.write( "29  " )
f.write( str(ee) + "\n" )
f.write( MOL.save_string_xyz() )
f.close()
--------------------------------------------------------------------------

    Molecular point group: c1

    Geometry (in Angstrom), charge = 0, multiplicity = 1:

       Center              X                  Y                   Z               Mass
    ------------   -----------------  -----------------  -----------------  -----------------
           O          3.078783891651    -1.257389554163    -0.804428543881    15.994914619560
           C          2.447336891651    -0.296653554163    -1.106623543881    12.000000000000
           C          0.974951891651    -0.092509554163    -0.843570543881    12.000000000000
           O          2.972291891651     0.749478445837    -1.732451543881    15.994914619560
           C          0.327700891651    -1.266785554163    -0.112641543881    12.000000000000
           H          0.876193891651     0.835466445837    -0.290128543881     1.007825032070
           H          0.496421891651     0.082230445837    -1.803868543881     1.007825032070
           C         -1.187035108349    -1.121476554163     0.068889456119    12.000000000000
           H          0.803697891651    -1.393135554163     0.855129456119     1.007825032070
           H          0.533309891651    -2.175429554163    -0.668081543881     1.007825032070
           C         -1.619633108349     0.019814445837     0.993781456119    12.000000000000
           H         -1.569510108349    -2.057317554163     0.469685456119     1.007825032070
           H         -1.658447108349    -0.995635554163    -0.904734543881     1.007825032070
           C         -3.131032108349     0.054349445837     1.229322456119    12.000000000000
           H         -1.108993108349    -0.081775554163     1.950204456119     1.007825032070
           H         -1.306825108349     0.976025445837     0.580520456119     1.007825032070
           C         -3.575427108349     1.193997445837     2.147933456119    12.000000000000
           H         -3.450468108349    -0.895083554163     1.655671456119     1.007825032070
           H         -3.642626108349     0.145128445837     0.272384456119     1.007825032070
           C         -5.085627108349     1.219112445837     2.381096456119    12.000000000000
           H         -3.064384108349     1.105381445837     3.104293456119     1.007825032070
           H         -3.260838108349     2.144137445837     1.721261456119     1.007825032070
           H         -5.369454108349     2.037428445837     3.035625456119     1.007825032070
           H         -5.426896108349     0.295298445837     2.839680456119     1.007825032070
           H         -5.624779108349     1.341440445837     1.445882456119     1.007825032070
           C          4.352507891651     0.686757445837    -2.042217543881    12.000000000000
           H          4.506406891651     0.761899445837    -3.109069543881     1.007825032070
           H          4.692600891651    -0.271662554163    -1.681974543881     1.007825032070
           H          4.889444891651     1.484201445837    -1.548944543881     1.007825032070

  Charge       = 0
  Multiplicity = 1
  Basis Set: 6-31G*
  Basis Set:

    Orbital Energies (a.u.)
    -----------------------

    Doubly Occupied:

       1A    -20.602783     2A    -20.545496     3A    -11.374410
       4A    -11.274340     5A    -11.235741     6A    -11.219633
       7A    -11.218028     8A    -11.216259     9A    -11.216011
      10A    -11.214662    11A    -11.209205    12A     -1.470155
      13A     -1.363418    14A     -1.098550    15A     -1.067280
      16A     -1.019648    17A     -0.976070    18A     -0.927987
      19A     -0.861688    20A     -0.799352    21A     -0.790596
      22A     -0.763307    23A     -0.705949    24A     -0.680093
      25A     -0.674070    26A     -0.651352    27A     -0.628888
      28A     -0.606601    29A     -0.595129    30A     -0.580498
      31A     -0.568483    32A     -0.550615    33A     -0.534248
      34A     -0.524063    35A     -0.514055    36A     -0.510378
      37A     -0.497051    38A     -0.478227    39A     -0.470501
      40A     -0.462599    41A     -0.459097    42A     -0.453328
      43A     -0.442076    44A     -0.436512

  @DF-RHF Final Energy:  -501.03981705536660

   => Energetics <=

    Nuclear Repulsion Energy =            610.4676066792172833
    One-Electron Energy =               -1892.0385357018330978
    Two-Electron Energy =                 780.5311119672467157
    DFT Exchange-Correlation Energy =       0.0000000000000000
    Empirical Dispersion Energy =           0.0000000000000000
    PCM Polarization Energy =               0.0000000000000000
    EFP Energy =                            0.0000000000000000
    Total Energy =                       -501.0398170553692125

  Mulliken Charges: (a.u.)
   Center  Symbol    Alpha    Beta     Spin     Total
       1     O     4.28727  4.28727  0.00000 -0.57454
       2     C     2.60385  2.60385  0.00000  0.79231
       3     C     3.21017  3.21017  0.00000 -0.42035
       4     O     4.30765  4.30765  0.00000 -0.61530
       5     C     3.15400  3.15400  0.00000 -0.30800
       6     H     0.39825  0.39825  0.00000  0.20349
       7     H     0.40071  0.40071  0.00000  0.19857
       8     C     3.15665  3.15665  0.00000 -0.31331
       9     H     0.41298  0.41298  0.00000  0.17405
      10     H     0.40865  0.40865  0.00000  0.18271
      11     C     3.15512  3.15512  0.00000 -0.31024
      12     H     0.41814  0.41814  0.00000  0.16373
      13     H     0.42379  0.42379  0.00000  0.15242
      14     C     3.15031  3.15031  0.00000 -0.30062
      15     H     0.42257  0.42257  0.00000  0.15485
      16     H     0.42358  0.42358  0.00000  0.15285
      17     C     3.15148  3.15148  0.00000 -0.30296
      18     H     0.42330  0.42330  0.00000  0.15340
      19     H     0.42393  0.42393  0.00000  0.15213
      20     C     3.23938  3.23938  0.00000 -0.47875
      21     H     0.42278  0.42278  0.00000  0.15444
      22     H     0.42338  0.42338  0.00000  0.15323
      23     H     0.41919  0.41919  0.00000  0.16162
      24     H     0.42154  0.42154  0.00000  0.15692
      25     H     0.42181  0.42181  0.00000  0.15638
      26     C     3.10487  3.10487  0.00000 -0.20973
      27     H     0.41308  0.41308  0.00000  0.17385
      28     H     0.38844  0.38844  0.00000  0.22311
      29     H     0.41313  0.41313  0.00000  0.17374

   Total alpha = 44.00000, Total beta = 44.00000, Total charge =  0.00000
