  ==> Input File <==

--------------------------------------------------------------------------
set {
	reference rhf
	basis cc-pvtz
}

set_num_threads( 4 )
memory 2 gb

molecule MOL {
0 1

H	 2.190573	 -0.629143	 -0.208718
O	 1.355408	 -0.529451	 0.208662
C	 0.700177	 0.619554	 -0.266242
C	 -0.713111	 0.588314	 0.266177
H	 0.678680	 0.627133	 -1.351786
H	 1.199747	 1.521489	 0.077736
O	 -1.421673	 -0.521378	 -0.196983
H	 -1.244794	 1.469161	 -0.069059
H	 -0.685100	 0.604721	 1.352683
H	 -1.068537	 -1.293151	 0.210060

	symmetry c1
}
set optking {
	frozen_dihedral = ("
		10 7 4 3
	")
}

ee = optimize('scf')
oeprop('DIPOLE', 'QUADRUPOLE', 'MULLIKEN_CHARGES')
f=open( 'psi4out.xyz', 'w' )
f.write( "10  " )
f.write( str(ee) + "\n" )
f.write( MOL.save_string_xyz() )
f.close()
--------------------------------------------------------------------------

    Molecular point group: c1
  Charge       = 0
  Multiplicity = 1
  Basis Set: CC-PVTZ
  Basis Set:
  @DF-RHF Final Energy:  -229.02833642656114
    Total Energy =                       -229.0283364265611397
    Molecular point group: c1
  Basis Set: CC-PVTZ
  Basis Set:
  Basis Set: CC-PVTZ
  Basis Set:
  @DF-RHF Final Energy:  -229.02839128069402
    Total Energy =                       -229.0283912806940236
  Basis Set: CC-PVTZ
  Basis Set:
  Basis Set: CC-PVTZ
  Basis Set:
  @DF-RHF Final Energy:  -229.02842063755816
    Total Energy =                       -229.0284206375580993
  Basis Set: CC-PVTZ
  Basis Set:
  Charge       = 0
  Multiplicity = 1
  Basis Set: CC-PVTZ
  Basis Set:

    Orbital Energies (a.u.)
    -----------------------

    Doubly Occupied:

       1A    -20.557104     2A    -20.543931     3A    -11.271213
       4A    -11.267044     5A     -1.382069     6A     -1.356393
       7A     -1.003396     8A     -0.842644     9A     -0.728348
      10A     -0.687639    11A     -0.643859    12A     -0.606849
      13A     -0.578414    14A     -0.528197    15A     -0.495212
      16A     -0.453579    17A     -0.436812

  @DF-RHF Final Energy:  -229.02842153209292

   => Energetics <=

    Nuclear Repulsion Energy =            134.2109882722123757
    One-Electron Energy =                -579.7134180441876197
    Two-Electron Energy =                 216.4740082398823233
    DFT Exchange-Correlation Energy =       0.0000000000000000
    Empirical Dispersion Energy =           0.0000000000000000
    PCM Polarization Energy =               0.0000000000000000
    EFP Energy =                            0.0000000000000000
    Total Energy =                       -229.0284215320929206
    Molecular point group: c1
  Basis Set: CC-PVTZ
  Basis Set:

  -Total Gradient:
     Atom            X                  Y                   Z
    ------   -----------------  -----------------  -----------------
       1       -0.000002050644     0.000029389464    -0.000007614374
       2       -0.000026601398    -0.000027768978     0.000030448559
       3       -0.000391713184     0.000720344057    -0.001035653804
       4        0.000292404232    -0.001003585044     0.001748703305
       5        0.000005426207    -0.000011390957    -0.000005369620
       6       -0.000013283316    -0.000015855703     0.000008555442
       7        0.001427392383     0.000127060717    -0.002238803464
       8       -0.000010780637    -0.000030413238    -0.000017667126
       9       -0.000006483079    -0.000010179896     0.000001914019
      10       -0.001274310562     0.000222399578     0.001515487062

  **** Optimization is complete! (in 4 steps) ****
    Final optimized geometry and variables:
    Molecular point group: c1

    Geometry (in Angstrom), charge = 0, multiplicity = 1:

    H            2.203595021308    -0.622385741743    -0.203902313139
    O            1.374953166164    -0.517610497893     0.225061496267
    C            0.699775298055     0.607421972850    -0.276155330881
    C           -0.709135963462     0.578680765583     0.266757833705
    H            0.665983422451     0.585518760611    -1.360979723353
    H            1.191490833550     1.525299467866     0.037555719022
    O           -1.434686361371    -0.513250897737    -0.214291312165
    H           -1.232605949094     1.470558947852    -0.052906927508
    H           -0.676565636010     0.579938014823     1.352688959069
    H           -1.092432697590    -1.301133130855     0.168508037415

  Mulliken Charges: (a.u.)
   Center  Symbol    Alpha    Beta     Spin     Total
       1     H     0.39163  0.39163  0.00000  0.21675
       2     O     4.20589  4.20589  0.00000 -0.41178
       3     C     2.96963  2.96963  0.00000  0.06073
       4     C     2.96935  2.96935  0.00000  0.06131
       5     H     0.47024  0.47024  0.00000  0.05952
       6     H     0.47387  0.47387  0.00000  0.05226
       7     O     4.20808  4.20808  0.00000 -0.41616
       8     H     0.45719  0.45719  0.00000  0.08561
       9     H     0.46775  0.46775  0.00000  0.06450
      10     H     0.38637  0.38637  0.00000  0.22727

   Total alpha = 17.00000, Total beta = 17.00000, Total charge =  0.00000
