  ==> Input File <==

--------------------------------------------------------------------------
set {
	reference rhf
	basis cc-pvtz
}

set_num_threads( 4 )
memory 2 gb

molecule MOL {
0 1

O	 2.084110	 1.813895	 0.199863
C	 0.964770	 1.458107	 -0.035106
C	 -0.127604	 2.485953	 -0.247440
N	 0.622280	 0.144970	 -0.099307
H	 -0.926657	 2.367139	 0.473492
H	 0.318245	 3.459324	 -0.128028
H	 -0.554965	 2.408323	 -1.239564
C	 1.664396	 -0.854993	 0.000772
C	 -0.647603	 -0.334238	 -0.590744
H	 2.462727	 -0.615153	 -0.690869
H	 1.261798	 -1.821849	 -0.240651
H	 2.081615	 -0.891605	 1.003877
H	 -0.913184	 -1.241980	 -0.064335
H	 -1.434938	 0.380716	 -0.423890
H	 -0.611179	 -0.564179	 -1.653215

	symmetry c1
}
set optking {
	frozen_dihedral = ("
		2 4 8 10
	")
}

ee = optimize('scf')
oeprop('DIPOLE', 'QUADRUPOLE', 'MULLIKEN_CHARGES')
f=open( 'psi4out.xyz', 'w' )
f.write( "15  " )
f.write( str(ee) + "\n" )
f.write( MOL.save_string_xyz() )
f.close()
--------------------------------------------------------------------------

    Molecular point group: c1
  Charge       = 0
  Multiplicity = 1
  Basis Set: CC-PVTZ
  Basis Set:
  @DF-RHF Final Energy:  -286.13387389166621
    Total Energy =                       -286.1338738916663260
    Molecular point group: c1
  Basis Set: CC-PVTZ
  Basis Set:
  Basis Set: CC-PVTZ
  Basis Set:
  @DF-RHF Final Energy:  -286.13451543583665
    Total Energy =                       -286.1345154358364766
  Basis Set: CC-PVTZ
  Basis Set:
  Basis Set: CC-PVTZ
  Basis Set:
  @DF-RHF Final Energy:  -286.13458283491900
    Total Energy =                       -286.1345828349191152
  Basis Set: CC-PVTZ
  Basis Set:
  Basis Set: CC-PVTZ
  Basis Set:
  @DF-RHF Final Energy:  -286.13453896222848
    Total Energy =                       -286.1345389622285893
  Basis Set: CC-PVTZ
  Basis Set:
  @DF-RHF Final Energy:  -286.13464058313718
    Total Energy =                       -286.1346405831372408
  @DF-RHF Final Energy:  -286.13466737661383
    Total Energy =                       -286.1346673766139475
  @DF-RHF Final Energy:  -286.13479023626206
    Total Energy =                       -286.1347902362619493
  @DF-RHF Final Energy:  -286.13492521726459
    Total Energy =                       -286.1349252172644810
  @DF-RHF Final Energy:  -286.13504906892115
    Total Energy =                       -286.1350490689212620
  @DF-RHF Final Energy:  -286.13515370049441
    Total Energy =                       -286.1351537004943566
  @DF-RHF Final Energy:  -286.13496938727008
    Total Energy =                       -286.1349693872702460
  Basis Set: CC-PVTZ
  Basis Set:
  @DF-RHF Final Energy:  -286.13523514139712
    Total Energy =                       -286.1352351413970609
  Basis Set: CC-PVTZ
  Basis Set:
  Basis Set: CC-PVTZ
  Basis Set:
  @DF-RHF Final Energy:  -286.13525902886374
    Total Energy =                       -286.1352590288638567
  Basis Set: CC-PVTZ
  Basis Set:
  Basis Set: CC-PVTZ
  Basis Set:
  @DF-RHF Final Energy:  -286.13526317532740
    Total Energy =                       -286.1352631753277365
  Basis Set: CC-PVTZ
  Basis Set:
  Charge       = 0
  Multiplicity = 1
  Basis Set: CC-PVTZ
  Basis Set:

    Orbital Energies (a.u.)
    -----------------------

    Doubly Occupied:

       1A    -20.504898     2A    -15.577442     3A    -11.333520
       4A    -11.264151     5A    -11.246920     6A    -11.226604
       7A     -1.388374     8A     -1.244707     9A     -1.014714
      10A     -0.973451    11A     -0.919451    12A     -0.738325
      13A     -0.682146    14A     -0.660717    15A     -0.653698
      16A     -0.589133    17A     -0.577859    18A     -0.569780
      19A     -0.564630    20A     -0.547103    21A     -0.530420
      22A     -0.503532    23A     -0.414806    24A     -0.371333

  @DF-RHF Final Energy:  -286.13526387752250

   => Energetics <=

    Nuclear Repulsion Energy =            253.1100509835477510
    One-Electron Energy =                -890.2952027826319181
    Two-Electron Energy =                 351.0498879215616626
    DFT Exchange-Correlation Energy =       0.0000000000000000
    Empirical Dispersion Energy =           0.0000000000000000
    PCM Polarization Energy =               0.0000000000000000
    EFP Energy =                            0.0000000000000000
    Total Energy =                       -286.1352638775225614
    Molecular point group: c1
  Basis Set: CC-PVTZ
  Basis Set:

  -Total Gradient:
     Atom            X                  Y                   Z
    ------   -----------------  -----------------  -----------------
       1       -0.000033570281    -0.000024339762    -0.000012770812
       2       -0.000267315255    -0.000056097166     0.000705934622
       3        0.000018465724     0.000003027953    -0.000039768567
       4        0.000319236626     0.000017195028    -0.001177023129
       5       -0.000005665298     0.000001671235     0.000015871916
       6       -0.000006284126     0.000002065689     0.000006704740
       7       -0.000001493198     0.000001938202     0.000011283402
       8        0.000107276153     0.000452574232     0.001250359871
       9        0.000069334203     0.000036661653     0.000006680520
      10       -0.000190838071    -0.000404544947    -0.000773444351
      11        0.000005616578    -0.000005191875     0.000003805348
      12       -0.000002317140    -0.000001579977    -0.000000854938
      13       -0.000007889882    -0.000008375321     0.000010339173
      14       -0.000001527091    -0.000009143868    -0.000001197158
      15       -0.000003028945    -0.000005861074    -0.000005920637

  **** Optimization is complete! (in 15 steps) ****
    Final optimized geometry and variables:
    Molecular point group: c1

    Geometry (in Angstrom), charge = 0, multiplicity = 1:

    O            1.291104679657     0.993125743950     0.483008813272
    C            0.199245879489     0.675243178450     0.107375280858
    C           -0.891879699548     1.714912905561    -0.036851292319
    N           -0.087626903443    -0.611063792926    -0.222512565595
    H           -1.704984477323     1.526057814554     0.653649567985
    H           -0.455648679628     2.674532546966     0.185929694081
    H           -1.298155762275     1.727983086835    -1.040151599891
    C            0.942560643526    -1.599133639272     0.034741024116
    C           -1.431665195788    -1.114585612031    -0.385663169163
    H            1.884241430354    -1.269808029966    -0.372847732623
    H            0.660329859225    -2.527180445991    -0.442469672232
    H            1.075016977340    -1.779393717056     1.096678146291
    H           -1.831242135723    -1.520523989242     0.541090732474
    H           -2.099505292139    -0.345010744993    -0.733215770031
    H           -1.432544880014    -1.905337194673    -1.124043405287

  Mulliken Charges: (a.u.)
   Center  Symbol    Alpha    Beta     Spin     Total
       1     O     4.21878  4.21878  0.00000 -0.43756
       2     C     2.84491  2.84491  0.00000  0.31018
       3     C     3.16030  3.16030  0.00000 -0.32059
       4     N     3.56475  3.56475  0.00000 -0.12951
       5     H     0.44901  0.44901  0.00000  0.10197
       6     H     0.42882  0.42882  0.00000  0.14235
       7     H     0.44878  0.44878  0.00000  0.10245
       8     C     3.09155  3.09155  0.00000 -0.18310
       9     C     3.09675  3.09675  0.00000 -0.19350
      10     H     0.43520  0.43520  0.00000  0.12961
      11     H     0.45802  0.45802  0.00000  0.08396
      12     H     0.45348  0.45348  0.00000  0.09304
      13     H     0.45561  0.45561  0.00000  0.08878
      14     H     0.44567  0.44567  0.00000  0.10865
      15     H     0.44836  0.44836  0.00000  0.10327

   Total alpha = 24.00000, Total beta = 24.00000, Total charge =  0.00000
