  ==> Input File <==

--------------------------------------------------------------------------
set {
	reference rhf
	basis cc-pvtz
}

set_num_threads( 4 )
memory 2 gb

molecule MOL {
0 1

O	 -2.440701	 -0.934798	 -0.415053
C	 -1.922978	 0.063265	 -0.045005
C	 -2.632749	 1.372204	 0.158357
O	 -0.637375	 0.157174	 0.243149
H	 -2.187724	 2.129143	 -0.474664
H	 -3.677681	 1.257276	 -0.079438
H	 -2.516788	 1.693160	 1.185542
C	 0.162530	 -1.009518	 0.097799
C	 1.587210	 -0.664190	 0.477086
H	 0.096803	 -1.356267	 -0.924704
H	 -0.233803	 -1.785900	 0.736810
C	 2.256770	 0.342732	 -0.454344
H	 2.154716	 -1.590834	 0.479041
H	 1.598751	 -0.289614	 1.496104
C	 2.593123	 -0.250984	 -1.818156
H	 1.599848	 1.198556	 -0.585183
H	 3.161318	 0.716890	 0.011104
H	 3.062991	 0.485100	 -2.459865
H	 1.701342	 -0.608190	 -2.322658
H	 3.275353	 -1.089062	 -1.722214

	symmetry c1
}
set optking {
	frozen_dihedral = ("
		16 12 9 8
	")
}

ee = optimize('scf')
oeprop('DIPOLE', 'QUADRUPOLE', 'MULLIKEN_CHARGES')
f=open( 'psi4out.xyz', 'w' )
f.write( "20  " )
f.write( str(ee) + "\n" )
f.write( MOL.save_string_xyz() )
f.close()
--------------------------------------------------------------------------

    Molecular point group: c1
  Charge       = 0
  Multiplicity = 1
  Basis Set: CC-PVTZ
  Basis Set:
  @DF-RHF Final Energy:  -384.08558611543162
    Total Energy =                       -384.0855861154317381
    Molecular point group: c1
  Basis Set: CC-PVTZ
  Basis Set:
  Basis Set: CC-PVTZ
  Basis Set:
  @DF-RHF Final Energy:  -384.08582343989741
    Total Energy =                       -384.0858234398975810
  Basis Set: CC-PVTZ
  Basis Set:
  Basis Set: CC-PVTZ
  Basis Set:
  @DF-RHF Final Energy:  -384.08569049473965
    Total Energy =                       -384.0856904947396515
  Basis Set: CC-PVTZ
  Basis Set:
  Basis Set: CC-PVTZ
  Basis Set:
  @DF-RHF Final Energy:  -384.08588584708178
    Total Energy =                       -384.0858858470817268
  Basis Set: CC-PVTZ
  Basis Set:
  Basis Set: CC-PVTZ
  Basis Set:
  @DF-RHF Final Energy:  -384.08588747973823
    Total Energy =                       -384.0858874797384033
  Basis Set: CC-PVTZ
  Basis Set:
  Charge       = 0
  Multiplicity = 1
  Basis Set: CC-PVTZ
  Basis Set:

    Orbital Energies (a.u.)
    -----------------------

    Doubly Occupied:

       1A    -20.594477     2A    -20.532793     3A    -11.366833
       4A    -11.279770     5A    -11.231805     6A    -11.223683
       7A    -11.218812     8A    -11.211359     9A     -1.471171
      10A     -1.365338    11A     -1.086559    12A     -1.028129
      13A     -0.980029    14A     -0.889603    15A     -0.809577
      16A     -0.771256    17A     -0.693446    18A     -0.690779
      19A     -0.668471    20A     -0.622558    21A     -0.618451
      22A     -0.578684    23A     -0.576783    24A     -0.564159
      25A     -0.537727    26A     -0.528310    27A     -0.523807
      28A     -0.481453    29A     -0.477013    30A     -0.469455
      31A     -0.451452    32A     -0.442234

  @DF-RHF Final Energy:  -384.08588749692689

   => Energetics <=

    Nuclear Repulsion Energy =            390.1970132084523470
    One-Electron Energy =               -1296.5938519640408231
    Two-Electron Energy =                 522.3109512586614755
    DFT Exchange-Correlation Energy =       0.0000000000000000
    Empirical Dispersion Energy =           0.0000000000000000
    PCM Polarization Energy =               0.0000000000000000
    EFP Energy =                            0.0000000000000000
    Total Energy =                       -384.0858874969270573
    Molecular point group: c1
  Basis Set: CC-PVTZ
  Basis Set:

  -Total Gradient:
     Atom            X                  Y                   Z
    ------   -----------------  -----------------  -----------------
       1       -0.000007252741    -0.000001388170     0.000008134165
       2       -0.000004766974     0.000001561854     0.000007423980
       3        0.000001357062     0.000001838546    -0.000011538696
       4       -0.000000716784    -0.000013529783     0.000024700954
       5       -0.000000234058     0.000002054810     0.000002575325
       6        0.000000153069     0.000000295043    -0.000000288841
       7       -0.000000401055    -0.000003165092     0.000001014799
       8       -0.000280851242     0.000723283571     0.000437586818
       9        0.000303822743    -0.001118682882    -0.000956128843
      10        0.000006973118    -0.000009047339     0.000013170098
      11       -0.000010570093    -0.000001150142     0.000017785491
      12        0.000524498402     0.000975594089     0.001421583890
      13       -0.000001823520     0.000002388497     0.000000154195
      14        0.000003996233     0.000006722632     0.000001953351
      15       -0.000003914872     0.000000105288     0.000008800664
      16       -0.000533206461    -0.000560049050    -0.000977593991
      17        0.000004874358    -0.000007170604     0.000004653918
      18       -0.000000310995     0.000004768134    -0.000000284711
      19       -0.000001855083    -0.000002360962    -0.000001650599
      20        0.000000228892    -0.000002068439    -0.000002051969

  **** Optimization is complete! (in 6 steps) ****
    Final optimized geometry and variables:
    Molecular point group: c1

    Geometry (in Angstrom), charge = 0, multiplicity = 1:

    O           -2.312153962719    -0.822744617313    -0.157815770992
    C           -1.786945997296     0.178065759055     0.193723032331
    C           -2.489216224887     1.492703987293     0.384133779737
    O           -0.498251159536     0.270362186093     0.468151421933
    H           -2.047352690825     2.237888109144    -0.264809313346
    H           -3.536955900497     1.378717639010     0.158518605630
    H           -2.361409618372     1.828553097699     1.405059220099
    C            0.294956069057    -0.902293757348     0.333868227684
    C            1.725647886121    -0.552096496466     0.692801811215
    H            0.204215344371    -1.273999690378    -0.676408787746
    H           -0.091246248926    -1.662636878017     0.997929961811
    C            2.403781642512     0.452560885598    -0.241607274252
    H            2.295109930130    -1.477020272691     0.712513442066
    H            1.730367891389    -0.162385796723     1.705203269745
    C            2.769794757631    -0.118141782159    -1.609996394809
    H            1.756419222235     1.312003612996    -0.372608442523
    H            3.305927131146     0.813979214635     0.240258570677
    H            3.267076846851     0.629113219835    -2.217383858189
    H            1.895555474755    -0.450545784378    -2.157821181070
    H            3.441119361489    -0.965220955089    -1.513802127870

  Mulliken Charges: (a.u.)
   Center  Symbol    Alpha    Beta     Spin     Total
       1     O     4.19724  4.19724  0.00000 -0.39448
       2     C     2.80920  2.80920  0.00000  0.38160
       3     C     3.13831  3.13831  0.00000 -0.27661
       4     O     4.15337  4.15337  0.00000 -0.30674
       5     H     0.44629  0.44629  0.00000  0.10742
       6     H     0.43777  0.43777  0.00000  0.12445
       7     H     0.44560  0.44560  0.00000  0.10880
       8     C     2.99395  2.99395  0.00000  0.01210
       9     C     3.09100  3.09100  0.00000 -0.18200
      10     H     0.45039  0.45039  0.00000  0.09922
      11     H     0.44320  0.44320  0.00000  0.11361
      12     C     3.09217  3.09217  0.00000 -0.18434
      13     H     0.45162  0.45162  0.00000  0.09676
      14     H     0.44689  0.44689  0.00000  0.10623
      15     C     3.15169  3.15169  0.00000 -0.30338
      16     H     0.44847  0.44847  0.00000  0.10306
      17     H     0.44770  0.44770  0.00000  0.10460
      18     H     0.44623  0.44623  0.00000  0.10754
      19     H     0.45369  0.45369  0.00000  0.09261
      20     H     0.45523  0.45523  0.00000  0.08954

   Total alpha = 32.00000, Total beta = 32.00000, Total charge = -0.00000
