  ==> Input File <==

--------------------------------------------------------------------------
set {
	reference rhf
	basis 6-31G*
}

set_num_threads( 1 )
memory 2 gb

molecule MOL {
0 1

H	 1.854582	 0.635384	 6.251344
C	 1.416277	 -0.228775	 5.761812
C	 0.506947	 0.192123	 4.608061
H	 2.229072	 -0.856077	 5.407979
H	 0.866523	 -0.790597	 6.512096
C	 -0.133578	 -1.003500	 3.899522
H	 1.081047	 0.771670	 3.892425
H	 -0.275885	 0.846861	 4.987776
C	 -1.063828	 -0.612477	 2.751044
H	 0.641855	 -1.658021	 3.517488
H	 -0.706671	 -1.579620	 4.622496
C	 -0.349264	 -0.064955	 1.524316
H	 -1.624753	 -1.484860	 2.419258
H	 -1.808979	 0.107372	 3.082320
C	 -1.181045	 0.701995	 0.511084
O	 0.818505	 -0.243537	 1.348729
C	 -2.285934	 -0.139295	 -0.145128
H	 -0.497643	 1.075518	 -0.242014
H	 -1.629340	 1.559411	 1.009636
C	 -3.651768	 0.085446	 0.506485
H	 -2.346596	 0.110469	 -1.202272
H	 -2.034737	 -1.195320	 -0.088721
C	 -4.759797	 -0.746382	 -0.137905
H	 -3.908762	 1.140117	 0.445781
H	 -3.588286	 -0.154158	 1.565709
H	 -4.868882	 -0.505166	 -1.191300
H	 -4.548009	 -1.809175	 -0.062213
H	 -5.715422	 -0.564821	 0.343442

	symmetry c1
}
set optking {
	frozen_dihedral = ("
		10 6 3 2,
		16 12 15 17
	")
}

ee = energy('scf')
oeprop('DIPOLE', 'QUADRUPOLE', 'MULLIKEN_CHARGES')
f=open( 'psi4out.xyz', 'w' )
f.write( "28  " )
f.write( str(ee) + "\n" )
f.write( MOL.save_string_xyz() )
f.close()
--------------------------------------------------------------------------

    Molecular point group: c1

    Geometry (in Angstrom), charge = 0, multiplicity = 1:

       Center              X                  Y                   Z               Mass
    ------------   -----------------  -----------------  -----------------  -----------------
           H          2.924145258718     0.846944076356     4.179251339223     1.007825032070
           C          2.485840258718    -0.017214923644     3.689719339223    12.000000000000
           C          1.576510258718     0.403683076356     2.535968339223    12.000000000000
           H          3.298635258718    -0.644516923644     3.335886339223     1.007825032070
           H          1.936086258718    -0.579036923644     4.440003339223     1.007825032070
           C          0.935985258718    -0.791939923644     1.827429339223    12.000000000000
           H          2.150610258718     0.983230076356     1.820332339223     1.007825032070
           H          0.793678258718     1.058421076356     2.915683339223     1.007825032070
           C          0.005735258718    -0.400916923644     0.678951339223    12.000000000000
           H          1.711418258718    -1.446460923644     1.445395339223     1.007825032070
           H          0.362892258718    -1.368059923644     2.550403339223     1.007825032070
           C          0.720299258718     0.146605076356    -0.547776660777    12.000000000000
           H         -0.555189741282    -1.273299923644     0.347165339223     1.007825032070
           H         -0.739415741282     0.318932076356     1.010227339223     1.007825032070
           C         -0.111481741282     0.913555076356    -1.561008660777    12.000000000000
           O          1.888068258718    -0.031976923644    -0.723363660777    15.994914619560
           C         -1.216370741282     0.072265076356    -2.217220660777    12.000000000000
           H          0.571920258718     1.287078076356    -2.314106660777     1.007825032070
           H         -0.559776741282     1.770971076356    -1.062456660777     1.007825032070
           C         -2.582204741282     0.297006076356    -1.565607660777    12.000000000000
           H         -1.277032741282     0.322029076356    -3.274364660777     1.007825032070
           H         -0.965173741282    -0.983759923644    -2.160813660777     1.007825032070
           C         -3.690233741282    -0.534821923644    -2.209997660777    12.000000000000
           H         -2.839198741282     1.351677076356    -1.626311660777     1.007825032070
           H         -2.518722741282     0.057402076356    -0.506383660777     1.007825032070
           H         -3.799318741282    -0.293605923644    -3.263392660777     1.007825032070
           H         -3.478445741282    -1.597614923644    -2.134305660777     1.007825032070
           H         -4.645858741282    -0.353260923644    -1.728650660777     1.007825032070

  Charge       = 0
  Multiplicity = 1
  Basis Set: 6-31G*
  Basis Set:

    Orbital Energies (a.u.)
    -----------------------

    Doubly Occupied:

       1A    -20.548037     2A    -11.322229     3A    -11.232000
       4A    -11.230421     5A    -11.227611     6A    -11.226921
       7A    -11.217016     8A    -11.216786     9A    -11.212610
      10A    -11.205941    11A     -1.393208    12A     -1.097465
      13A     -1.077205    14A     -1.021087    15A     -0.992121
      16A     -0.906939    17A     -0.875704    18A     -0.813378
      19A     -0.797458    20A     -0.724290    21A     -0.671575
      22A     -0.650184    23A     -0.626698    24A     -0.612336
      25A     -0.611475    26A     -0.592718    27A     -0.578066
      28A     -0.574374    29A     -0.546734    30A     -0.533609
      31A     -0.524079    32A     -0.516881    33A     -0.496594
      34A     -0.482234    35A     -0.480536    36A     -0.476960
      37A     -0.465184    38A     -0.462301    39A     -0.455405
      40A     -0.393112

  @DF-RHF Final Energy:  -426.16397261979284

   => Energetics <=

    Nuclear Repulsion Energy =            540.7368734840232491
    One-Electron Energy =               -1649.6228550466450997
    Two-Electron Energy =                 682.7220089428310530
    DFT Exchange-Correlation Energy =       0.0000000000000000
    Empirical Dispersion Energy =           0.0000000000000000
    PCM Polarization Energy =               0.0000000000000000
    EFP Energy =                            0.0000000000000000
    Total Energy =                       -426.1639726197909113

  Mulliken Charges: (a.u.)
   Center  Symbol    Alpha    Beta     Spin     Total
       1     H     0.41928  0.41928  0.00000  0.16145
       2     C     3.24014  3.24014  0.00000 -0.48028
       3     C     3.15649  3.15649  0.00000 -0.31299
       4     H     0.41824  0.41824  0.00000  0.16351
       5     H     0.42360  0.42360  0.00000  0.15279
       6     C     3.14825  3.14825  0.00000 -0.29649
       7     H     0.41038  0.41038  0.00000  0.17924
       8     H     0.42765  0.42765  0.00000  0.14470
       9     C     3.21310  3.21310  0.00000 -0.42619
      10     H     0.40662  0.40662  0.00000  0.18675
      11     H     0.42201  0.42201  0.00000  0.15599
      12     C     2.73318  2.73318  0.00000  0.53364
      13     H     0.40346  0.40346  0.00000  0.19308
      14     H     0.41233  0.41233  0.00000  0.17535
      15     C     3.20346  3.20346  0.00000 -0.40692
      16     O     4.26678  4.26678  0.00000 -0.53356
      17     C     3.16406  3.16406  0.00000 -0.32811
      18     H     0.39755  0.39755  0.00000  0.20489
      19     H     0.41098  0.41098  0.00000  0.17804
      20     C     3.15726  3.15726  0.00000 -0.31452
      21     H     0.41154  0.41154  0.00000  0.17692
      22     H     0.41550  0.41550  0.00000  0.16900
      23     C     3.24011  3.24011  0.00000 -0.48021
      24     H     0.42005  0.42005  0.00000  0.15989
      25     H     0.42002  0.42002  0.00000  0.15996
      26     H     0.41979  0.41979  0.00000  0.16041
      27     H     0.42074  0.42074  0.00000  0.15852
      28     H     0.41743  0.41743  0.00000  0.16514

   Total alpha = 40.00000, Total beta = 40.00000, Total charge = -0.00000
