  ==> Input File <==

--------------------------------------------------------------------------
set {
	reference rhf
	basis 6-31G*
}

set_num_threads( 1 )
memory 2 gb

molecule MOL {
0 1

H	 0.283338	 1.701201	 -1.704739
C	 0.531965	 1.851908	 -0.647255
C	 0.692068	 0.589600	 0.160137
O	 0.656263	 2.951558	 -0.214301
C	 -0.558097	 -0.297372	 0.091132
H	 0.924209	 0.866813	 1.181775
H	 1.544302	 0.043584	 -0.242847
C	 -1.850991	 0.512573	 -0.019058
H	 -0.476753	 -0.965681	 -0.762987
H	 -0.604799	 -0.930658	 0.975228
C	 -3.096943	 -0.368295	 -0.099594
H	 -1.800724	 1.150330	 -0.898172
H	 -1.931651	 1.177355	 0.838044
H	 -3.060452	 -1.020287	 -0.967456
H	 -3.996858	 0.233488	 -0.175704
H	 -3.191959	 -0.995686	 0.782074

	symmetry c1
}
set optking {
	frozen_dihedral = ("
		9 5 8 12,
		4 2 3 6
	")
}

ee = energy('scf')
oeprop('DIPOLE', 'QUADRUPOLE', 'MULLIKEN_CHARGES')
f=open( 'psi4out.xyz', 'w' )
f.write( "16  " )
f.write( str(ee) + "\n" )
f.write( MOL.save_string_xyz() )
f.close()
--------------------------------------------------------------------------

    Molecular point group: c1

    Geometry (in Angstrom), charge = 0, multiplicity = 1:

       Center              X                  Y                   Z               Mass
    ------------   -----------------  -----------------  -----------------  -----------------
           H          0.902518078589     0.818914303682    -1.581753004059     1.007825032070
           C          1.151145078589     0.969621303682    -0.524269004059    12.000000000000
           C          1.311248078589    -0.292686696318     0.283122995941    12.000000000000
           O          1.275443078589     2.069271303682    -0.091315004059    15.994914619560
           C          0.061083078589    -1.179658696318     0.214117995941    12.000000000000
           H          1.543389078589    -0.015473696318     1.304760995941     1.007825032070
           H          2.163482078589    -0.838702696318    -0.119861004059     1.007825032070
           C         -1.231810921411    -0.369713696318     0.103927995941    12.000000000000
           H          0.142427078589    -1.847967696318    -0.640001004059     1.007825032070
           H          0.014381078589    -1.812944696318     1.098213995941     1.007825032070
           C         -2.477762921411    -1.250581696318     0.023391995941    12.000000000000
           H         -1.181543921411     0.268043303682    -0.775186004059     1.007825032070
           H         -1.312470921411     0.295068303682     0.961029995941     1.007825032070
           H         -2.441271921411    -1.902573696318    -0.844470004059     1.007825032070
           H         -3.377677921411    -0.648798696318    -0.052718004059     1.007825032070
           H         -2.572778921411    -1.877972696318     0.905059995941     1.007825032070

  Charge       = 0
  Multiplicity = 1
  Basis Set: 6-31G*
  Basis Set:

    Orbital Energies (a.u.)
    -----------------------

    Doubly Occupied:

       1A    -20.561334     2A    -11.326247     3A    -11.235112
       4A    -11.234190     5A    -11.227755     6A    -11.217824
       7A     -1.401713     8A     -1.098283     9A     -1.015486
      10A     -0.903331    11A     -0.831890    12A     -0.778228
      13A     -0.670881    14A     -0.648975    15A     -0.623502
      16A     -0.608361    17A     -0.586203    18A     -0.556777
      19A     -0.522405    20A     -0.511091    21A     -0.494321
      22A     -0.476503    23A     -0.468872    24A     -0.408250

  @DF-RHF Final Energy:  -270.01415526095610

   => Energetics <=

    Nuclear Repulsion Energy =            236.0295850090477074
    One-Electron Energy =                -833.2725384298835252
    Two-Electron Energy =                 327.2287981598799433
    DFT Exchange-Correlation Energy =       0.0000000000000000
    Empirical Dispersion Energy =           0.0000000000000000
    PCM Polarization Energy =               0.0000000000000000
    EFP Energy =                            0.0000000000000000
    Total Energy =                       -270.0141552609559312

  Mulliken Charges: (a.u.)
   Center  Symbol    Alpha    Beta     Spin     Total
       1     H     0.43106  0.43106  0.00000  0.13788
       2     C     2.83431  2.83431  0.00000  0.33138
       3     C     3.20711  3.20711  0.00000 -0.41422
       4     O     4.23854  4.23854  0.00000 -0.47707
       5     C     3.16103  3.16103  0.00000 -0.32206
       6     H     0.39932  0.39932  0.00000  0.20135
       7     H     0.40717  0.40717  0.00000  0.18565
       8     C     3.16405  3.16405  0.00000 -0.32809
       9     H     0.41852  0.41852  0.00000  0.16296
      10     H     0.41173  0.41173  0.00000  0.17653
      11     C     3.23909  3.23909  0.00000 -0.47818
      12     H     0.41944  0.41944  0.00000  0.16113
      13     H     0.41241  0.41241  0.00000  0.17518
      14     H     0.42094  0.42094  0.00000  0.15813
      15     H     0.41545  0.41545  0.00000  0.16910
      16     H     0.41984  0.41984  0.00000  0.16032

   Total alpha = 24.00000, Total beta = 24.00000, Total charge =  0.00000
