  ==> Input File <==

--------------------------------------------------------------------------
set {
	reference rhf
	basis 6-31G*
}

set_num_threads( 1 )
memory 2 gb

molecule MOL {
0 1

H	 -1.836216	 1.387520	 -0.000064
C	 -1.301823	 0.443321	 -0.000031
O	 -0.003969	 0.658512	 0.000451
O	 -1.829879	 -0.616434	 -0.000857
C	 0.838147	 -0.409034	 -0.433570
C	 2.268802	 0.076387	 -0.344628
H	 0.567102	 -0.677515	 -1.445385
H	 0.665386	 -1.269056	 0.198735
H	 2.421308	 0.942770	 -0.977998
H	 2.944534	 -0.708652	 -0.667634
H	 2.520227	 0.348412	 0.674036

	symmetry c1
}
set optking {
	frozen_dihedral = ("
		7 5 3 2
	")
}

ee = energy('scf')
oeprop('DIPOLE', 'QUADRUPOLE', 'MULLIKEN_CHARGES')
f=open( 'psi4out.xyz', 'w' )
f.write( "11  " )
f.write( str(ee) + "\n" )
f.write( MOL.save_string_xyz() )
f.close()
--------------------------------------------------------------------------

    Molecular point group: c1

    Geometry (in Angstrom), charge = 0, multiplicity = 1:

       Center              X                  Y                   Z               Mass
    ------------   -----------------  -----------------  -----------------  -----------------
           H         -1.831739783774     1.360171636702     0.156357043313     1.007825032070
           C         -1.297346783774     0.415972636702     0.156390043313    12.000000000000
           O          0.000507216226     0.631163636702     0.156872043313    15.994914619560
           O         -1.825402783774    -0.643782363298     0.155564043313    15.994914619560
           C          0.842623216226    -0.436382363298    -0.277148956687    12.000000000000
           C          2.273278216226     0.049038636702    -0.188206956687    12.000000000000
           H          0.571578216226    -0.704863363298    -1.288963956687     1.007825032070
           H          0.669862216226    -1.296404363298     0.355156043313     1.007825032070
           H          2.425784216226     0.915421636702    -0.821576956687     1.007825032070
           H          2.949010216226    -0.736000363298    -0.511212956687     1.007825032070
           H          2.524703216226     0.321063636702     0.830457043313     1.007825032070

  Charge       = 0
  Multiplicity = 1
  Basis Set: 6-31G*
  Basis Set:

    Orbital Energies (a.u.)
    -----------------------

    Doubly Occupied:

       1A    -20.610523     2A    -20.558057     3A    -11.378492
       4A    -11.292771     5A    -11.227090     6A     -1.475735
       7A     -1.374222     8A     -1.052752     9A     -0.901805
      10A     -0.807328    11A     -0.738470    12A     -0.688722
      13A     -0.676496    14A     -0.599175    15A     -0.569672
      16A     -0.556154    17A     -0.520984    18A     -0.513180
      19A     -0.461613    20A     -0.452057

  @DF-RHF Final Energy:  -266.82638275343868

   => Energetics <=

    Nuclear Repulsion Energy =            179.1714616941192446
    One-Electron Energy =                -719.0851359832674916
    Two-Electron Energy =                 273.0872915357094826
    DFT Exchange-Correlation Energy =       0.0000000000000000
    Empirical Dispersion Energy =           0.0000000000000000
    PCM Polarization Energy =               0.0000000000000000
    EFP Energy =                            0.0000000000000000
    Total Energy =                       -266.8263827534387929

  Mulliken Charges: (a.u.)
   Center  Symbol    Alpha    Beta     Spin     Total
       1     H     0.41200  0.41200  0.00000  0.17600
       2     C     2.72716  2.72716  0.00000  0.54568
       3     O     4.29213  4.29213  0.00000 -0.58426
       4     O     4.26075  4.26075  0.00000 -0.52150
       5     C     3.00683  3.00683  0.00000 -0.01367
       6     C     3.24938  3.24938  0.00000 -0.49877
       7     H     0.41190  0.41190  0.00000  0.17620
       8     H     0.40446  0.40446  0.00000  0.19108
       9     H     0.41090  0.41090  0.00000  0.17820
      10     H     0.41511  0.41511  0.00000  0.16979
      11     H     0.40937  0.40937  0.00000  0.18125

   Total alpha = 20.00000, Total beta = 20.00000, Total charge =  0.00000
