  ==> Input File <==

--------------------------------------------------------------------------
set {
	reference rhf
	basis 6-31G*
}

set_num_threads( 1 )
memory 2 gb

molecule MOL {
0 1

H	 -2.762990	 -1.074414	 -0.183207
N	 -1.835156	 -0.934642	 0.166881
C	 -1.380421	 0.417435	 -0.105529
H	 -1.237865	 -1.588655	 -0.300687
C	 0.036805	 0.597301	 0.396717
H	 -1.407056	 0.684858	 -1.162779
H	 -2.025001	 1.113309	 0.422730
O	 0.874168	 -0.245412	 -0.342030
H	 0.349851	 1.634327	 0.277475
H	 0.085004	 0.344939	 1.453705
C	 2.202317	 -0.244239	 0.074611
H	 2.711377	 -1.041390	 -0.449894
H	 2.692099	 0.699270	 -0.159667
H	 2.283185	 -0.418429	 1.145558

	symmetry c1
}
set optking {
	frozen_dihedral = ("
		8 5 3 6,
		6 3 2 4,
		11 8 5 3
	")
}

ee = energy('scf')
oeprop('DIPOLE', 'QUADRUPOLE', 'MULLIKEN_CHARGES')
f=open( 'psi4out.xyz', 'w' )
f.write( "14  " )
f.write( str(ee) + "\n" )
f.write( MOL.save_string_xyz() )
f.close()
--------------------------------------------------------------------------

    Molecular point group: c1

    Geometry (in Angstrom), charge = 0, multiplicity = 1:

       Center              X                  Y                   Z               Mass
    ------------   -----------------  -----------------  -----------------  -----------------
           H         -2.753436335957    -0.975695283557    -0.213940188100     1.007825032070
           N         -1.825602335957    -0.835923283557     0.136147811900    14.003074004780
           C         -1.370867335957     0.516153716443    -0.136262188100    12.000000000000
           H         -1.228311335957    -1.489936283557    -0.331420188100     1.007825032070
           C          0.046358664043     0.696019716443     0.365983811900    12.000000000000
           H         -1.397502335957     0.783576716443    -1.193512188100     1.007825032070
           H         -2.015447335957     1.212027716443     0.391996811900     1.007825032070
           O          0.883721664043    -0.146693283557    -0.372763188100    15.994914619560
           H          0.359404664043     1.733045716443     0.246741811900     1.007825032070
           H          0.094557664043     0.443657716443     1.422971811900     1.007825032070
           C          2.211870664043    -0.145520283557     0.043877811900    12.000000000000
           H          2.720930664043    -0.942671283557    -0.480627188100     1.007825032070
           H          2.701652664043     0.797988716443    -0.190400188100     1.007825032070
           H          2.292738664043    -0.319710283557     1.114824811900     1.007825032070

  Charge       = 0
  Multiplicity = 1
  Basis Set: 6-31G*
  Basis Set:

    Orbital Energies (a.u.)
    -----------------------

    Doubly Occupied:

       1A    -20.557434     2A    -15.528474     3A    -11.266182
       4A    -11.265682     5A    -11.240804     6A     -1.381474
       7A     -1.173664     8A     -0.999023     9A     -0.907196
      10A     -0.815313    11A     -0.683584    12A     -0.674113
      13A     -0.645431    14A     -0.610088    15A     -0.605424
      16A     -0.540538    17A     -0.530142    18A     -0.496912
      19A     -0.472920    20A     -0.417446    21A     -0.380125

  @DF-RHF Final Energy:  -248.12503656319976

   => Energetics <=

    Nuclear Repulsion Energy =            194.6780844574676905
    One-Electron Energy =                -723.2222445779530062
    Two-Electron Energy =                 280.4191235572857295
    DFT Exchange-Correlation Energy =       0.0000000000000000
    Empirical Dispersion Energy =           0.0000000000000000
    PCM Polarization Energy =               0.0000000000000000
    EFP Energy =                            0.0000000000000000
    Total Energy =                       -248.1250365631996146

  Mulliken Charges: (a.u.)
   Center  Symbol    Alpha    Beta     Spin     Total
       1     H     0.33281  0.33281  0.00000  0.33437
       2     N     3.92527  3.92527  0.00000 -0.85053
       3     C     3.06899  3.06899  0.00000 -0.13799
       4     H     0.32374  0.32374  0.00000  0.35252
       5     C     2.99025  2.99025  0.00000  0.01950
       6     H     0.42657  0.42657  0.00000  0.14686
       7     H     0.42043  0.42043  0.00000  0.15913
       8     O     4.30980  4.30980  0.00000 -0.61960
       9     H     0.43118  0.43118  0.00000  0.13763
      10     H     0.42222  0.42222  0.00000  0.15555
      11     C     3.07876  3.07876  0.00000 -0.15751
      12     H     0.41272  0.41272  0.00000  0.17456
      13     H     0.42904  0.42904  0.00000  0.14192
      14     H     0.42821  0.42821  0.00000  0.14358

   Total alpha = 21.00000, Total beta = 21.00000, Total charge =  0.00000
