                              Psi4 1.0.54 Driver

  ==> Input File <==

--------------------------------------------------------------------------
set {
	reference rhf
	basis cc-pvtz
}

set_num_threads( 4 )
memory 2 gb

molecule MOL {
0 1

O	 -0.686071	 -0.490769	 2.206964
C	 -0.208767	 -0.802101	 1.169129
C	 1.013382	 -1.669009	 0.999774
O	 -0.695554	 -0.422406	 0.000602
C	 1.612433	 -2.133577	 2.317456
H	 1.731237	 -1.101508	 0.417901
H	 0.726720	 -2.509946	 0.378012
H	 1.912044	 -1.291865	 2.927350
H	 2.483902	 -2.749900	 2.132965
H	 0.898396	 -2.713109	 2.887122
C	 -1.852370	 0.402254	 0.000718
C	 -3.063338	 -0.501097	 -0.000437
H	 -1.831732	 1.039442	 -0.872158
H	 -1.832493	 1.038301	 0.874430
H	 -3.071944	 -1.133732	 -0.879113
H	 -3.966302	 0.097976	 -0.000483
H	 -3.072764	 -1.134834	 0.877435

	symmetry c1
}
set optking {
	frozen_dihedral = ("
		2 4 11 13
	")
}

ee,wfn = optimize('scf', return_wfn=True)
oeprop( wfn, 'DIPOLE', 'QUADRUPOLE', 'MULLIKEN_CHARGES')
f=open( 'psi4out.xyz', 'w' )
f.write( "17  " )
f.write( str(ee) + "\n" )
f.write( MOL.save_string_xyz() )
f.close()
--------------------------------------------------------------------------

    Molecular point group: c1
  Charge       = 0
  Multiplicity = 1
  Basis Set: CC-PVTZ
  Basis Set:
  @DF-RHF Final Energy:  -345.03812924527392
    Total Energy =                       -345.0381292452739217
    Molecular point group: c1
  Basis Set: CC-PVTZ
  Basis Set:
  Basis Set: CC-PVTZ
  Basis Set:
  @DF-RHF Final Energy:  -345.03605392656414
    Total Energy =                       -345.0360539265648185
  Basis Set: CC-PVTZ
  Basis Set:
  Basis Set: CC-PVTZ
  Basis Set:
  @DF-RHF Final Energy:  -345.03942166666974
    Total Energy =                       -345.0394216666696821
  Basis Set: CC-PVTZ
  Basis Set:
  Basis Set: CC-PVTZ
  Basis Set:
  @DF-RHF Final Energy:  -345.03826275904561
    Total Energy =                       -345.0382627590457787
  Basis Set: CC-PVTZ
  Basis Set:
  Basis Set: CC-PVTZ
  Basis Set:
  @DF-RHF Final Energy:  -345.03954454000080
    Total Energy =                       -345.0395445400010885
  Basis Set: CC-PVTZ
  Basis Set:
  Basis Set: CC-PVTZ
  Basis Set:
  @DF-RHF Final Energy:  -345.03955555794494
    Total Energy =                       -345.0395555579451639
  Basis Set: CC-PVTZ
  Basis Set:
  Charge       = 0
  Multiplicity = 1
  Basis Set: CC-PVTZ
  Basis Set:

    Orbital Energies (a.u.)
    -----------------------

    Doubly Occupied:

       1A    -20.592666     2A    -20.532778     3A    -11.364550
       4A    -11.282019     5A    -11.235645     6A    -11.217067
       7A    -11.213723     8A     -1.469195     9A     -1.364971
      10A     -1.069818    11A     -1.029380    12A     -0.916264
      13A     -0.853709    14A     -0.762817    15A     -0.704550
      16A     -0.683274    17A     -0.662612    18A     -0.622218
      19A     -0.609490    20A     -0.570282    21A     -0.549810
      22A     -0.533854    23A     -0.521573    24A     -0.516126
      25A     -0.497482    26A     -0.491917    27A     -0.452855
      28A     -0.439523

  @DF-RHF Final Energy:  -345.03955591754766

   => Energetics <=

    Nuclear Repulsion Energy =            318.4269914673305948
    One-Electron Energy =               -1101.4127547075797793
    Two-Electron Energy =                 437.9462073227012979
    DFT Exchange-Correlation Energy =       0.0000000000000000
    Empirical Dispersion Energy =           0.0000000000000000
    PCM Polarization Energy =               0.0000000000000000
    EFP Energy =                            0.0000000000000000
    Total Energy =                       -345.0395559175478866
    Molecular point group: c1
  Basis Set: CC-PVTZ
  Basis Set:

  -Total Gradient:
     Atom            X                  Y                   Z
    ------   -----------------  -----------------  -----------------
       1       -0.000030734066     0.000009285021    -0.000108668682
       2        0.000280043805     0.000504338732    -0.000047632063
       3        0.000015494786    -0.000008080741     0.000013516578
       4       -0.000304150567    -0.000651355132     0.000213135273
       5        0.000009585453    -0.000007174584    -0.000009231443
       6       -0.000006518932    -0.000014878273     0.000017459594
       7        0.000016143739     0.000019702949     0.000014937469
       8       -0.000009707890    -0.000022614684    -0.000018209791
       9       -0.000000156421     0.000000638276     0.000009419499
      10        0.000011012356     0.000015222564    -0.000018265196
      11       -0.000239086999    -0.000429620456    -0.000354062816
      12        0.000024927512     0.000026695730     0.000014882118
      13        0.000244388880     0.000537624745     0.000280337296
      14       -0.000014374336    -0.000003001000     0.000005126164
      15       -0.000000577407     0.000013724420     0.000006764469
      16       -0.000002819859    -0.000006627605    -0.000001385375
      17        0.000006529948     0.000016120039    -0.000018123093

  **** Optimization is complete! (in 7 steps) ****
    Final optimized geometry and variables:
    Molecular point group: c1

    Geometry (in Angstrom), charge = 0, multiplicity = 1:

    O           -0.150407414555     0.444131793213     1.214201916917
    C            0.364535596677     0.064899753435     0.217594088783
    C            1.701799753040    -0.628576975635     0.143880732490
    O           -0.169276192475     0.200002472440    -0.984364665867
    C            2.362986358668    -0.814959783078     1.499945269608
    H            2.327735967816    -0.047593880934    -0.524266757779
    H            1.542542945190    -1.579678194934    -0.351938830503
    H            2.534448373027     0.137171302275     1.983819344377
    H            3.316242852089    -1.315947785278     1.383044025783
    H            1.742924330803    -1.409528262231     2.157365781381
    C           -1.427189561840     0.852132589441    -1.110015719737
    C           -2.572983744523    -0.131277366680    -0.997832213128
    H           -1.404436762747     1.313917844351    -2.085916052634
    H           -1.504195046408     1.624162346528    -0.361025921962
    H           -2.480760524312    -0.914216001753    -1.740652107805
    H           -3.513387440376     0.383515390204    -1.159072437141
    H           -2.597300365599    -0.582585995163    -0.014866909264

  Mulliken Charges: (a.u.)
   Center  Symbol    Alpha    Beta     Spin     Total
       1     O     4.19923  4.19923  0.00000 -0.39846
       2     C     2.80183  2.80183  0.00000  0.39635
       3     C     3.09425  3.09425  0.00000 -0.18850
       4     O     4.15711  4.15711  0.00000 -0.31421
       5     C     3.13991  3.13991  0.00000 -0.27982
       6     H     0.44169  0.44169  0.00000  0.11663
       7     H     0.44196  0.44196  0.00000  0.11608
       8     H     0.44846  0.44846  0.00000  0.10308
       9     H     0.45056  0.45056  0.00000  0.09887
      10     H     0.44868  0.44868  0.00000  0.10264
      11     C     2.98805  2.98805  0.00000  0.02389
      12     C     3.14715  3.14715  0.00000 -0.29431
      13     H     0.44516  0.44516  0.00000  0.10969
      14     H     0.44841  0.44841  0.00000  0.10319
      15     H     0.45209  0.45209  0.00000  0.09583
      16     H     0.45150  0.45150  0.00000  0.09701
      17     H     0.44398  0.44398  0.00000  0.11205

   Total alpha = 28.00000, Total beta = 28.00000, Total charge = -0.00000

*** Psi4 exiting successfully. Buy a developer a beer!
