  ==> Input File <==

--------------------------------------------------------------------------
set {
	reference rhf
	basis cc-pvtz
}

set_num_threads( 4 )
memory 2 gb

molecule MOL {
0 1

H	 -2.698799	 -0.000846	 0.036018
C	 -1.694291	 -0.000483	 0.434279
O	 -0.828718	 -0.000608	 -0.655022
H	 -1.576855	 0.881100	 1.056504
H	 -1.576401	 -0.881658	 1.057001
C	 -0.736590	 1.156645	 -1.448844
C	 -2.044226	 1.483896	 -2.161069
C	 -0.181000	 2.350815	 -0.681037
H	 -0.009718	 0.882107	 -2.203102
H	 -2.429729	 0.605437	 -2.663818
H	 -1.875007	 2.254489	 -2.904236
H	 -2.802360	 1.849813	 -1.478484
H	 0.725673	 2.073595	 -0.157456
H	 0.055858	 3.152987	 -1.370379
H	 -0.889648	 2.739653	 0.040881

	symmetry c1
}
set optking {
	frozen_dihedral = ("
		6 3 2 1
	")
}

ee = optimize('scf')
oeprop('DIPOLE', 'QUADRUPOLE', 'MULLIKEN_CHARGES')
f=open( 'psi4out.xyz', 'w' )
f.write( "15  " )
f.write( str(ee) + "\n" )
f.write( MOL.save_string_xyz() )
f.close()
--------------------------------------------------------------------------

    Molecular point group: c1
  Charge       = 0
  Multiplicity = 1
  Basis Set: CC-PVTZ
  Basis Set:
  @DF-RHF Final Energy:  -232.22381717982708
    Total Energy =                       -232.2238171798270514
    Molecular point group: c1
  Basis Set: CC-PVTZ
  Basis Set:
  Basis Set: CC-PVTZ
  Basis Set:
  @DF-RHF Final Energy:  -232.22570417460560
    Total Energy =                       -232.2257041746054824
  Basis Set: CC-PVTZ
  Basis Set:
  Basis Set: CC-PVTZ
  Basis Set:
  @DF-RHF Final Energy:  -232.22610329271234
    Total Energy =                       -232.2261032927124802
  Basis Set: CC-PVTZ
  Basis Set:
  Basis Set: CC-PVTZ
  Basis Set:
  @DF-RHF Final Energy:  -232.22610774153483
    Total Energy =                       -232.2261077415347472
  Basis Set: CC-PVTZ
  Basis Set:
  Basis Set: CC-PVTZ
  Basis Set:
  @DF-RHF Final Energy:  -232.22611249757125
    Total Energy =                       -232.2261124975713642
  Basis Set: CC-PVTZ
  Basis Set:
  Charge       = 0
  Multiplicity = 1
  Basis Set: CC-PVTZ
  Basis Set:

    Orbital Energies (a.u.)
    -----------------------

    Doubly Occupied:

       1A    -20.541787     2A    -11.272642     3A    -11.258585
       4A    -11.209209     5A    -11.208155     6A     -1.373514
       7A     -1.051575     8A     -0.940414     9A     -0.931449
      10A     -0.781492    11A     -0.675750    12A     -0.642460
      13A     -0.635033    14A     -0.573779    15A     -0.565335
      16A     -0.552820    17A     -0.534070    18A     -0.498504
      19A     -0.497301    20A     -0.444808    21A     -0.409381

  @DF-RHF Final Energy:  -232.22611265389693

   => Energetics <=

    Nuclear Repulsion Energy =            199.0397610718814860
    One-Electron Energy =                -709.3356195792721337
    Two-Electron Energy =                 278.0697458534937141
    DFT Exchange-Correlation Energy =       0.0000000000000000
    Empirical Dispersion Energy =           0.0000000000000000
    PCM Polarization Energy =               0.0000000000000000
    EFP Energy =                            0.0000000000000000
    Total Energy =                       -232.2261126538969620
    Molecular point group: c1
  Basis Set: CC-PVTZ
  Basis Set:

  -Total Gradient:
     Atom            X                  Y                   Z
    ------   -----------------  -----------------  -----------------
       1        0.000035946446    -0.000512300646     0.000001658735
       2        0.000130468679     0.000732043148     0.000154705112
       3       -0.000454353796    -0.000374062919    -0.000394180639
       4       -0.000009792378    -0.000021290649    -0.000012379805
       5       -0.000011872479    -0.000002059739     0.000003932087
       6        0.000305734931     0.000162701674     0.000254245272
       7       -0.000001314755     0.000002570675    -0.000000491240
       8       -0.000007741090     0.000002531681    -0.000010994627
       9        0.000004915258     0.000012397709    -0.000004996053
      10       -0.000001623542    -0.000003049757     0.000009971656
      11       -0.000001053627    -0.000005435608     0.000002445384
      12        0.000002793107     0.000005390447    -0.000002902086
      13       -0.000001628063     0.000000480009     0.000008764121
      14        0.000003102646    -0.000005721208     0.000000836214
      15        0.000006418665     0.000005805181    -0.000010614131

  **** Optimization is complete! (in 6 steps) ****
    Final optimized geometry and variables:
    Molecular point group: c1

    Geometry (in Angstrom), charge = 0, multiplicity = 1:

    H           -1.649727920760    -1.051738339442     0.930438313288
    C           -0.627764514940    -0.996667739156     1.292696079063
    O            0.297545210302    -0.980947059443     0.253585712750
    H           -0.536868239247    -0.135519326894     1.946668151868
    H           -0.429911428057    -1.884698825142     1.876083551406
    C            0.382242965558     0.161820815774    -0.561735342014
    C           -0.930792298823     0.481272630211    -1.266981831354
    C            0.947660149185     1.365757381839     0.183824955612
    H            1.102656620223    -0.124855873336    -1.317705120185
    H           -1.320245310086    -0.401163913336    -1.759958436981
    H           -0.768554693114     1.246069568079    -2.017540272554
    H           -1.683305098439     0.851172627336    -0.580022480568
    H            1.859834678415     1.092794385203     0.699786652767
    H            1.177436315236     2.159084928767    -0.518276081185
    H            0.248967087222     1.765305824574     0.909475524664

  Mulliken Charges: (a.u.)
   Center  Symbol    Alpha    Beta     Spin     Total
       1     H     0.46868  0.46868  0.00000  0.06263
       2     C     3.03934  3.03934  0.00000 -0.07869
       3     O     4.18325  4.18325  0.00000 -0.36649
       4     H     0.47094  0.47094  0.00000  0.05812
       5     H     0.44133  0.44133  0.00000  0.11734
       6     C     2.93393  2.93393  0.00000  0.13214
       7     C     3.16069  3.16069  0.00000 -0.32138
       8     C     3.15570  3.15570  0.00000 -0.31140
       9     H     0.44701  0.44701  0.00000  0.10597
      10     H     0.44381  0.44381  0.00000  0.11238
      11     H     0.44870  0.44870  0.00000  0.10260
      12     H     0.45539  0.45539  0.00000  0.08922
      13     H     0.44425  0.44425  0.00000  0.11150
      14     H     0.45070  0.45070  0.00000  0.09860
      15     H     0.45627  0.45627  0.00000  0.08746

   Total alpha = 21.00000, Total beta = 21.00000, Total charge = -0.00000
