                              Psi4 1.0.54 Driver

  ==> Input File <==

--------------------------------------------------------------------------
set {
	reference rhf
	basis cc-pvtz
}

set_num_threads( 4 )
memory 2 gb

molecule MOL {
0 1

H	 3.721907	 -0.933076	 -0.066039
O	 2.824271	 -1.154299	 0.131461
C	 2.076458	 -0.067370	 -0.038225
C	 0.626018	 -0.337582	 0.258241
O	 2.538288	 0.965419	 -0.381593
C	 -0.267326	 0.883135	 0.076490
H	 0.325620	 -1.161483	 -0.378003
H	 0.574537	 -0.713685	 1.275261
C	 -1.726822	 0.642622	 0.463839
H	 -0.210803	 1.217591	 -0.953497
H	 0.129920	 1.693110	 0.675679
C	 -2.480891	 -0.340606	 -0.429852
H	 -2.243098	 1.597649	 0.438609
H	 -1.776542	 0.301208	 1.495542
C	 -1.718147	 -0.680445	 -1.706256
H	 -2.673993	 -1.253127	 0.127868
H	 -3.451208	 0.064979	 -0.698070
H	 -2.272868	 -1.380192	 -2.320521
H	 -0.756617	 -1.128562	 -1.479652
H	 -1.535216	 0.208474	 -2.300826

	symmetry c1
}
set optking {
	frozen_dihedral = ("
		16 12 9 6
	")
}

ee,wfn = optimize('scf', return_wfn=True)
oeprop( wfn, 'DIPOLE', 'QUADRUPOLE', 'MULLIKEN_CHARGES')
f=open( 'psi4out.xyz', 'w' )
f.write( "20  " )
f.write( str(ee) + "\n" )
f.write( MOL.save_string_xyz() )
f.close()
--------------------------------------------------------------------------

    Molecular point group: c1
  Charge       = 0
  Multiplicity = 1
  Basis Set: CC-PVTZ
  Basis Set:
  @DF-RHF Final Energy:  -384.07323813635611
    Total Energy =                       -384.0732381363557124
    Molecular point group: c1
  Basis Set: CC-PVTZ
  Basis Set:
  Basis Set: CC-PVTZ
  Basis Set:
  @DF-RHF Final Energy:  -384.08295522251149
    Total Energy =                       -384.0829552225119414
  Basis Set: CC-PVTZ
  Basis Set:
  Basis Set: CC-PVTZ
  Basis Set:
  @DF-RHF Final Energy:  -384.08493345454735
    Total Energy =                       -384.0849334545475813
  Basis Set: CC-PVTZ
  Basis Set:
  Basis Set: CC-PVTZ
  Basis Set:
  @DF-RHF Final Energy:  -384.08517090129965
    Total Energy =                       -384.0851709012999891
  Basis Set: CC-PVTZ
  Basis Set:
  @DF-RHF Final Energy:  -384.08389614030506
    Total Energy =                       -384.0838961403054554
  @DF-RHF Final Energy:  -384.08541214900902
    Total Energy =                       -384.0854121490087891
  Basis Set: CC-PVTZ
  Basis Set:
  @DF-RHF Final Energy:  -384.08546106799520
    Total Energy =                       -384.0854610679951975
  Basis Set: CC-PVTZ
  Basis Set:
  Basis Set: CC-PVTZ
  Basis Set:
  @DF-RHF Final Energy:  -384.08547456082636
    Total Energy =                       -384.0854745608260146
  Basis Set: CC-PVTZ
  Basis Set:
  Basis Set: CC-PVTZ
  Basis Set:
  @DF-RHF Final Energy:  -384.08547702990359
    Total Energy =                       -384.0854770299034726
  Basis Set: CC-PVTZ
  Basis Set:
  Charge       = 0
  Multiplicity = 1
  Basis Set: CC-PVTZ
  Basis Set:

    Orbital Energies (a.u.)
    -----------------------

    Doubly Occupied:

       1A    -20.603673     2A    -20.540273     3A    -11.373037
       4A    -11.237940     5A    -11.220219     6A    -11.219044
       7A    -11.218505     8A    -11.211690     9A     -1.477198
      10A     -1.368688    11A     -1.094565    12A     -1.037644
      13A     -0.962446    14A     -0.883154    15A     -0.813973
      16A     -0.767404    17A     -0.703129    18A     -0.691618
      19A     -0.669579    20A     -0.630414    21A     -0.622932
      22A     -0.587378    23A     -0.569262    24A     -0.562879
      25A     -0.537204    26A     -0.511074    27A     -0.509433
      28A     -0.484012    29A     -0.469313    30A     -0.460295
      31A     -0.455293    32A     -0.443018

  @DF-RHF Final Energy:  -384.08547726822525

   => Energetics <=

    Nuclear Repulsion Energy =            383.9644236934551031
    One-Electron Energy =               -1284.2272281065713742
    Two-Electron Energy =                 516.1773271448914784
    DFT Exchange-Correlation Energy =       0.0000000000000000
    Empirical Dispersion Energy =           0.0000000000000000
    PCM Polarization Energy =               0.0000000000000000
    EFP Energy =                            0.0000000000000000
    Total Energy =                       -384.0854772682248495
    Molecular point group: c1
  Basis Set: CC-PVTZ
  Basis Set:

  -Total Gradient:
     Atom            X                  Y                   Z
    ------   -----------------  -----------------  -----------------
       1       -0.000025797891    -0.000003552198     0.000006736195
       2       -0.000024596902     0.000033041291    -0.000016170970
       3        0.000068775972    -0.000067848218     0.000011213451
       4        0.000001946091    -0.000000972751    -0.000010683255
       5       -0.000025311345     0.000032795301    -0.000001419970
       6       -0.001291638059     0.004096794106    -0.002616249795
       7       -0.000002562700     0.000002971016     0.000008125927
       8        0.000000583235     0.000003536685     0.000010716433
       9        0.000534739170    -0.005412717067     0.004385871209
      10        0.000007509955     0.000010540471    -0.000012213135
      11        0.000001283564    -0.000010767227    -0.000003430432
      12        0.006502261788    -0.001113150874    -0.004054388634
      13       -0.000000678440    -0.000004708830    -0.000002803742
      14       -0.000005676387     0.000000173258     0.000002056515
      15        0.000006120520    -0.000012470556    -0.000008442169
      16       -0.005743437538     0.002437107103     0.002288416452
      17        0.000001883078     0.000005035986     0.000008642123
      18        0.000006944197     0.000006942949     0.000002204349
      19       -0.000010646084     0.000005637923    -0.000003359475
      20       -0.000001702223    -0.000008388363     0.000005178926

  **** Optimization is complete! (in 10 steps) ****
    Final optimized geometry and variables:
    Molecular point group: c1

    Geometry (in Angstrom), charge = 0, multiplicity = 1:

    H            3.496004538189    -0.873033421937     0.404742050069
    O            2.599136085900    -1.092566929201     0.607549520527
    C            1.833193024716    -0.045517768476     0.313719692655
    C            0.382654034804    -0.313899620268     0.610709440453
    O            2.280584498524     0.956944484169    -0.125783224470
    C           -0.533825337959     0.863688077166     0.298044718721
    H            0.106177805298    -1.206261540639     0.061624262180
    H            0.318739206949    -0.585400363259     1.659616420094
    C           -2.011178468302     0.576730654466     0.582708806503
    H           -0.393295974468     1.173487252489    -0.728118400583
    H           -0.223097499251     1.704710447452     0.905986390588
    C           -2.788391062243    -0.313849574939    -0.421659647355
    H           -2.508083612943     1.540008017347     0.621056331940
    H           -2.109973732019     0.158928309296     1.579385834072
    C           -2.190797180672    -0.510009861827    -1.811883208024
    H           -3.012936165883    -1.272469955191     0.034833919640
    H           -3.766145210198     0.139126639466    -0.554037113234
    H           -2.862427790318    -1.105854163123    -2.418924961943
    H           -1.235831310214    -1.019509805469    -1.791967600954
    H           -2.048282670151     0.436950581412    -2.319766378308

  Mulliken Charges: (a.u.)
   Center  Symbol    Alpha    Beta     Spin     Total
       1     H     0.38245  0.38245  0.00000  0.23509
       2     O     4.16057  4.16057  0.00000 -0.32114
       3     C     2.80304  2.80304  0.00000  0.39391
       4     C     3.11397  3.11397  0.00000 -0.22793
       5     O     4.19122  4.19122  0.00000 -0.38244
       6     C     3.09927  3.09927  0.00000 -0.19854
       7     H     0.43713  0.43713  0.00000  0.12574
       8     H     0.43485  0.43485  0.00000  0.13030
       9     C     3.10735  3.10735  0.00000 -0.21469
      10     H     0.44223  0.44223  0.00000  0.11554
      11     H     0.43654  0.43654  0.00000  0.12692
      12     C     3.09513  3.09513  0.00000 -0.19026
      13     H     0.44376  0.44376  0.00000  0.11247
      14     H     0.45020  0.45020  0.00000  0.09961
      15     C     3.15727  3.15727  0.00000 -0.31455
      16     H     0.44893  0.44893  0.00000  0.10214
      17     H     0.44879  0.44879  0.00000  0.10241
      18     H     0.44263  0.44263  0.00000  0.11475
      19     H     0.45411  0.45411  0.00000  0.09178
      20     H     0.45056  0.45056  0.00000  0.09889

   Total alpha = 32.00000, Total beta = 32.00000, Total charge =  0.00000

*** Psi4 exiting successfully. Buy a developer a beer!
