                              Psi4 1.0.54 Driver

  ==> Input File <==

--------------------------------------------------------------------------
set {
	reference rhf
	basis cc-pvtz
}

set_num_threads( 4 )
memory 2 gb

molecule MOL {
0 1

H	 -3.609455	 0.400156	 -1.030986
C	 -2.887242	 0.916868	 -1.677749
C	 -1.930294	 1.827737	 -0.957708
O	 -2.910183	 0.743116	 -2.846762
C	 -1.216901	 1.136108	 0.207794
H	 -1.226229	 2.225587	 -1.676973
H	 -2.520586	 2.656906	 -0.573862
C	 -0.247837	 0.040196	 -0.230469
H	 -0.678420	 1.887739	 0.774741
H	 -1.957137	 0.719296	 0.886404
C	 1.181757	 0.280428	 0.247371
H	 -0.259600	 -0.030819	 -1.314870
H	 -0.591284	 -0.923375	 0.136958
C	 2.151032	 -0.811012	 -0.202643
H	 1.515939	 1.247397	 -0.115449
H	 1.191514	 0.341223	 1.333422
C	 3.580021	 -0.656538	 0.320835
H	 2.170545	 -0.847575	 -1.289412
H	 1.766632	 -1.772905	 0.124928
C	 4.327657	 0.562694	 -0.213579
H	 4.138806	 -1.549270	 0.057813
H	 3.561991	 -0.620783	 1.406976
H	 4.355973	 0.557257	 -1.298551
H	 3.867136	 1.491650	 0.100501
H	 5.351524	 0.571613	 0.142204

	symmetry c1
}
set optking {
	frozen_dihedral = ("
		3 5 8 12
	")
}

ee,wfn = optimize('scf', return_wfn=True)
oeprop( wfn, 'DIPOLE', 'QUADRUPOLE', 'MULLIKEN_CHARGES')
f=open( 'psi4out.xyz', 'w' )
f.write( "25  " )
f.write( str(ee) + "\n" )
f.write( MOL.save_string_xyz() )
f.close()
--------------------------------------------------------------------------

    Molecular point group: c1
  Charge       = 0
  Multiplicity = 1
  Basis Set: CC-PVTZ
  Basis Set:
  @DF-RHF Final Energy:  -387.25487231119752
    Total Energy =                       -387.2548723111971185
    Molecular point group: c1
  Basis Set: CC-PVTZ
  Basis Set:
  Basis Set: CC-PVTZ
  Basis Set:
  @DF-RHF Final Energy:  -387.25510377611613
    Total Energy =                       -387.2551037761162434
  Basis Set: CC-PVTZ
  Basis Set:
  Basis Set: CC-PVTZ
  Basis Set:
  @DF-RHF Final Energy:  -387.25461845190091
    Total Energy =                       -387.2546184519006829
  Basis Set: CC-PVTZ
  Basis Set:
  Basis Set: CC-PVTZ
  Basis Set:
  @DF-RHF Final Energy:  -387.25515211536214
    Total Energy =                       -387.2551521153625345
  Basis Set: CC-PVTZ
  Basis Set:
  @DF-RHF Final Energy:  -387.25517349771286
    Total Energy =                       -387.2551734977129172
  @DF-RHF Final Energy:  -387.25515359665980
    Total Energy =                       -387.2551535966597385
  Basis Set: CC-PVTZ
  Basis Set:
  @DF-RHF Final Energy:  -387.25518753869017
    Total Energy =                       -387.2551875386901656
  Basis Set: CC-PVTZ
  Basis Set:
  Basis Set: CC-PVTZ
  Basis Set:
  @DF-RHF Final Energy:  -387.25518864981012
    Total Energy =                       -387.2551886498104068
  Basis Set: CC-PVTZ
  Basis Set:
  Basis Set: CC-PVTZ
  Basis Set:
  @DF-RHF Final Energy:  -387.25518952935772
    Total Energy =                       -387.2551895293579491
  Basis Set: CC-PVTZ
  Basis Set:
  Charge       = 0
  Multiplicity = 1
  Basis Set: CC-PVTZ
  Basis Set:

    Orbital Energies (a.u.)
    -----------------------

    Doubly Occupied:

       1A    -20.551960     2A    -11.320898     3A    -11.234102
       4A    -11.232715     5A    -11.220340     6A    -11.217367
       7A    -11.215588     8A    -11.214031     9A    -11.207946
      10A     -1.406661    11A     -1.102964    12A     -1.069839
      13A     -1.013580    14A     -0.942130    15A     -0.876152
      16A     -0.821968    17A     -0.786631    18A     -0.782107
      19A     -0.669190    20A     -0.656644    21A     -0.641257
      22A     -0.622196    23A     -0.607087    24A     -0.590422
      25A     -0.578514    26A     -0.547578    27A     -0.538493
      28A     -0.525524    29A     -0.511326    30A     -0.500084
      31A     -0.488261    32A     -0.475248    33A     -0.463174
      34A     -0.458248    35A     -0.441945    36A     -0.411888

  @DF-RHF Final Energy:  -387.25518989418345

   => Energetics <=

    Nuclear Repulsion Energy =            441.5635749999332802
    One-Electron Energy =               -1399.7494114371902469
    Two-Electron Energy =                 570.9306465430729531
    DFT Exchange-Correlation Energy =       0.0000000000000000
    Empirical Dispersion Energy =           0.0000000000000000
    PCM Polarization Energy =               0.0000000000000000
    EFP Energy =                            0.0000000000000000
    Total Energy =                       -387.2551898941840136
    Molecular point group: c1
  Basis Set: CC-PVTZ
  Basis Set:

  -Total Gradient:
     Atom            X                  Y                   Z
    ------   -----------------  -----------------  -----------------
       1       -0.000011199499    -0.000003742744     0.000008598123
       2        0.000001611314     0.000009575744     0.000028794014
       3        0.000364732680     0.000343549261    -0.000010570499
       4        0.000004674562    -0.000008987236    -0.000036521143
       5       -0.000641617193    -0.000535822513     0.000032670299
       6        0.000000578465     0.000000804239    -0.000000229483
       7       -0.000006888812     0.000001680963    -0.000003273337
       8        0.000780245140     0.000664306134    -0.000053975089
       9       -0.000009940009     0.000000106711    -0.000007157088
      10       -0.000000932454     0.000003629174     0.000003529608
      11       -0.000015305361    -0.000023495375     0.000013488297
      12       -0.000488583190    -0.000460223275     0.000035077439
      13        0.000007841255     0.000003213459     0.000001645282
      14        0.000017043823     0.000013317922    -0.000017513495
      15       -0.000010621670    -0.000002754130     0.000003283193
      16       -0.000002872103    -0.000005057162     0.000007009163
      17       -0.000003923120     0.000007428836     0.000000346386
      18        0.000001946670    -0.000005516588    -0.000008085171
      19        0.000000182078     0.000003803322     0.000003193042
      20        0.000008545291    -0.000001555155    -0.000000244516
      21        0.000000785103    -0.000001357231     0.000000641076
      22       -0.000001725727     0.000001185197     0.000001644073
      23       -0.000001939038     0.000001061448    -0.000002041957
      24        0.000004120026    -0.000004431399     0.000001652379
      25        0.000003241765    -0.000000719601    -0.000001960598

  **** Optimization is complete! (in 10 steps) ****
    Final optimized geometry and variables:
    Molecular point group: c1

    Geometry (in Angstrom), charge = 0, multiplicity = 1:

    H           -3.891775342976     0.020419864973    -0.445929490329
    C           -3.126553898900     0.494705554540    -1.075282568854
    C           -2.181849120012     1.408588583719    -0.343829052474
    O           -3.093075970497     0.271063940951    -2.235793455136
    C           -1.466748838112     0.703426378288     0.814630218713
    H           -1.474680232709     1.815379811859    -1.055058565718
    H           -2.777222258357     2.229583604950     0.049358772143
    C           -0.486054118338    -0.401495796312     0.367394049222
    H           -0.933565256725     1.457494543418     1.381337990259
    H           -2.208764862599     0.295024240293     1.493355611338
    C            0.944263162908    -0.174437072127     0.852696341810
    H           -0.484259352882    -0.476786299986    -0.715303180709
    H           -0.831367363052    -1.365220831677     0.727482778882
    C            1.905994779180    -1.273277221514     0.406729991211
    H            1.286675154279     0.790522904407     0.491531895353
    H            0.947730566937    -0.113225407163     1.938841817745
    C            3.334454464276    -1.130103233356     0.935064845541
    H            1.928519916445    -1.310849609357    -0.679883674872
    H            1.512620964008    -2.231880602131     0.733855423826
    C            4.094278730773     0.081683109057     0.400875970410
    H            3.886543303136    -2.028023326485     0.675507689351
    H            3.312983213899    -1.092216426593     2.021105183106
    H            4.124913608649     0.074622124442    -0.683954829189
    H            3.641400614299     1.015154544893     0.712683267540
    H            5.117356643903     0.081831348006     0.759100405430

  Mulliken Charges: (a.u.)
   Center  Symbol    Alpha    Beta     Spin     Total
       1     H     0.46367  0.46367  0.00000  0.07267
       2     C     2.90471  2.90471  0.00000  0.19058
       3     C     3.08774  3.08774  0.00000 -0.17547
       4     O     4.16592  4.16592  0.00000 -0.33184
       5     C     3.12069  3.12069  0.00000 -0.24138
       6     H     0.44314  0.44314  0.00000  0.11373
       7     H     0.44212  0.44212  0.00000  0.11576
       8     C     3.10002  3.10002  0.00000 -0.20004
       9     H     0.44343  0.44343  0.00000  0.11314
      10     H     0.44361  0.44361  0.00000  0.11278
      11     C     3.09169  3.09169  0.00000 -0.18338
      12     H     0.44396  0.44396  0.00000  0.11209
      13     H     0.44635  0.44635  0.00000  0.10731
      14     C     3.09632  3.09632  0.00000 -0.19264
      15     H     0.45190  0.45190  0.00000  0.09620
      16     H     0.45329  0.45329  0.00000  0.09341
      17     C     3.09081  3.09081  0.00000 -0.18162
      18     H     0.45144  0.45144  0.00000  0.09712
      19     H     0.44925  0.44925  0.00000  0.10150
      20     C     3.15239  3.15239  0.00000 -0.30478
      21     H     0.44785  0.44785  0.00000  0.10430
      22     H     0.45500  0.45500  0.00000  0.08999
      23     H     0.45398  0.45398  0.00000  0.09204
      24     H     0.45455  0.45455  0.00000  0.09091
      25     H     0.44619  0.44619  0.00000  0.10762

   Total alpha = 36.00000, Total beta = 36.00000, Total charge = -0.00000

*** Psi4 exiting successfully. Buy a developer a beer!
