                              Psi4 1.0.54 Driver

  ==> Input File <==

--------------------------------------------------------------------------
set {
	reference rhf
	basis cc-pvtz
}

set_num_threads( 4 )
memory 2 gb

molecule MOL {
0 1

H	 -2.816458	 -0.841657	 -0.064679
N	 -1.878861	 -0.711874	 0.250184
C	 -1.341419	 0.551458	 -0.220231
H	 -1.333674	 -1.468530	 -0.105118
C	 0.082190	 0.731516	 0.254705
H	 -1.357065	 0.652078	 -1.304747
H	 -1.939897	 1.357530	 0.189797
O	 0.881195	 -0.248324	 -0.336237
H	 0.440901	 1.722476	 -0.020063
H	 0.119896	 0.643586	 1.338114
C	 0.221868	 -1.438748	 -0.614444
H	 0.934103	 -2.116335	 -1.062756
H	 -0.172758	 -1.895713	 0.290624
H	 -0.600792	 -1.285042	 -1.308826

	symmetry c1
}
set optking {
	frozen_dihedral = ("
		11 8 5 3
	")
}

ee,wfn = optimize('scf', return_wfn=True)
oeprop( wfn, 'DIPOLE', 'QUADRUPOLE', 'MULLIKEN_CHARGES')
f=open( 'psi4out.xyz', 'w' )
f.write( "14  " )
f.write( str(ee) + "\n" )
f.write( MOL.save_string_xyz() )
f.close()
--------------------------------------------------------------------------

    Molecular point group: c1
  Charge       = 0
  Multiplicity = 1
  Basis Set: CC-PVTZ
  Basis Set:
  @DF-RHF Final Energy:  -248.14851438117725
    Total Energy =                       -248.1485143811772787
    Molecular point group: c1
  Basis Set: CC-PVTZ
  Basis Set:
  Basis Set: CC-PVTZ
  Basis Set:
  @DF-RHF Final Energy:  -248.16227612729952
    Total Energy =                       -248.1622761272993785
  Basis Set: CC-PVTZ
  Basis Set:
  Basis Set: CC-PVTZ
  Basis Set:
  @DF-RHF Final Energy:  -248.18012346313017
    Total Energy =                       -248.1801234631301440
  Basis Set: CC-PVTZ
  Basis Set:
  Basis Set: CC-PVTZ
  Basis Set:
  @DF-RHF Final Energy:  -248.20276869536551
    Total Energy =                       -248.2027686953653074
  Basis Set: CC-PVTZ
  Basis Set:
  @DF-RHF Final Energy:  -248.21116617465466
    Total Energy =                       -248.2111661746545792
  @DF-RHF Final Energy:  -248.21251301825990
    Total Energy =                       -248.2125130182597559
  @DF-RHF Final Energy:  -248.21333163348149
    Total Energy =                       -248.2133316334816300
  @DF-RHF Final Energy:  -248.21357319664961
    Total Energy =                       -248.2135731966495769
  Basis Set: CC-PVTZ
  Basis Set:
  @DF-RHF Final Energy:  -248.21362394087197
    Total Energy =                       -248.2136239408716847
  Basis Set: CC-PVTZ
  Basis Set:
  Basis Set: CC-PVTZ
  Basis Set:
  @DF-RHF Final Energy:  -248.21363042423712
    Total Energy =                       -248.2136304242368396
  Basis Set: CC-PVTZ
  Basis Set:
  Basis Set: CC-PVTZ
  Basis Set:
  @DF-RHF Final Energy:  -248.21363196416547
    Total Energy =                       -248.2136319641655291
  Basis Set: CC-PVTZ
  Basis Set:
  Charge       = 0
  Multiplicity = 1
  Basis Set: CC-PVTZ
  Basis Set:

    Orbital Energies (a.u.)
    -----------------------

    Doubly Occupied:

       1A    -20.542607     2A    -15.535243     3A    -11.262972
       4A    -11.262090     5A    -11.248535     6A     -1.373090
       7A     -1.184838     8A     -1.003002     9A     -0.920532
      10A     -0.807158    11A     -0.691177    12A     -0.674325
      13A     -0.640918    14A     -0.620459    15A     -0.605429
      16A     -0.549017    17A     -0.536282    18A     -0.516807
      19A     -0.456604    20A     -0.410519    21A     -0.391851

  @DF-RHF Final Energy:  -248.21363267601427

   => Energetics <=

    Nuclear Repulsion Energy =            197.1045220441713184
    One-Electron Energy =                -728.1693940631871556
    Two-Electron Energy =                 282.8512393430014527
    DFT Exchange-Correlation Energy =       0.0000000000000000
    Empirical Dispersion Energy =           0.0000000000000000
    PCM Polarization Energy =               0.0000000000000000
    EFP Energy =                            0.0000000000000000
    Total Energy =                       -248.2136326760144129
    Molecular point group: c1
  Basis Set: CC-PVTZ
  Basis Set:

  -Total Gradient:
     Atom            X                  Y                   Z
    ------   -----------------  -----------------  -----------------
       1        0.000025539801    -0.000004770512     0.000023403065
       2       -0.000064015098     0.000012555725    -0.000025262262
       3       -0.000704597356    -0.003125380563     0.001543628151
       4        0.000013101553     0.000026207830     0.000005236754
       5        0.000557372254     0.006126016681    -0.003733069989
       6        0.000020582848     0.000005954983     0.000038459811
       7       -0.000006552865    -0.000018068653     0.000025208067
       8        0.001164698451    -0.006002469781     0.004611081279
       9       -0.000008018700     0.000043032134     0.000010529694
      10        0.000028579979    -0.000004887186    -0.000038361585
      11       -0.000963209748     0.002890007404    -0.002429480626
      12       -0.000025184117     0.000023361506     0.000019863685
      13       -0.000008997796     0.000032018363    -0.000029179554
      14       -0.000029299203    -0.000003577932    -0.000022056492

  **** Optimization is complete! (in 12 steps) ****
    Final optimized geometry and variables:
    Molecular point group: c1

    Geometry (in Angstrom), charge = 0, multiplicity = 1:

    H           -2.564635141309     0.075519756023     1.055886844816
    N           -1.648265768130    -0.240400850050     0.821794155390
    C           -0.796331534326     0.883691444822     0.464325652697
    H           -1.744816569764    -0.894240847602     0.076816992824
    C            0.694959621280     0.583857456453     0.551359567302
    H           -1.029986263974     1.315633830583    -0.507999117146
    H           -0.977146996263     1.662922373827     1.195759919208
    O            1.293837536233    -0.113613025266    -0.509229059676
    H            1.229129065826     1.523545605692     0.610619597959
    H            0.865895807612     0.040250154837     1.476494880030
    C            0.559166301126    -1.025679645977    -1.253289974469
    H            1.220921542271    -1.416669040319    -2.012773441205
    H            0.206089218868    -1.857752326918    -0.648894700414
    H           -0.288888711565    -0.567136256239    -1.753252998142

  Mulliken Charges: (a.u.)
   Center  Symbol    Alpha    Beta     Spin     Total
       1     H     0.42704  0.42704  0.00000  0.14592
       2     N     3.68830  3.68830  0.00000 -0.37659
       3     C     3.06250  3.06250  0.00000 -0.12501
       4     H     0.42810  0.42810  0.00000  0.14380
       5     C     2.96282  2.96282  0.00000  0.07437
       6     H     0.45550  0.45550  0.00000  0.08899
       7     H     0.44837  0.44837  0.00000  0.10326
       8     O     4.18001  4.18001  0.00000 -0.36003
       9     H     0.45837  0.45837  0.00000  0.08326
      10     H     0.46686  0.46686  0.00000  0.06628
      11     C     3.03567  3.03567  0.00000 -0.07133
      12     H     0.44249  0.44249  0.00000  0.11501
      13     H     0.46935  0.46935  0.00000  0.06131
      14     H     0.47462  0.47462  0.00000  0.05076

   Total alpha = 21.00000, Total beta = 21.00000, Total charge = -0.00000

*** Psi4 exiting successfully. Buy a developer a beer!
