  ==> Input File <==

--------------------------------------------------------------------------
set {
	reference rhf
	basis cc-pvtz
}

set_num_threads( 4 )
memory 2 gb

molecule MOL {
0 1

H	 -3.162190	 0.493205	 -0.000107
C	 -2.363908	 -0.234727	 0.000005
O	 -1.158738	 0.454634	 -0.000087
H	 -2.464314	 -0.863616	 -0.882153
H	 -2.464327	 -0.863359	 0.882345
C	 -0.028611	 -0.359694	 0.000037
C	 1.212847	 0.509314	 -0.000053
H	 -0.034155	 -1.007047	 -0.877198
H	 -0.034195	 -1.006836	 0.877430
C	 1.924170	 0.508696	 1.348416
H	 1.882530	 0.154875	 -0.775826
H	 0.927185	 1.519678	 -0.271184
H	 2.240594	 -0.490685	 1.628061
H	 2.806292	 1.136453	 1.320092
H	 1.278977	 0.883514	 2.136011

	symmetry c1
}
set optking {
	frozen_dihedral = ("
		11 7 6 8
	")
}

ee = optimize('scf')
oeprop('DIPOLE', 'QUADRUPOLE', 'MULLIKEN_CHARGES')
f=open( 'psi4out.xyz', 'w' )
f.write( "15  " )
f.write( str(ee) + "\n" )
f.write( MOL.save_string_xyz() )
f.close()
--------------------------------------------------------------------------

    Molecular point group: c1
  Charge       = 0
  Multiplicity = 1
  Basis Set: CC-PVTZ
  Basis Set:
  @DF-RHF Final Energy:  -232.22275037679145
    Total Energy =                       -232.2227503767913390
    Molecular point group: c1
  Basis Set: CC-PVTZ
  Basis Set:
  Basis Set: CC-PVTZ
  Basis Set:
  @DF-RHF Final Energy:  -232.22320297481340
    Total Energy =                       -232.2232029748132049
  Basis Set: CC-PVTZ
  Basis Set:
  Basis Set: CC-PVTZ
  Basis Set:
  @DF-RHF Final Energy:  -232.22331150792294
    Total Energy =                       -232.2233115079231993
  Basis Set: CC-PVTZ
  Basis Set:
  Basis Set: CC-PVTZ
  Basis Set:
  @DF-RHF Final Energy:  -232.22331354999059
    Total Energy =                       -232.2233135499906211
  Basis Set: CC-PVTZ
  Basis Set:
  Charge       = 0
  Multiplicity = 1
  Basis Set: CC-PVTZ
  Basis Set:

    Orbital Energies (a.u.)
    -----------------------

    Doubly Occupied:

       1A    -20.548350     2A    -11.264616     3A    -11.261778
       4A    -11.212548     5A    -11.207376     6A     -1.381930
       7A     -1.054345     8A     -0.954320     9A     -0.881176
      10A     -0.807654    11A     -0.670245    12A     -0.662219
      13A     -0.633502    14A     -0.587709    15A     -0.578237
      16A     -0.545981    17A     -0.492819    18A     -0.489342
      19A     -0.481882    20A     -0.462213    21A     -0.414035

  @DF-RHF Final Energy:  -232.22331375618649

   => Energetics <=

    Nuclear Repulsion Energy =            190.9575270204123854
    One-Electron Energy =                -693.1771274409882153
    Two-Electron Energy =                 269.9962866643892880
    DFT Exchange-Correlation Energy =       0.0000000000000000
    Empirical Dispersion Energy =           0.0000000000000000
    PCM Polarization Energy =               0.0000000000000000
    EFP Energy =                            0.0000000000000000
    Total Energy =                       -232.2233137561865419
    Molecular point group: c1
  Basis Set: CC-PVTZ
  Basis Set:

  -Total Gradient:
     Atom            X                  Y                   Z
    ------   -----------------  -----------------  -----------------
       1       -0.000003157883     0.000000424775    -0.000001082441
       2        0.000003413576    -0.000003179514    -0.000000868754
       3       -0.000012296025     0.000000517656    -0.000003135921
       4       -0.000006827564    -0.000000146543    -0.000001959929
       5       -0.000004914356    -0.000000306649     0.000002517297
       6       -0.002347207706     0.003662406812    -0.002756943731
       7        0.002206102724    -0.003385227734     0.003269804100
       8        0.001642727842    -0.002495711868     0.001778179819
       9       -0.000015176987     0.000010460000     0.000000854861
      10       -0.000014115761    -0.000006700421     0.000003300510
      11       -0.001446847502     0.002206063107    -0.002263009043
      12        0.000002497531     0.000011392922    -0.000001481319
      13       -0.000002000845     0.000007381096    -0.000008459335
      14       -0.000003680893     0.000003069036    -0.000007790302
      15        0.000001483850    -0.000010442676    -0.000009925813

  **** Optimization is complete! (in 5 steps) ****
    Final optimized geometry and variables:
    Molecular point group: c1

    Geometry (in Angstrom), charge = 0, multiplicity = 1:

    H           -3.045429127452     0.342224169037    -0.237961795201
    C           -2.251872866694    -0.390821621520    -0.254898151819
    O           -1.042533658937     0.290558156799    -0.275280241350
    H           -2.372534754710    -1.016174008131    -1.137164976675
    H           -2.340081636242    -1.022186616533     0.626835362427
    C            0.081398736882    -0.534395004233    -0.305001456776
    C            1.348430169614     0.321226246256    -0.272159724002
    H            0.064680854266    -1.170288473734    -1.188412790248
    H            0.061118350329    -1.207357568371     0.552349494118
    C            2.035703181058     0.356501157357     1.087669327251
    H            2.037217444911    -0.015334844935    -1.039285706718
    H            1.059217514316     1.325232175088    -0.559102471298
    H            2.377933580314    -0.629953799486     1.382511498350
    H            2.897061792824     1.014166650106     1.073051526162
    H            1.355749273635     0.715115284784     1.852572639079

  Mulliken Charges: (a.u.)
   Center  Symbol    Alpha    Beta     Spin     Total
       1     H     0.44710  0.44710  0.00000  0.10579
       2     C     3.03048  3.03048  0.00000 -0.06096
       3     O     4.17281  4.17281  0.00000 -0.34561
       4     H     0.47198  0.47198  0.00000  0.05605
       5     H     0.47236  0.47236  0.00000  0.05527
       6     C     2.96356  2.96356  0.00000  0.07289
       7     C     3.08533  3.08533  0.00000 -0.17067
       8     H     0.47079  0.47079  0.00000  0.05842
       9     H     0.47735  0.47735  0.00000  0.04530
      10     C     3.15003  3.15003  0.00000 -0.30007
      11     H     0.45268  0.45268  0.00000  0.09465
      12     H     0.44776  0.44776  0.00000  0.10448
      13     H     0.45733  0.45733  0.00000  0.08534
      14     H     0.44969  0.44969  0.00000  0.10062
      15     H     0.45076  0.45076  0.00000  0.09848

   Total alpha = 21.00000, Total beta = 21.00000, Total charge = -0.00000
