  ==> Input File <==

--------------------------------------------------------------------------
set {
	reference rhf
	basis 6-31G*
}

set_num_threads( 4 )
memory 2 gb

molecule MOL {
0 1

O	 -2.042549	 -1.228399	 -0.269030
C	 -1.653912	 -0.146171	 0.050137
C	 -0.332303	 0.024011	 0.778412
C	 -2.438579	 1.106236	 -0.272369
C	 0.845713	 -0.001731	 -0.208243
H	 -0.323783	 0.953829	 1.340327
H	 -0.235459	 -0.796807	 1.480410
C	 0.766670	 -1.172327	 -1.189307
H	 1.784249	 -0.056818	 0.340573
H	 0.859704	 0.936258	 -0.755164
C	 1.932149	 -1.195250	 -2.177406
H	 0.743685	 -2.107964	 -0.634799
H	 -0.171183	 -1.117307	 -1.737005
H	 2.883524	 -1.284126	 -1.660647
H	 1.961429	 -0.285314	 -2.769522
H	 1.848327	 -2.033290	 -2.862015
H	 -3.277823	 0.863061	 -0.908988
H	 -1.806773	 1.843019	 -0.759671
H	 -2.802853	 1.554979	 0.648059

	symmetry c1
}
set optking {
	frozen_dihedral = ("
		9 5 3 2
	")
}

ee = optimize('scf')
oeprop('DIPOLE', 'QUADRUPOLE', 'MULLIKEN_CHARGES')
f=open( 'psi4out.xyz', 'w' )
f.write( "19  " )
f.write( str(ee) + "\n" )
f.write( MOL.save_string_xyz() )
f.close()
--------------------------------------------------------------------------

    Molecular point group: c1
  Charge       = 0
  Multiplicity = 1
  Basis Set: 6-31G*
  Basis Set:
  @DF-RHF Final Energy:  -309.06035738429296
    Total Energy =                       -309.0603573842928995
    Molecular point group: c1
  Basis Set: 6-31G*
  Basis Set:
  Basis Set: 6-31G*
  Basis Set:
  @DF-RHF Final Energy:  -309.06237930154788
    Total Energy =                       -309.0623793015480487
  Basis Set: 6-31G*
  Basis Set:
  Basis Set: 6-31G*
  Basis Set:
  @DF-RHF Final Energy:  -309.06140367807575
    Total Energy =                       -309.0614036780757488
  Basis Set: 6-31G*
  Basis Set:
  Basis Set: 6-31G*
  Basis Set:
  @DF-RHF Final Energy:  -309.06300643317684
    Total Energy =                       -309.0630064331769518
  Basis Set: 6-31G*
  Basis Set:
  @DF-RHF Final Energy:  -309.06334362141524
    Total Energy =                       -309.0633436214149583
  @DF-RHF Final Energy:  -309.06347739909472
    Total Energy =                       -309.0634773990947792
  Basis Set: 6-31G*
  Basis Set:
  @DF-RHF Final Energy:  -309.06350947125054
    Total Energy =                       -309.0635094712505975
  Basis Set: 6-31G*
  Basis Set:
  Basis Set: 6-31G*
  Basis Set:
  @DF-RHF Final Energy:  -309.06352368258479
    Total Energy =                       -309.0635236825846164
  Basis Set: 6-31G*
  Basis Set:
  Basis Set: 6-31G*
  Basis Set:
  @DF-RHF Final Energy:  -309.06352653810228
    Total Energy =                       -309.0635265381019963
  Basis Set: 6-31G*
  Basis Set:
  Charge       = 0
  Multiplicity = 1
  Basis Set: 6-31G*
  Basis Set:

    Orbital Energies (a.u.)
    -----------------------

    Doubly Occupied:

       1A    -20.548517     2A    -11.324323     3A    -11.232755
       4A    -11.229754     5A    -11.227826     6A    -11.222010
       7A    -11.214251     8A     -1.393722     9A     -1.091690
      10A     -1.026666    11A     -0.982906    12A     -0.891045
      13A     -0.811828    14A     -0.729094    15A     -0.659542
      16A     -0.644147    17A     -0.621136    18A     -0.614410
      19A     -0.584763    20A     -0.573620    21A     -0.553134
      22A     -0.541144    23A     -0.511850    24A     -0.497567
      25A     -0.485427    26A     -0.472778    27A     -0.463752
      28A     -0.397798

  @DF-RHF Final Energy:  -309.06352748321211

   => Energetics <=

    Nuclear Repulsion Energy =            308.8254211243115037
    One-Electron Energy =               -1030.6829822415620583
    Two-Electron Energy =                 412.7940336340384420
    DFT Exchange-Correlation Energy =       0.0000000000000000
    Empirical Dispersion Energy =           0.0000000000000000
    PCM Polarization Energy =               0.0000000000000000
    EFP Energy =                            0.0000000000000000
    Total Energy =                       -309.0635274832120558
    Molecular point group: c1
  Basis Set: 6-31G*
  Basis Set:

  -Total Gradient:
     Atom            X                  Y                   Z
    ------   -----------------  -----------------  -----------------
       1       -0.000026859132     0.000001987903     0.000009373728
       2        0.000184422805    -0.002102780099     0.000100754671
       3       -0.000257531693     0.002361014129    -0.000176810553
       4        0.000042215486    -0.000022701061    -0.000088691582
       5        0.000170701957     0.002578689228     0.000370674046
       6        0.000016259925     0.000007204458    -0.000005475959
       7       -0.000007063652    -0.000014729613     0.000010286248
       8        0.000036505076    -0.000020227526     0.000038391145
       9       -0.000125775898    -0.002831248733    -0.000293008326
      10       -0.000001312520     0.000010655891    -0.000020217767
      11        0.000007577641     0.000007329304     0.000001948948
      12       -0.000005963486    -0.000002203519    -0.000007821267
      13        0.000000209002     0.000025349451     0.000009401179
      14       -0.000012185769     0.000005372960    -0.000000280820
      15       -0.000001467969     0.000004099487    -0.000002341927
      16        0.000001549260    -0.000007650376    -0.000010052744
      17       -0.000012871456     0.000001639289     0.000008288238
      18        0.000009783450     0.000014206130     0.000024321961
      19       -0.000018193029    -0.000016007300     0.000031260779

  **** Optimization is complete! (in 10 steps) ****
    Final optimized geometry and variables:
    Molecular point group: c1

    Geometry (in Angstrom), charge = 0, multiplicity = 1:

    O           -1.870228195715    -0.835617170956     0.687337328289
    C           -1.262664354750     0.190427912807     0.642515926741
    C            0.124773045698     0.312332406020     1.247411115574
    C           -1.848371279634     1.423848690438    -0.012898695959
    C            1.255427417719     0.375442568553     0.202514852569
    H            0.168023737337     1.199039623829     1.875094014383
    H            0.263781644752    -0.554695999194     1.882219221650
    C            1.193704458770    -0.731828765023    -0.854608928699
    H            2.196683239835     0.280411507703     0.736846396921
    H            1.267624088251     1.347446439035    -0.284115827239
    C            2.402027585091    -0.710585808273    -1.789910493210
    H            1.130670742282    -1.697038323742    -0.359156716600
    H            0.285005193912    -0.637867611886    -1.443360460824
    H            3.327762098478    -0.852419351207    -1.239529903051
    H            2.474242655083     0.236041186383    -2.318429125988
    H            2.334755157194    -1.499002433865    -2.532586695471
    H           -2.789181309233     1.175005453658    -0.483866767887
    H           -1.167935464793     1.836342469342    -0.751123748023
    H           -2.014560704253     2.193037392450     0.736542521195

  Mulliken Charges: (a.u.)
   Center  Symbol    Alpha    Beta     Spin     Total
       1     O     4.26186  4.26186  0.00000 -0.52372
       2     C     2.73522  2.73522  0.00000  0.52956
       3     C     3.20300  3.20300  0.00000 -0.40600
       4     C     3.28982  3.28982  0.00000 -0.57965
       5     C     3.16143  3.16143  0.00000 -0.32287
       6     H     0.41282  0.41282  0.00000  0.17435
       7     H     0.40024  0.40024  0.00000  0.19953
       8     C     3.15698  3.15698  0.00000 -0.31396
       9     H     0.41388  0.41388  0.00000  0.17224
      10     H     0.42032  0.42032  0.00000  0.15935
      11     C     3.24028  3.24028  0.00000 -0.48055
      12     H     0.41334  0.41334  0.00000  0.17333
      13     H     0.41845  0.41845  0.00000  0.16310
      14     H     0.42093  0.42093  0.00000  0.15813
      15     H     0.42227  0.42227  0.00000  0.15545
      16     H     0.41592  0.41592  0.00000  0.16816
      17     H     0.39663  0.39663  0.00000  0.20673
      18     H     0.40900  0.40900  0.00000  0.18200
      19     H     0.40760  0.40760  0.00000  0.18480

   Total alpha = 28.00000, Total beta = 28.00000, Total charge = -0.00000
