  ==> Input File <==

--------------------------------------------------------------------------
set {
	reference rhf
	basis 6-31G*
}

set_num_threads( 1 )
memory 2 gb

molecule MOL {
0 1

O	 3.225979	 0.970355	 -0.599647
C	 2.701189	 0.057885	 -0.047330
C	 1.245376	 -0.013843	 0.345420
O	 3.347903	 -1.046386	 0.304773
C	 0.541947	 -1.261570	 -0.184188
H	 1.204356	 0.047731	 1.427878
H	 0.766817	 0.890542	 -0.021683
C	 -0.960308	 -1.297631	 0.116518
H	 1.020746	 -2.145069	 0.227273
H	 0.690698	 -1.313039	 -1.257336
C	 -1.318726	 -1.417574	 1.600520
H	 -1.389754	 -2.144261	 -0.414064
H	 -1.434622	 -0.409664	 -0.298874
C	 -2.823210	 -1.560365	 1.839556
H	 -0.804088	 -2.278595	 2.024323
H	 -0.957841	 -0.547699	 2.144626
C	 -3.193566	 -1.675757	 3.319304
H	 -3.190193	 -2.437160	 1.308719
H	 -3.339406	 -0.704933	 1.406569
C	 -4.697401	 -1.821865	 3.549153
H	 -2.677807	 -2.529489	 3.753788
H	 -2.831386	 -0.798193	 3.850799
H	 -4.928177	 -1.901291	 4.607000
H	 -5.084408	 -2.710600	 3.058673
H	 -5.239121	 -0.966220	 3.155853
C	 4.728119	 -1.109107	 -0.004993
H	 4.882018	 -1.033965	 -1.071845
H	 5.068212	 -2.067527	 0.355250
H	 5.265056	 -0.311663	 0.488280

	symmetry c1
}
set optking {
	frozen_dihedral = ("
		21 17 14 11,
		17 14 11 15,
		15 11 8 5,
		6 3 5 9,
		11 8 5 9,
		2 4 26 27,
		1 2 4 26
	")
}

ee = energy('scf')
oeprop('DIPOLE', 'QUADRUPOLE', 'MULLIKEN_CHARGES')
f=open( 'psi4out.xyz', 'w' )
f.write( "29  " )
f.write( str(ee) + "\n" )
f.write( MOL.save_string_xyz() )
f.close()
--------------------------------------------------------------------------

    Molecular point group: c1

    Geometry (in Angstrom), charge = 0, multiplicity = 1:

       Center              X                  Y                   Z               Mass
    ------------   -----------------  -----------------  -----------------  -----------------
           O          2.930342118817     1.893375945970    -1.526917387551    15.994914619560
           C          2.405552118817     0.980905945970    -0.974600387551    12.000000000000
           C          0.949739118817     0.909177945970    -0.581850387551    12.000000000000
           O          3.052266118817    -0.123365054030    -0.622497387551    15.994914619560
           C          0.246310118817    -0.338549054030    -1.111458387551    12.000000000000
           H          0.908719118817     0.970751945970     0.500607612449     1.007825032070
           H          0.471180118817     1.813562945970    -0.948953387551     1.007825032070
           C         -1.255944881183    -0.374610054030    -0.810752387551    12.000000000000
           H          0.725109118817    -1.222048054030    -0.699997387551     1.007825032070
           H          0.395061118817    -0.390018054030    -2.184606387551     1.007825032070
           C         -1.614362881183    -0.494553054030     0.673249612449    12.000000000000
           H         -1.685390881183    -1.221240054030    -1.341334387551     1.007825032070
           H         -1.730258881183     0.513356945970    -1.226144387551     1.007825032070
           C         -3.118846881183    -0.637344054030     0.912285612449    12.000000000000
           H         -1.099724881183    -1.355574054030     1.097052612449     1.007825032070
           H         -1.253477881183     0.375321945970     1.217355612449     1.007825032070
           C         -3.489202881183    -0.752736054030     2.392033612449    12.000000000000
           H         -3.485829881183    -1.514139054030     0.381448612449     1.007825032070
           H         -3.635042881183     0.218087945970     0.479298612449     1.007825032070
           C         -4.993037881183    -0.898844054030     2.621882612449    12.000000000000
           H         -2.973443881183    -1.606468054030     2.826517612449     1.007825032070
           H         -3.127022881183     0.124827945970     2.923528612449     1.007825032070
           H         -5.223813881183    -0.978270054030     3.679729612449     1.007825032070
           H         -5.380044881183    -1.787579054030     2.131402612449     1.007825032070
           H         -5.534757881183    -0.043199054030     2.228582612449     1.007825032070
           C          4.432482118817    -0.186086054030    -0.932263387551    12.000000000000
           H          4.586381118817    -0.110944054030    -1.999115387551     1.007825032070
           H          4.772575118817    -1.144506054030    -0.572020387551     1.007825032070
           H          4.969419118817     0.611357945970    -0.438990387551     1.007825032070

  Charge       = 0
  Multiplicity = 1
  Basis Set: 6-31G*
  Basis Set:

    Orbital Energies (a.u.)
    -----------------------

    Doubly Occupied:

       1A    -20.603907     2A    -20.543777     3A    -11.371019
       4A    -11.280745     5A    -11.233420     6A    -11.226468
       7A    -11.221016     8A    -11.218009     9A    -11.216994
      10A    -11.215964    11A    -11.209913    12A     -1.468838
      13A     -1.361397    14A     -1.101373    15A     -1.069336
      16A     -1.019820    17A     -0.974213    18A     -0.931227
      19A     -0.865323    20A     -0.800364    21A     -0.791337
      22A     -0.773143    23A     -0.697583    24A     -0.679854
      25A     -0.671864    26A     -0.652514    27A     -0.628506
      28A     -0.606847    29A     -0.589392    30A     -0.574808
      31A     -0.573240    32A     -0.547403    33A     -0.539079
      34A     -0.533512    35A     -0.518927    36A     -0.515283
      37A     -0.500854    38A     -0.479223    39A     -0.473209
      40A     -0.464221    41A     -0.461818    42A     -0.454495
      43A     -0.447172    44A     -0.426776

  @DF-RHF Final Energy:  -501.04241733248341

   => Energetics <=

    Nuclear Repulsion Energy =            613.7343023146263477
    One-Electron Energy =               -1898.4850431831425794
    Two-Electron Energy =                 783.7083235360335038
    DFT Exchange-Correlation Energy =       0.0000000000000000
    Empirical Dispersion Energy =           0.0000000000000000
    PCM Polarization Energy =               0.0000000000000000
    EFP Energy =                            0.0000000000000000
    Total Energy =                       -501.0424173324827279

  Mulliken Charges: (a.u.)
   Center  Symbol    Alpha    Beta     Spin     Total
       1     O     4.28616  4.28616  0.00000 -0.57232
       2     C     2.61308  2.61308  0.00000  0.77384
       3     C     3.20129  3.20129  0.00000 -0.40258
       4     O     4.30189  4.30189  0.00000 -0.60378
       5     C     3.16296  3.16296  0.00000 -0.32592
       6     H     0.40176  0.40176  0.00000  0.19649
       7     H     0.40004  0.40004  0.00000  0.19993
       8     C     3.15548  3.15548  0.00000 -0.31097
       9     H     0.40759  0.40759  0.00000  0.18482
      10     H     0.41435  0.41435  0.00000  0.17130
      11     C     3.15500  3.15500  0.00000 -0.31000
      12     H     0.41854  0.41854  0.00000  0.16291
      13     H     0.42136  0.42136  0.00000  0.15729
      14     C     3.15057  3.15057  0.00000 -0.30114
      15     H     0.42235  0.42235  0.00000  0.15530
      16     H     0.42266  0.42266  0.00000  0.15467
      17     C     3.15157  3.15157  0.00000 -0.30315
      18     H     0.42351  0.42351  0.00000  0.15298
      19     H     0.42335  0.42335  0.00000  0.15331
      20     C     3.23943  3.23943  0.00000 -0.47886
      21     H     0.42286  0.42286  0.00000  0.15427
      22     H     0.42301  0.42301  0.00000  0.15398
      23     H     0.41901  0.41901  0.00000  0.16198
      24     H     0.42164  0.42164  0.00000  0.15672
      25     H     0.42152  0.42152  0.00000  0.15695
      26     C     3.09228  3.09228  0.00000 -0.18457
      27     H     0.40889  0.40889  0.00000  0.18222
      28     H     0.40894  0.40894  0.00000  0.18212
      29     H     0.40889  0.40889  0.00000  0.18221

   Total alpha = 44.00000, Total beta = 44.00000, Total charge = -0.00000
