                              Psi4 1.0.54 Driver

  ==> Input File <==

--------------------------------------------------------------------------
set {
	reference rhf
	basis cc-pvtz
}

set_num_threads( 4 )
memory 2 gb

molecule MOL {
0 1

H	 0.050321	 -2.578466	 0.148028
C	 -0.835635	 -1.941873	 0.183821
N	 -0.537714	 -0.645117	 0.000000
O	 -1.922764	 -2.390328	 0.367551
C	 -1.522613	 0.412524	 0.000000
H	 0.413928	 -0.412692	 -0.142623
H	 -2.150256	 0.356137	 -0.880771
H	 -1.005621	 1.357208	 0.000000
H	 -2.150256	 0.356137	 0.880771

	symmetry c1
}
set optking {
	frozen_dihedral = ("
		6 3 5 7
	")
}

ee,wfn = optimize('scf', return_wfn=True)
oeprop( wfn, 'DIPOLE', 'QUADRUPOLE', 'MULLIKEN_CHARGES')
f=open( 'psi4out.xyz', 'w' )
f.write( "9  " )
f.write( str(ee) + "\n" )
f.write( MOL.save_string_xyz() )
f.close()
--------------------------------------------------------------------------

    Molecular point group: c1
  Charge       = 0
  Multiplicity = 1
  Basis Set: CC-PVTZ
  Basis Set:
  @DF-RHF Final Energy:  -208.04346793177501
    Total Energy =                       -208.0434679317751829
    Molecular point group: c1
  Basis Set: CC-PVTZ
  Basis Set:
  Basis Set: CC-PVTZ
  Basis Set:
  @DF-RHF Final Energy:  -208.04364187108752
    Total Energy =                       -208.0436418710876012
  Basis Set: CC-PVTZ
  Basis Set:
  Basis Set: CC-PVTZ
  Basis Set:
  @DF-RHF Final Energy:  -208.04365020018423
    Total Energy =                       -208.0436502001842314
  Basis Set: CC-PVTZ
  Basis Set:
  Basis Set: CC-PVTZ
  Basis Set:
  @DF-RHF Final Energy:  -208.04363404739044
    Total Energy =                       -208.0436340473904693
  Basis Set: CC-PVTZ
  Basis Set:
  Basis Set: CC-PVTZ
  Basis Set:
  @DF-RHF Final Energy:  -208.04366588638010
    Total Energy =                       -208.0436658863801824
  Basis Set: CC-PVTZ
  Basis Set:
  Basis Set: CC-PVTZ
  Basis Set:
  @DF-RHF Final Energy:  -208.04366802138978
    Total Energy =                       -208.0436680213897489
  Basis Set: CC-PVTZ
  Basis Set:
  Basis Set: CC-PVTZ
  Basis Set:
  @DF-RHF Final Energy:  -208.04366908174805
    Total Energy =                       -208.0436690817479359
  Basis Set: CC-PVTZ
  Basis Set:
  Charge       = 0
  Multiplicity = 1
  Basis Set: CC-PVTZ
  Basis Set:

    Orbital Energies (a.u.)
    -----------------------

    Doubly Occupied:

       1A    -20.516623     2A    -15.584377     3A    -11.335975
       4A    -11.260532     5A     -1.393961     6A     -1.239332
       7A     -0.969788     8A     -0.809264     9A     -0.749153
      10A     -0.645816    11A     -0.629944    12A     -0.596166
      13A     -0.559574    14A     -0.536945    15A     -0.428244
      16A     -0.396745

  @DF-RHF Final Energy:  -208.04366954203061

   => Energetics <=

    Nuclear Repulsion Energy =            122.9375238667872168
    One-Electron Energy =                -526.6575098855398664
    Two-Electron Energy =                 195.6763164767219791
    DFT Exchange-Correlation Energy =       0.0000000000000000
    Empirical Dispersion Energy =           0.0000000000000000
    PCM Polarization Energy =               0.0000000000000000
    EFP Energy =                            0.0000000000000000
    Total Energy =                       -208.0436695420306705
    Molecular point group: c1
  Basis Set: CC-PVTZ
  Basis Set:

  -Total Gradient:
     Atom            X                  Y                   Z
    ------   -----------------  -----------------  -----------------
       1       -0.000002410602    -0.000000713085     0.000002964456
       2        0.000030525269     0.000012158398    -0.000005978436
       3       -0.000017171593    -0.000040180980    -0.000070956817
       4       -0.000013961324    -0.000000719756     0.000008012105
       5        0.000021579306     0.000054633790    -0.000011922244
       6        0.000005917886     0.000004026524     0.000053216450
       7       -0.000023087399    -0.000021293014     0.000015809495
       8       -0.000000604485    -0.000004431741     0.000003773712
       9       -0.000000787059    -0.000003480136     0.000005081277

  **** Optimization is complete! (in 8 steps) ****
    Final optimized geometry and variables:
    Molecular point group: c1

    Geometry (in Angstrom), charge = 0, multiplicity = 1:

    H            1.240433481356    -1.478867847025     0.018684712107
    C            0.371268736183    -0.818864290649     0.042735366894
    N            0.694325858316     0.475005873433    -0.102596853334
    O           -0.734977374682    -1.233479943572     0.189162281754
    C           -0.303763197534     1.521226617428    -0.123673142924
    H            1.644268165569     0.705439226620    -0.253277498156
    H           -0.938398674573     1.444209067034    -0.997056538525
    H            0.196815938685     2.478521699503    -0.136590780240
    H           -0.929478174587     1.464113788864     0.755326271575

  Mulliken Charges: (a.u.)
   Center  Symbol    Alpha    Beta     Spin     Total
       1     H     0.46442  0.46442  0.00000  0.07115
       2     C     2.87950  2.87950  0.00000  0.24101
       3     N     3.60565  3.60565  0.00000 -0.21129
       4     O     4.21437  4.21437  0.00000 -0.42874
       5     C     3.07507  3.07507  0.00000 -0.15015
       6     H     0.41002  0.41002  0.00000  0.17995
       7     H     0.45107  0.45107  0.00000  0.09787
       8     H     0.45455  0.45455  0.00000  0.09090
       9     H     0.44535  0.44535  0.00000  0.10930

   Total alpha = 16.00000, Total beta = 16.00000, Total charge =  0.00000

*** Psi4 exiting successfully. Buy a developer a beer!
