  ==> Input File <==

--------------------------------------------------------------------------
set {
	reference rhf
	basis 6-31G*
}

set_num_threads( 4 )
memory 2 gb

molecule MOL {
0 1

H	 1.740718	 -0.460696	 -2.516483
C	 1.012647	 -0.679296	 -1.743790
C	 1.322923	 0.120767	 -0.479465
H	 0.030119	 -0.435477	 -2.135663
H	 1.043018	 -1.747546	 -1.552707
C	 0.306652	 -0.176050	 0.621399
H	 1.304428	 1.183716	 -0.696777
H	 2.314313	 -0.120993	 -0.114827
N	 -1.068537	 -0.011044	 0.085269
H	 0.372515	 -1.192590	 0.973735
H	 0.391664	 0.520566	 1.441230
O	 -1.656956	 -0.997225	 -0.235017
O	 -1.478635	 1.104830	 -0.018026

	symmetry c1
}
set optking {
	frozen_dihedral = ("
		7 3 6 9
	")
}

ee = optimize('scf')
oeprop('DIPOLE', 'QUADRUPOLE', 'MULLIKEN_CHARGES')
f=open( 'psi4out.xyz', 'w' )
f.write( "13  " )
f.write( str(ee) + "\n" )
f.write( MOL.save_string_xyz() )
f.close()
--------------------------------------------------------------------------

    Molecular point group: c1
  Charge       = 0
  Multiplicity = 1
  Basis Set: 6-31G*
  Basis Set:
  @DF-RHF Final Energy:  -321.73368733682150
    Total Energy =                       -321.7336873368215038
    Molecular point group: c1
  Basis Set: 6-31G*
  Basis Set:
  Basis Set: 6-31G*
  Basis Set:
  @DF-RHF Final Energy:  -321.73108779918186
    Total Energy =                       -321.7310877991819780
  Basis Set: 6-31G*
  Basis Set:
  Basis Set: 6-31G*
  Basis Set:
  @DF-RHF Final Energy:  -321.73339331420834
    Total Energy =                       -321.7333933142082287
  Basis Set: 6-31G*
  Basis Set:
  Basis Set: 6-31G*
  Basis Set:
  @DF-RHF Final Energy:  -321.73507088544306
    Total Energy =                       -321.7350708854432355
  Basis Set: 6-31G*
  Basis Set:
  @DF-RHF Final Energy:  -321.73519671965141
    Total Energy =                       -321.7351967196511282
  @DF-RHF Final Energy:  -321.73525588035477
    Total Energy =                       -321.7352558803548277
  Basis Set: 6-31G*
  Basis Set:
  @DF-RHF Final Energy:  -321.73531186160739
    Total Energy =                       -321.7353118616072152
  Basis Set: 6-31G*
  Basis Set:
  Basis Set: 6-31G*
  Basis Set:
  @DF-RHF Final Energy:  -321.73534192793772
    Total Energy =                       -321.7353419279377817
  Basis Set: 6-31G*
  Basis Set:
  Basis Set: 6-31G*
  Basis Set:
  @DF-RHF Final Energy:  -321.73534458832580
    Total Energy =                       -321.7353445883259155
  Basis Set: 6-31G*
  Basis Set:
  Charge       = 0
  Multiplicity = 1
  Basis Set: 6-31G*
  Basis Set:

    Orbital Energies (a.u.)
    -----------------------

    Doubly Occupied:

       1A    -20.603676     2A    -20.598827     3A    -15.846966
       4A    -11.299439     5A    -11.255556     6A    -11.231654
       7A     -1.631081     8A     -1.416475     9A     -1.133997
      10A     -1.021706    11A     -0.895403    12A     -0.821185
      13A     -0.756373    14A     -0.737659    15A     -0.724844
      16A     -0.655202    17A     -0.615146    18A     -0.593788
      19A     -0.533569    20A     -0.519438    21A     -0.512126
      22A     -0.483617    23A     -0.473925    24A     -0.449091

  @DF-RHF Final Energy:  -321.73534504393365

   => Energetics <=

    Nuclear Repulsion Energy =            253.5435413193390275
    One-Electron Energy =                -940.9362862717703138
    Two-Electron Energy =                 365.6573999084977231
    DFT Exchange-Correlation Energy =       0.0000000000000000
    Empirical Dispersion Energy =           0.0000000000000000
    PCM Polarization Energy =               0.0000000000000000
    EFP Energy =                            0.0000000000000000
    Total Energy =                       -321.7353450439335347
    Molecular point group: c1
  Basis Set: 6-31G*
  Basis Set:

  -Total Gradient:
     Atom            X                  Y                   Z
    ------   -----------------  -----------------  -----------------
       1        0.000005958655     0.000001990701    -0.000003897281
       2       -0.000026678785    -0.000004359568     0.000011272731
       3       -0.001925064803    -0.000860244607    -0.001993385457
       4        0.000009222512    -0.000001048630     0.000003233548
       5        0.000002170408     0.000000394947    -0.000004772207
       6        0.000400940812     0.002113239199     0.001001074229
       7        0.001549796410     0.000273998080     0.001479371026
       8       -0.000006691641    -0.000004767955     0.000001005056
       9       -0.000041970335    -0.001525341954    -0.000482165639
      10        0.000016069641    -0.000003912157     0.000004190148
      11        0.000005009556    -0.000004610639    -0.000004139511
      12        0.000017849177     0.000046720194    -0.000011806514
      13       -0.000006611605    -0.000032057612     0.000000019872

  **** Optimization is complete! (in 10 steps) ****
    Final optimized geometry and variables:
    Molecular point group: c1

    Geometry (in Angstrom), charge = 0, multiplicity = 1:

    H            2.155575334987    -0.338661138403    -2.232926018515
    C            1.371017739577    -0.555967765326    -1.516936753293
    C            1.603804581140     0.231001103144    -0.228103368392
    H            0.424967251381    -0.294988566131    -1.978022611838
    H            1.372448329025    -1.625674997945    -1.332932621192
    C            0.609825860056    -0.091148956296     0.885364792266
    H            1.592090629221     1.297522675744    -0.416185137955
    H            2.587069933340    -0.001471043973     0.170808916292
    N           -0.788429060299     0.091485194306     0.412261381466
    H            0.675594283700    -1.116140960355     1.211605919355
    H            0.723305889770     0.579772554704     1.724228827166
    O           -1.490384828820    -0.870121589553     0.369439707210
    O           -1.109252688206     1.196705995833     0.094390725558

  Mulliken Charges: (a.u.)
   Center  Symbol    Alpha    Beta     Spin     Total
       1     H     0.41007  0.41007  0.00000  0.17987
       2     C     3.25075  3.25075  0.00000 -0.50150
       3     C     3.17102  3.17102  0.00000 -0.34204
       4     H     0.40447  0.40447  0.00000  0.19106
       5     H     0.41359  0.41359  0.00000  0.17283
       6     C     3.09180  3.09180  0.00000 -0.18361
       7     H     0.39732  0.39732  0.00000  0.20536
       8     H     0.40834  0.40834  0.00000  0.18332
       9     N     3.22225  3.22225  0.00000  0.55551
      10     H     0.38719  0.38719  0.00000  0.22562
      11     H     0.38620  0.38620  0.00000  0.22760
      12     O     4.22632  4.22632  0.00000 -0.45263
      13     O     4.23069  4.23069  0.00000 -0.46139

   Total alpha = 24.00000, Total beta = 24.00000, Total charge = -0.00000
