  ==> Input File <==

--------------------------------------------------------------------------
set {
	reference rhf
	basis 6-31G*
}

set_num_threads( 1 )
memory 2 gb

molecule MOL {
0 1

H	 -3.261111	 -0.295142	 1.469456
C	 -3.306842	 -0.277400	 0.373456
C	 -2.660244	 0.921717	 -0.272021
O	 -3.838538	 -1.161155	 -0.216482
C	 -1.220012	 1.144545	 0.209990
H	 -2.705793	 0.797307	 -1.347733
H	 -3.263782	 1.790044	 -0.010477
C	 -0.252658	 0.041456	 -0.226725
H	 -0.873521	 2.100229	 -0.171974
H	 -1.211708	 1.231594	 1.295398
C	 1.180775	 0.282413	 0.250794
H	 -0.266029	 -0.034465	 -1.312038
H	 -0.597733	 -0.921000	 0.146291
C	 2.148627	 -0.814315	 -0.201312
H	 1.516199	 1.249228	 -0.115937
H	 1.192670	 0.346017	 1.338083
C	 3.580890	 -0.659131	 0.322722
H	 2.166869	 -0.852443	 -1.289387
H	 1.762857	 -1.776509	 0.128956
C	 3.696506	 -0.592334	 1.846464
H	 4.003556	 0.249706	 -0.098369
H	 4.191830	 -1.478411	 -0.050714
H	 3.082393	 0.208662	 2.249624
H	 3.384882	 -1.517966	 2.318765
H	 4.722828	 -0.403956	 2.146753

	symmetry c1
}
set optking {
	frozen_dihedral = ("
		6 3 5 8,
		6 3 2 4,
		3 5 8 12,
		12 8 11 14,
		8 11 14 18
	")
}

ee = energy('scf')
oeprop('DIPOLE', 'QUADRUPOLE', 'MULLIKEN_CHARGES')
f=open( 'psi4out.xyz', 'w' )
f.write( "25  " )
f.write( str(ee) + "\n" )
f.write( MOL.save_string_xyz() )
f.close()
--------------------------------------------------------------------------

    Molecular point group: c1

    Geometry (in Angstrom), charge = 0, multiplicity = 1:

       Center              X                  Y                   Z               Mass
    ------------   -----------------  -----------------  -----------------  -----------------
           H         -3.187431362455    -0.160027805468     1.228066084528     1.007825032070
           C         -3.233162362455    -0.142285805468     0.132066084528    12.000000000000
           C         -2.586564362455     1.056831194532    -0.513410915472    12.000000000000
           O         -3.764858362455    -1.026040805468    -0.457871915472    15.994914619560
           C         -1.146332362455     1.279659194532    -0.031399915472    12.000000000000
           H         -2.632113362455     0.932421194532    -1.589122915472     1.007825032070
           H         -3.190102362455     1.925158194532    -0.251866915472     1.007825032070
           C         -0.178978362455     0.176570194532    -0.468114915472    12.000000000000
           H         -0.799841362455     2.235343194532    -0.413363915472     1.007825032070
           H         -1.138028362455     1.366708194532     1.054008084528     1.007825032070
           C          1.254454637545     0.417527194532     0.009404084528    12.000000000000
           H         -0.192349362455     0.100649194532    -1.553427915472     1.007825032070
           H         -0.524053362455    -0.785885805468    -0.095098915472     1.007825032070
           C          2.222306637545    -0.679200805468    -0.442701915472    12.000000000000
           H          1.589878637545     1.384342194532    -0.357326915472     1.007825032070
           H          1.266349637545     0.481131194532     1.096693084528     1.007825032070
           C          3.654569637545    -0.524016805468     0.081332084528    12.000000000000
           H          2.240548637545    -0.717328805468    -1.530776915472     1.007825032070
           H          1.836536637545    -1.641394805468    -0.112433915472     1.007825032070
           C          3.770185637545    -0.457219805468     1.605074084528    12.000000000000
           H          4.077235637545     0.384820194532    -0.339758915472     1.007825032070
           H          4.265509637545    -1.343296805468    -0.292103915472     1.007825032070
           H          3.156072637545     0.343776194532     2.008234084528     1.007825032070
           H          3.458561637545    -1.382851805468     2.077375084528     1.007825032070
           H          4.796507637545    -0.268841805468     1.905363084528     1.007825032070

  Charge       = 0
  Multiplicity = 1
  Basis Set: 6-31G*
  Basis Set:

    Orbital Energies (a.u.)
    -----------------------

    Doubly Occupied:

       1A    -20.562023     2A    -11.326159     3A    -11.235368
       4A    -11.234663     5A    -11.223975     6A    -11.219753
       7A    -11.218099     8A    -11.217044     9A    -11.210652
      10A     -1.401996    11A     -1.104244    12A     -1.070118
      13A     -1.012929    14A     -0.942160    15A     -0.876597
      16A     -0.821486    17A     -0.788030    18A     -0.779730
      19A     -0.664162    20A     -0.662765    21A     -0.632320
      22A     -0.626031    23A     -0.609033    24A     -0.589273
      25A     -0.565987    26A     -0.565142    27A     -0.524114
      28A     -0.523659    29A     -0.517445    30A     -0.496819
      31A     -0.488107    32A     -0.480352    33A     -0.462569
      34A     -0.457970    35A     -0.442566    36A     -0.409563

  @DF-RHF Final Energy:  -387.12073784543543

   => Energetics <=

    Nuclear Repulsion Energy =            440.5420690596661188
    One-Electron Energy =               -1397.3997920585020438
    Two-Electron Energy =                 569.7369851534009513
    DFT Exchange-Correlation Energy =       0.0000000000000000
    Empirical Dispersion Energy =           0.0000000000000000
    PCM Polarization Energy =               0.0000000000000000
    EFP Energy =                            0.0000000000000000
    Total Energy =                       -387.1207378454349737

  Mulliken Charges: (a.u.)
   Center  Symbol    Alpha    Beta     Spin     Total
       1     H     0.43260  0.43260  0.00000  0.13481
       2     C     2.83086  2.83086  0.00000  0.33828
       3     C     3.20813  3.20813  0.00000 -0.41626
       4     O     4.23774  4.23774  0.00000 -0.47548
       5     C     3.16657  3.16657  0.00000 -0.33314
       6     H     0.39967  0.39967  0.00000  0.20067
       7     H     0.40669  0.40669  0.00000  0.18662
       8     C     3.15434  3.15434  0.00000 -0.30867
       9     H     0.41285  0.41285  0.00000  0.17430
      10     H     0.41967  0.41967  0.00000  0.16067
      11     C     3.15553  3.15553  0.00000 -0.31106
      12     H     0.41818  0.41818  0.00000  0.16364
      13     H     0.41824  0.41824  0.00000  0.16353
      14     C     3.15274  3.15274  0.00000 -0.30547
      15     H     0.42303  0.42303  0.00000  0.15394
      16     H     0.42106  0.42106  0.00000  0.15788
      17     C     3.15233  3.15233  0.00000 -0.30466
      18     H     0.42056  0.42056  0.00000  0.15888
      19     H     0.42318  0.42318  0.00000  0.15363
      20     C     3.24264  3.24264  0.00000 -0.48527
      21     H     0.42377  0.42377  0.00000  0.15246
      22     H     0.41951  0.41951  0.00000  0.16097
      23     H     0.42058  0.42058  0.00000  0.15884
      24     H     0.42117  0.42117  0.00000  0.15766
      25     H     0.41838  0.41838  0.00000  0.16325

   Total alpha = 36.00000, Total beta = 36.00000, Total charge = -0.00000
