  ==> Input File <==

--------------------------------------------------------------------------
set {
	reference rhf
	basis 6-31G*
}

set_num_threads( 4 )
memory 2 gb

molecule MOL {
0 1

H	 -0.679546	 -1.398891	 0.670623
N	 -0.626943	 -0.667432	 -0.000092
C	 -1.726037	 -0.507623	 -0.924846
C	 0.469286	 0.129090	 0.000148
H	 -1.860397	 -1.400360	 -1.526488
H	 -1.501315	 0.322074	 -1.575100
H	 -2.651250	 -0.300993	 -0.397288
C	 1.788933	 -0.616240	 -0.000037
O	 0.411098	 1.327768	 -0.000049
H	 1.872803	 -1.245775	 -0.880381
H	 2.595421	 0.101576	 0.003713
H	 1.870096	 -1.252171	 0.875943

	symmetry c1
}
set optking {
	frozen_dihedral = ("
		3 2 4 9
	")
}

ee = optimize('scf')
oeprop('DIPOLE', 'QUADRUPOLE', 'MULLIKEN_CHARGES')
f=open( 'psi4out.xyz', 'w' )
f.write( "12  " )
f.write( str(ee) + "\n" )
f.write( MOL.save_string_xyz() )
f.close()
--------------------------------------------------------------------------

    Molecular point group: c1
  Charge       = 0
  Multiplicity = 1
  Basis Set: 6-31G*
  Basis Set:
  @DF-RHF Final Energy:  -246.98193037545951
    Total Energy =                       -246.9819303754595694
    Molecular point group: c1
  Basis Set: 6-31G*
  Basis Set:
  Basis Set: 6-31G*
  Basis Set:
  @DF-RHF Final Energy:  -246.98667336592658
    Total Energy =                       -246.9866733659264924
  Basis Set: 6-31G*
  Basis Set:
  Basis Set: 6-31G*
  Basis Set:
  @DF-RHF Final Energy:  -246.99112809017396
    Total Energy =                       -246.9911280901740156
  Basis Set: 6-31G*
  Basis Set:
  Basis Set: 6-31G*
  Basis Set:
  @DF-RHF Final Energy:  -246.99458981367553
    Total Energy =                       -246.9945898136754749
  Basis Set: 6-31G*
  Basis Set:
  @DF-RHF Final Energy:  -246.99522365345666
    Total Energy =                       -246.9952236534565486
  @DF-RHF Final Energy:  -246.99558696174469
    Total Energy =                       -246.9955869617447206
  @DF-RHF Final Energy:  -246.99574300320995
    Total Energy =                       -246.9957430032098955
  Basis Set: 6-31G*
  Basis Set:
  @DF-RHF Final Energy:  -246.99601839023211
    Total Energy =                       -246.9960183902322228
  Basis Set: 6-31G*
  Basis Set:
  Basis Set: 6-31G*
  Basis Set:
  @DF-RHF Final Energy:  -246.99610018149625
    Total Energy =                       -246.9961001814963879
  Basis Set: 6-31G*
  Basis Set:
  Basis Set: 6-31G*
  Basis Set:
  @DF-RHF Final Energy:  -246.99610501670588
    Total Energy =                       -246.9961050167059966
  Basis Set: 6-31G*
  Basis Set:
  Charge       = 0
  Multiplicity = 1
  Basis Set: 6-31G*
  Basis Set:

    Orbital Energies (a.u.)
    -----------------------

    Doubly Occupied:

       1A    -20.530613     2A    -15.577067     3A    -11.346932
       4A    -11.257866     5A    -11.233968     6A     -1.394760
       7A     -1.227431     8A     -1.016094     9A     -0.930762
      10A     -0.775094    11A     -0.690856    12A     -0.649747
      13A     -0.632208    14A     -0.591831    15A     -0.585304
      16A     -0.557065    17A     -0.546815    18A     -0.506586
      19A     -0.422778    20A     -0.392186

  @DF-RHF Final Energy:  -246.99610508407557

   => Energetics <=

    Nuclear Repulsion Energy =            180.9434563905056166
    One-Electron Energy =                -694.1471967747243070
    Two-Electron Energy =                 266.2076353001431244
    DFT Exchange-Correlation Energy =       0.0000000000000000
    Empirical Dispersion Energy =           0.0000000000000000
    PCM Polarization Energy =               0.0000000000000000
    EFP Energy =                            0.0000000000000000
    Total Energy =                       -246.9961050840755661
    Molecular point group: c1
  Basis Set: 6-31G*
  Basis Set:

  -Total Gradient:
     Atom            X                  Y                   Z
    ------   -----------------  -----------------  -----------------
       1       -0.000194430401    -0.000029022725     0.000004439300
       2       -0.004188756802     0.013562855729     0.012117663875
       3        0.003346960315    -0.008095767678    -0.004392652106
       4       -0.000176630968    -0.009147918965    -0.019514839479
       5       -0.000007058350     0.000025203210    -0.000017263486
       6        0.000008695117    -0.000000882826     0.000004472706
       7       -0.000003207164     0.000009438372     0.000016614795
       8        0.000001905701     0.000037087032    -0.000033937589
       9        0.001222829004     0.003643011636     0.011785208656
      10        0.000000509913    -0.000005162079     0.000011636307
      11       -0.000011293193     0.000001965005     0.000005898089
      12        0.000000476827    -0.000000806717     0.000012758930

  **** Optimization is complete! (in 11 steps) ****
    Final optimized geometry and variables:
    Molecular point group: c1

    Geometry (in Angstrom), charge = 0, multiplicity = 1:

    H           -0.588733421671    -1.406295921591     0.698932451066
    N           -0.738851480220    -0.465299204059     0.400257897472
    C           -1.837407098291    -0.386148369533    -0.553689403228
    C            0.443326279464     0.182923181612     0.092153168580
    H           -1.636843926538    -0.947342964108    -1.463164588820
    H           -2.005373778877     0.648200214279    -0.812165724680
    H           -2.735431309031    -0.776621692203    -0.092801221963
    C            1.704736069957    -0.607198980632     0.369785848627
    O            0.472272083857     1.323972207844    -0.258855949532
    H            1.797536589969    -1.426326864060    -0.337684254708
    H            2.561638856278     0.043370049597     0.277948605970
    H            1.678848707209    -1.032770686491     1.368299202211

  Mulliken Charges: (a.u.)
   Center  Symbol    Alpha    Beta     Spin     Total
       1     H     0.32077  0.32077  0.00000  0.35846
       2     N     3.86846  3.86846  0.00000 -0.73693
       3     C     3.15539  3.15539  0.00000 -0.31078
       4     C     2.64340  2.64340  0.00000  0.71320
       5     H     0.42152  0.42152  0.00000  0.15695
       6     H     0.39197  0.39197  0.00000  0.21606
       7     H     0.41084  0.41084  0.00000  0.17833
       8     C     3.29877  3.29877  0.00000 -0.59753
       9     O     4.28260  4.28260  0.00000 -0.56519
      10     H     0.40814  0.40814  0.00000  0.18372
      11     H     0.39191  0.39191  0.00000  0.21618
      12     H     0.40623  0.40623  0.00000  0.18754

   Total alpha = 20.00000, Total beta = 20.00000, Total charge =  0.00000
