  ==> Input File <==

--------------------------------------------------------------------------
set {
	reference rhf
	basis 6-31G*
}

set_num_threads( 4 )
memory 2 gb

molecule MOL {
0 1

H	 2.038305	 1.800597	 -1.632070
C	 1.314168	 1.603160	 -0.850039
C	 1.322923	 0.120767	 -0.479465
H	 1.568374	 2.225934	 0.001962
H	 0.339850	 1.913448	 -1.214758
C	 0.306652	 -0.176050	 0.621399
H	 2.309307	 -0.171654	 -0.134553
H	 1.086865	 -0.485315	 -1.346184
N	 -1.068537	 -0.011044	 0.085269
H	 0.372515	 -1.192590	 0.973735
H	 0.391664	 0.520566	 1.441230
O	 -1.656956	 -0.997225	 -0.235017
O	 -1.478635	 1.104830	 -0.018026

	symmetry c1
}
set optking {
	frozen_dihedral = ("
		7 3 6 9
	")
}

ee = optimize('scf')
oeprop('DIPOLE', 'QUADRUPOLE', 'MULLIKEN_CHARGES')
f=open( 'psi4out.xyz', 'w' )
f.write( "13  " )
f.write( str(ee) + "\n" )
f.write( MOL.save_string_xyz() )
f.close()
--------------------------------------------------------------------------

    Molecular point group: c1
  Charge       = 0
  Multiplicity = 1
  Basis Set: 6-31G*
  Basis Set:
  @DF-RHF Final Energy:  -321.73247675407453
    Total Energy =                       -321.7324767540746393
    Molecular point group: c1
  Basis Set: 6-31G*
  Basis Set:
  Basis Set: 6-31G*
  Basis Set:
  @DF-RHF Final Energy:  -321.73439649915190
    Total Energy =                       -321.7343964991518988
  Basis Set: 6-31G*
  Basis Set:
  Basis Set: 6-31G*
  Basis Set:
  @DF-RHF Final Energy:  -321.73447825652784
    Total Energy =                       -321.7344782565278365
  Basis Set: 6-31G*
  Basis Set:
  Basis Set: 6-31G*
  Basis Set:
  @DF-RHF Final Energy:  -321.73448244055959
    Total Energy =                       -321.7344824405598160
  Basis Set: 6-31G*
  Basis Set:
  @DF-RHF Final Energy:  -321.73471390477499
    Total Energy =                       -321.7347139047750488
  @DF-RHF Final Energy:  -321.73486160905867
    Total Energy =                       -321.7348616090585551
  @DF-RHF Final Energy:  -321.73496377290439
    Total Energy =                       -321.7349637729043934
  @DF-RHF Final Energy:  -321.73505795654347
    Total Energy =                       -321.7350579565436419
  @DF-RHF Final Energy:  -321.73525953596305
    Total Energy =                       -321.7352595359628822
  @DF-RHF Final Energy:  -321.73541339900225
    Total Energy =                       -321.7354133990021410
  @DF-RHF Final Energy:  -321.73548854071913
    Total Energy =                       -321.7354885407191318
  Basis Set: 6-31G*
  Basis Set:
  @DF-RHF Final Energy:  -321.73551068926906
    Total Energy =                       -321.7355106892690060
  Basis Set: 6-31G*
  Basis Set:
  Basis Set: 6-31G*
  Basis Set:
  @DF-RHF Final Energy:  -321.73551704616585
    Total Energy =                       -321.7355170461659100
  Basis Set: 6-31G*
  Basis Set:
  Basis Set: 6-31G*
  Basis Set:
  @DF-RHF Final Energy:  -321.73551826271398
    Total Energy =                       -321.7355182627138674
  Basis Set: 6-31G*
  Basis Set:
  Charge       = 0
  Multiplicity = 1
  Basis Set: 6-31G*
  Basis Set:

    Orbital Energies (a.u.)
    -----------------------

    Doubly Occupied:

       1A    -20.603449     2A    -20.599311     3A    -15.847311
       4A    -11.299569     5A    -11.255283     6A    -11.232294
       7A     -1.631148     8A     -1.416547     9A     -1.134096
      10A     -1.022261    11A     -0.893698    12A     -0.822935
      13A     -0.758524    14A     -0.737258    15A     -0.724504
      16A     -0.649021    17A     -0.621001    18A     -0.595675
      19A     -0.532168    20A     -0.518763    21A     -0.513882
      22A     -0.484292    23A     -0.474020    24A     -0.448683

  @DF-RHF Final Energy:  -321.73551843626262

   => Energetics <=

    Nuclear Repulsion Energy =            252.4334973140866225
    One-Electron Energy =                -938.7066433656441404
    Two-Electron Energy =                 364.5376276152949799
    DFT Exchange-Correlation Energy =       0.0000000000000000
    Empirical Dispersion Energy =           0.0000000000000000
    PCM Polarization Energy =               0.0000000000000000
    EFP Energy =                            0.0000000000000000
    Total Energy =                       -321.7355184362625664
    Molecular point group: c1
  Basis Set: 6-31G*
  Basis Set:

  -Total Gradient:
     Atom            X                  Y                   Z
    ------   -----------------  -----------------  -----------------
       1        0.000001385433    -0.000002262065    -0.000000665661
       2       -0.000005408404     0.000003140937    -0.000005077271
       3        0.000223421364     0.001194689304     0.000500136111
       4        0.000000272380     0.000002599316     0.000000508454
       5        0.000008699466    -0.000004798818     0.000003673524
       6       -0.000043010854     0.001055883808     0.000225723272
       7       -0.000178762416    -0.001261988587    -0.000482772729
       8        0.000002208263     0.000001697623     0.000007870721
       9        0.000003065620    -0.000985393092    -0.000239384915
      10        0.000004906257     0.000005327945     0.000005511022
      11        0.000012088616     0.000001613578     0.000002148306
      12       -0.000031817090     0.000004508831    -0.000007276732
      13        0.000002951370    -0.000015018776    -0.000010394101

  **** Optimization is complete! (in 15 steps) ****
    Final optimized geometry and variables:
    Molecular point group: c1

    Geometry (in Angstrom), charge = 0, multiplicity = 1:

    H            2.360030730766     1.423818722214    -1.566314799511
    C            1.602132079417     1.293368656498    -0.801973607548
    C            1.569560525152    -0.159389866406    -0.329903965161
    H            1.832455720074     1.968638652621     0.016100179281
    H            0.651024048199     1.596342483106    -1.226661585519
    C            0.550435314956    -0.420150415821     0.776136812483
    H            2.539106450708    -0.451581183506     0.061599028939
    H            1.356642107662    -0.824873878195    -1.157628688966
    N           -0.836632739159    -0.277609819849     0.255130272811
    H            0.613094440883    -1.437507109882     1.133982600898
    H            0.634863031782     0.273962450327     1.596074773359
    O           -1.183145855662    -1.058460182430    -0.578403751996
    O           -1.506175889148     0.605360282160     0.693944997025

  Mulliken Charges: (a.u.)
   Center  Symbol    Alpha    Beta     Spin     Total
       1     H     0.41024  0.41024  0.00000  0.17952
       2     C     3.24726  3.24726  0.00000 -0.49452
       3     C     3.17461  3.17461  0.00000 -0.34921
       4     H     0.41540  0.41540  0.00000  0.16920
       5     H     0.40665  0.40665  0.00000  0.18670
       6     C     3.09208  3.09208  0.00000 -0.18416
       7     H     0.40751  0.40751  0.00000  0.18498
       8     H     0.39415  0.39415  0.00000  0.21170
       9     N     3.22187  3.22187  0.00000  0.55626
      10     H     0.38640  0.38640  0.00000  0.22720
      11     H     0.38654  0.38654  0.00000  0.22693
      12     O     4.23006  4.23006  0.00000 -0.46011
      13     O     4.22725  4.22725  0.00000 -0.45450

   Total alpha = 24.00000, Total beta = 24.00000, Total charge =  0.00000
