  ==> Input File <==

--------------------------------------------------------------------------
set {
	reference rhf
	basis 6-31G*
}

set_num_threads( 1 )
memory 2 gb

molecule MOL {
0 1

H	 -2.798360	 -0.862255	 -0.071053
N	 -1.863561	 -0.715187	 0.256814
C	 -1.344686	 0.554728	 -0.219830
H	 -1.300452	 -1.461917	 -0.101532
C	 -1.446368	 1.597794	 0.873244
H	 -0.307479	 0.507328	 -0.554427
H	 -1.944746	 0.879723	 -1.064275
O	 -0.610005	 1.212416	 1.926367
H	 -1.143741	 2.573034	 0.492506
H	 -2.476244	 1.669087	 1.216040
C	 -0.670789	 2.043269	 3.041517
H	 0.012558	 1.649550	 3.781598
H	 -0.374112	 3.061422	 2.795898
H	 -1.672940	 2.068368	 3.464449

	symmetry c1
}
set optking {
	frozen_dihedral = ("
		8 5 3 6,
		5 8 11 13,
		11 8 5 3
	")
}

ee = energy('scf')
oeprop('DIPOLE', 'QUADRUPOLE', 'MULLIKEN_CHARGES')
f=open( 'psi4out.xyz', 'w' )
f.write( "14  " )
f.write( str(ee) + "\n" )
f.write( MOL.save_string_xyz() )
f.close()
--------------------------------------------------------------------------

    Molecular point group: c1

    Geometry (in Angstrom), charge = 0, multiplicity = 1:

       Center              X                  Y                   Z               Mass
    ------------   -----------------  -----------------  -----------------  -----------------
           H         -1.606192330927    -1.793277950346    -1.253768387220     1.007825032070
           N         -0.671393330927    -1.646209950346    -0.925901387220    14.003074004780
           C         -0.152518330927    -0.376294950346    -1.402545387220    12.000000000000
           H         -0.108284330927    -2.392939950346    -1.284247387220     1.007825032070
           C         -0.254200330927     0.666771049654    -0.309471387220    12.000000000000
           H          0.884688669073    -0.423694950346    -1.737142387220     1.007825032070
           H         -0.752578330927    -0.051299950346    -2.246990387220     1.007825032070
           O          0.582162669073     0.281393049654     0.743651612780    15.994914619560
           H          0.048426669073     1.642011049654    -0.690209387220     1.007825032070
           H         -1.284076330927     0.738064049654     0.033324612780     1.007825032070
           C          0.521378669073     1.112246049654     1.858801612780    12.000000000000
           H          1.204725669073     0.718527049654     2.598882612780     1.007825032070
           H          0.818055669073     2.130399049654     1.613182612780     1.007825032070
           H         -0.480772330927     1.137345049654     2.281733612780     1.007825032070

  Charge       = 0
  Multiplicity = 1
  Basis Set: 6-31G*
  Basis Set:

    Orbital Energies (a.u.)
    -----------------------

    Doubly Occupied:

       1A    -20.544559     2A    -15.530212     3A    -11.259561
       4A    -11.257528     5A    -11.242574     6A     -1.368838
       7A     -1.176036     8A     -0.995427     9A     -0.899867
      10A     -0.812523    11A     -0.681440    12A     -0.665300
      13A     -0.636732    14A     -0.623199    15A     -0.593515
      16A     -0.537640    17A     -0.517148    18A     -0.504461
      19A     -0.461049    20A     -0.407958    21A     -0.378846

  @DF-RHF Final Energy:  -248.11662385658079

   => Energetics <=

    Nuclear Repulsion Energy =            193.9627415406137914
    One-Electron Energy =                -721.9697902668615370
    Two-Electron Energy =                 279.8904248696672994
    DFT Exchange-Correlation Energy =       0.0000000000000000
    Empirical Dispersion Energy =           0.0000000000000000
    PCM Polarization Energy =               0.0000000000000000
    EFP Energy =                            0.0000000000000000
    Total Energy =                       -248.1166238565804179

  Mulliken Charges: (a.u.)
   Center  Symbol    Alpha    Beta     Spin     Total
       1     H     0.33374  0.33374  0.00000  0.33253
       2     N     3.91381  3.91381  0.00000 -0.82762
       3     C     3.08173  3.08173  0.00000 -0.16346
       4     H     0.33048  0.33048  0.00000  0.33905
       5     C     2.97500  2.97500  0.00000  0.05000
       6     H     0.41349  0.41349  0.00000  0.17302
       7     H     0.42950  0.42950  0.00000  0.14099
       8     O     4.29997  4.29997  0.00000 -0.59995
       9     H     0.43535  0.43535  0.00000  0.12930
      10     H     0.43324  0.43324  0.00000  0.13352
      11     C     3.07691  3.07691  0.00000 -0.15383
      12     H     0.41305  0.41305  0.00000  0.17390
      13     H     0.43358  0.43358  0.00000  0.13284
      14     H     0.43015  0.43015  0.00000  0.13969

   Total alpha = 21.00000, Total beta = 21.00000, Total charge =  0.00000
