  ==> Input File <==

--------------------------------------------------------------------------
set {
	reference rhf
	basis 6-31G*
}

set_num_threads( 4 )
memory 2 gb

molecule MOL {
0 1

H	 2.445408	 -0.992848	 -0.567926
O	 1.707618	 -0.432976	 -0.762601
C	 1.227293	 0.146317	 0.424359
C	 0.031547	 1.023609	 0.088541
H	 1.999506	 0.755952	 0.890107
H	 0.948771	 -0.624387	 1.139580
C	 -1.134819	 0.293262	 -0.585751
H	 0.374304	 1.820864	 -0.565057
H	 -0.310585	 1.494747	 1.008428
C	 -1.917817	 -0.639439	 0.339494
H	 -0.758119	 -0.268455	 -1.433105
H	 -1.813832	 1.041889	 -0.986690
H	 -2.777680	 -1.057197	 -0.174994
H	 -1.310268	 -1.471279	 0.680599
H	 -2.283753	 -0.111424	 1.216626

	symmetry c1
}
set optking {
	frozen_dihedral = ("
		8 4 7 11
	")
}

ee = optimize('scf')
oeprop('DIPOLE', 'QUADRUPOLE', 'MULLIKEN_CHARGES')
f=open( 'psi4out.xyz', 'w' )
f.write( "15  " )
f.write( str(ee) + "\n" )
f.write( MOL.save_string_xyz() )
f.close()
--------------------------------------------------------------------------

    Molecular point group: c1
  Charge       = 0
  Multiplicity = 1
  Basis Set: 6-31G*
  Basis Set:
  @DF-RHF Final Energy:  -232.14365667262177
    Total Energy =                       -232.1436566726217734
    Molecular point group: c1
  Basis Set: 6-31G*
  Basis Set:
  Basis Set: 6-31G*
  Basis Set:
  @DF-RHF Final Energy:  -232.14365395565673
    Total Energy =                       -232.1436539556567027
  Basis Set: 6-31G*
  Basis Set:
  Basis Set: 6-31G*
  Basis Set:
  @DF-RHF Final Energy:  -232.14373445867867
    Total Energy =                       -232.1437344586785230
  Basis Set: 6-31G*
  Basis Set:
  Charge       = 0
  Multiplicity = 1
  Basis Set: 6-31G*
  Basis Set:

    Orbital Energies (a.u.)
    -----------------------

    Doubly Occupied:

       1A    -20.553321     2A    -11.267773     3A    -11.212307
       4A    -11.208480     5A    -11.205162     6A     -1.360006
       7A     -1.063758     8A     -0.970402     9A     -0.867134
      10A     -0.775915    11A     -0.703907    12A     -0.648612
      13A     -0.606567    14A     -0.573334    15A     -0.563535
      16A     -0.532768    17A     -0.508059    18A     -0.473771
      19A     -0.467599    20A     -0.452665    21A     -0.430137

  @DF-RHF Final Energy:  -232.14373496481153

   => Energetics <=

    Nuclear Repulsion Energy =            191.2770895658935615
    One-Electron Energy =                -693.9512271137368771
    Two-Electron Energy =                 270.5304025830319574
    DFT Exchange-Correlation Energy =       0.0000000000000000
    Empirical Dispersion Energy =           0.0000000000000000
    PCM Polarization Energy =               0.0000000000000000
    EFP Energy =                            0.0000000000000000
    Total Energy =                       -232.1437349648113582
    Molecular point group: c1
  Basis Set: 6-31G*
  Basis Set:

  -Total Gradient:
     Atom            X                  Y                   Z
    ------   -----------------  -----------------  -----------------
       1       -0.000002690314     0.000006882610     0.000012707545
       2       -0.000059059566     0.000029703731     0.000010966711
       3        0.000006772492    -0.000010322169    -0.000016502988
       4        0.000972296260    -0.001140007603    -0.000485210188
       5       -0.000008005905     0.000010897523    -0.000009352192
       6       -0.000014787788    -0.000018745882     0.000016155832
       7       -0.000408126846     0.001329653067    -0.000675484892
       8       -0.000727756481     0.000725283174     0.000478217700
       9       -0.000010209613    -0.000016394555     0.000000765879
      10        0.000030491750    -0.000012187751    -0.000000194983
      11        0.000193078952    -0.000907697491     0.000666020821
      12        0.000015714507     0.000013564780    -0.000006285491
      13        0.000005475615     0.000002422898    -0.000009308466
      14        0.000006916609    -0.000012858040     0.000023303380
      15       -0.000000109676    -0.000000194292    -0.000005798666

  **** Optimization is complete! (in 4 steps) ****
    Final optimized geometry and variables:
    Molecular point group: c1

    Geometry (in Angstrom), charge = 0, multiplicity = 1:

    H            2.419938541444    -1.036992181711    -0.465838493223
    O            1.693329336422    -0.463365664074    -0.662750811925
    C            1.186141593741     0.083296680256     0.528556671802
    C           -0.000384744018     0.971108680207     0.188922995968
    H            1.948397049137     0.678265448955     1.028378517317
    H            0.890332890746    -0.707035624682     1.215267255301
    C           -1.173588271363     0.246326468135    -0.480607746814
    H            0.349534922374     1.766315100359    -0.463088161663
    H           -0.339942809685     1.449325368784     1.106298373070
    C           -1.946556888956    -0.686597448527     0.453933428670
    H           -0.802094671169    -0.319280591293    -1.327962962318
    H           -1.858069868495     0.992446590419    -0.875579865443
    H           -2.788512112051    -1.137635923995    -0.062244945902
    H           -1.324420547536    -1.495497968521     0.824065052295
    H           -2.337098560601    -0.148353725554     1.313740610442

  Mulliken Charges: (a.u.)
   Center  Symbol    Alpha    Beta     Spin     Total
       1     H     0.28061  0.28061  0.00000  0.43878
       2     O     4.36960  4.36960  0.00000 -0.73919
       3     C     2.99854  2.99854  0.00000  0.00292
       4     C     3.16103  3.16103  0.00000 -0.32206
       5     H     0.42921  0.42921  0.00000  0.14158
       6     H     0.43109  0.43109  0.00000  0.13782
       7     C     3.15610  3.15610  0.00000 -0.31219
       8     H     0.41373  0.41373  0.00000  0.17255
       9     H     0.42470  0.42470  0.00000  0.15060
      10     C     3.24216  3.24216  0.00000 -0.48432
      11     H     0.40633  0.40633  0.00000  0.18734
      12     H     0.42208  0.42208  0.00000  0.15583
      13     H     0.41900  0.41900  0.00000  0.16200
      14     H     0.42153  0.42153  0.00000  0.15693
      15     H     0.42430  0.42430  0.00000  0.15140

   Total alpha = 21.00000, Total beta = 21.00000, Total charge = -0.00000
