  ==> Input File <==

--------------------------------------------------------------------------
set {
	reference rhf
	basis cc-pvtz
}

set_num_threads( 4 )
memory 2 gb

molecule MOL {
0 1

H	 2.798970	 0.465119	 -2.223047
O	 1.879946	 0.303174	 -2.335266
C	 1.217532	 0.409360	 -1.166763
C	 1.858962	 0.720602	 0.022513
C	 -0.145769	 0.196585	 -1.179336
H	 2.921034	 0.886039	 0.030492
C	 1.136941	 0.818246	 1.194736
H	 -0.644069	 -0.043954	 -2.096223
C	 -0.861704	 0.296439	 0.000000
H	 1.643900	 1.059624	 2.108822
C	 -0.227142	 0.606875	 1.190707
C	 -2.330689	 0.069587	 0.000000
H	 -0.791236	 0.682116	 2.100666
O	 -2.848621	 -0.993976	 0.000000
H	 -2.934306	 0.982410	 0.000000

	symmetry c1
}
set optking {
	frozen_dihedral = ("
		11 9 12 14
	")
}

ee = optimize('scf')
oeprop('DIPOLE', 'QUADRUPOLE', 'MULLIKEN_CHARGES')
f=open( 'psi4out.xyz', 'w' )
f.write( "15  " )
f.write( str(ee) + "\n" )
f.write( MOL.save_string_xyz() )
f.close()
--------------------------------------------------------------------------

    Molecular point group: c1
  Charge       = 0
  Multiplicity = 1
  Basis Set: CC-PVTZ
  Basis Set:
  @DF-RHF Final Energy:  -418.42726809875688
    Total Energy =                       -418.4272680987569402
    Molecular point group: c1
  Basis Set: CC-PVTZ
  Basis Set:
  Basis Set: CC-PVTZ
  Basis Set:
  @DF-RHF Final Energy:  -418.42680438109284
    Total Energy =                       -418.4268043810926656
  Basis Set: CC-PVTZ
  Basis Set:
  Basis Set: CC-PVTZ
  Basis Set:
  @DF-RHF Final Energy:  -418.42744955241625
    Total Energy =                       -418.4274495524168742
  Basis Set: CC-PVTZ
  Basis Set:
  Basis Set: CC-PVTZ
  Basis Set:
  @DF-RHF Final Energy:  -418.42760486407002
    Total Energy =                       -418.4276048640700765
  Basis Set: CC-PVTZ
  Basis Set:
  Basis Set: CC-PVTZ
  Basis Set:
  @DF-RHF Final Energy:  -418.42760687281077
    Total Energy =                       -418.4276068728111113
  Basis Set: CC-PVTZ
  Basis Set:
  Charge       = 0
  Multiplicity = 1
  Basis Set: CC-PVTZ
  Basis Set:

    Orbital Energies (a.u.)
    -----------------------

    Doubly Occupied:

       1A    -20.596323     2A    -20.564002     3A    -11.333166
       4A    -11.312046     5A    -11.256203     6A    -11.249571
       7A    -11.238716     8A    -11.236975     9A    -11.236489
      10A     -1.428263    11A     -1.418520    12A     -1.171993
      13A     -1.050688    14A     -1.027162    15A     -0.901521
      16A     -0.845697    17A     -0.821048    18A     -0.742637
      19A     -0.703486    20A     -0.682130    21A     -0.665627
      22A     -0.644186    23A     -0.616208    24A     -0.607298
      25A     -0.586620    26A     -0.546892    27A     -0.534823
      28A     -0.515579    29A     -0.498145    30A     -0.426783
      31A     -0.357387    32A     -0.328436

  @DF-RHF Final Energy:  -418.42760783011579

   => Energetics <=

    Nuclear Repulsion Energy =            403.0351243636573599
    One-Electron Energy =               -1368.6362294739278695
    Two-Electron Energy =                 547.1734972801547201
    DFT Exchange-Correlation Energy =       0.0000000000000000
    Empirical Dispersion Energy =           0.0000000000000000
    PCM Polarization Energy =               0.0000000000000000
    EFP Energy =                            0.0000000000000000
    Total Energy =                       -418.4276078301157895
    Molecular point group: c1
  Basis Set: CC-PVTZ
  Basis Set:

  -Total Gradient:
     Atom            X                  Y                   Z
    ------   -----------------  -----------------  -----------------
       1       -0.000014664145     0.000009515983     0.000012306817
       2        0.000005448598    -0.000003274215     0.000022357006
       3       -0.000037783734    -0.000027133177    -0.000039811244
       4       -0.000004872639     0.000048429593     0.000046894493
       5        0.000041024908    -0.000037668065    -0.000027051704
       6        0.000002969409    -0.000012201783    -0.000009833019
       7        0.000108270575    -0.000009542123    -0.000053699475
       8        0.000008604683     0.000019267503     0.000009903489
       9       -0.000501067579     0.002896228918     0.000733417443
      10       -0.000009305070    -0.000000085064    -0.000000654899
      11        0.000191285502    -0.002009693299     0.000254063448
      12        0.000125106612    -0.000894477588    -0.003409550954
      13        0.000004334724     0.000008782241     0.000001381306
      14        0.000039745311     0.000028889726     0.002465078530
      15        0.000040902843    -0.000017038652    -0.000004801241

  **** Optimization is complete! (in 6 steps) ****
    Final optimized geometry and variables:
    Molecular point group: c1

    Geometry (in Angstrom), charge = 0, multiplicity = 1:

    H            2.834150583692     0.195633094362    -1.921906230083
    O            1.911367594468     0.053514852717    -2.032479053702
    C            1.259334766562     0.163134701818    -0.860068203949
    C            1.904304118143     0.469624012847     0.323584256816
    C           -0.109322614408    -0.048973035856    -0.870883919493
    H            2.966896967678     0.629777935046     0.332729669818
    C            1.176012735380     0.565064254113     1.494336771940
    H           -0.590195686097    -0.301870712644    -1.795382847489
    C           -0.824265933415     0.057608265787     0.303235187978
    H            1.682798829076     0.795730811534     2.411681227018
    C           -0.188432398848     0.365966486900     1.495393979465
    C           -2.305362999336    -0.181085823663     0.294717493440
    H           -0.746968944185     0.440666220959     2.408466612743
    O           -2.798429869334    -1.253444028049     0.285968860178
    H           -2.930574631715     0.717375960267     0.322151827352

  Mulliken Charges: (a.u.)
   Center  Symbol    Alpha    Beta     Spin     Total
       1     H     0.38635  0.38635  0.00000  0.22730
       2     O     4.17130  4.17130  0.00000 -0.34260
       3     C     2.83595  2.83595  0.00000  0.32810
       4     C     3.14114  3.14114  0.00000 -0.28229
       5     C     3.13416  3.13416  0.00000 -0.26832
       6     H     0.43266  0.43266  0.00000  0.13467
       7     C     3.05369  3.05369  0.00000 -0.10738
       8     H     0.41683  0.41683  0.00000  0.16634
       9     C     2.92173  2.92173  0.00000  0.15653
      10     H     0.41973  0.41973  0.00000  0.16053
      11     C     3.11874  3.11874  0.00000 -0.23748
      12     C     2.93110  2.93110  0.00000  0.13780
      13     H     0.42457  0.42457  0.00000  0.15086
      14     O     4.15483  4.15483  0.00000 -0.30966
      15     H     0.45720  0.45720  0.00000  0.08559

   Total alpha = 32.00000, Total beta = 32.00000, Total charge =  0.00000
