                              Psi4 1.0.54 Driver

  ==> Input File <==

--------------------------------------------------------------------------
set {
	reference rhf
	basis cc-pvtz
}

set_num_threads( 4 )
memory 2 gb

molecule MOL {
0 1

H	 2.363916	 -1.175128	 -0.162137
O	 1.675515	 -0.612943	 -0.465627
C	 1.135873	 0.113391	 0.608264
C	 0.027642	 1.012027	 0.090274
H	 1.902972	 0.727968	 1.072615
H	 0.756163	 -0.561896	 1.370018
C	 -1.138737	 0.285728	 -0.581921
H	 0.464661	 1.708096	 -0.618252
H	 -0.340737	 1.603071	 0.925246
C	 -1.933983	 -0.631436	 0.343653
H	 -0.763151	 -0.285569	 -1.422081
H	 -1.808359	 1.035291	 -0.992333
H	 -2.789188	 -1.049673	 -0.174718
H	 -1.335629	 -1.461368	 0.700418
H	 -2.305435	 -0.092167	 1.209725

	symmetry c1
}
set optking {
	frozen_dihedral = ("
		1 2 3 4
	")
}

ee,wfn = optimize('scf', return_wfn=True)
oeprop( wfn, 'DIPOLE', 'QUADRUPOLE', 'MULLIKEN_CHARGES')
f=open( 'psi4out.xyz', 'w' )
f.write( "15  " )
f.write( str(ee) + "\n" )
f.write( MOL.save_string_xyz() )
f.close()
--------------------------------------------------------------------------

    Molecular point group: c1
  Charge       = 0
  Multiplicity = 1
  Basis Set: CC-PVTZ
  Basis Set:
  @DF-RHF Final Energy:  -232.23763934994298
    Total Energy =                       -232.2376393499432083
    Molecular point group: c1
  Basis Set: CC-PVTZ
  Basis Set:
  Charge       = 0
  Multiplicity = 1
  Basis Set: CC-PVTZ
  Basis Set:

    Orbital Energies (a.u.)
    -----------------------

    Doubly Occupied:

       1A    -20.546562     2A    -11.265377     3A    -11.210957
       4A    -11.207338     5A    -11.203092     6A     -1.364355
       7A     -1.065399     8A     -0.971634     9A     -0.869480
      10A     -0.775351    11A     -0.707097    12A     -0.650230
      13A     -0.609308    14A     -0.574664    15A     -0.566228
      16A     -0.533310    17A     -0.511079    18A     -0.475818
      19A     -0.467663    20A     -0.453099    21A     -0.433458

  @DF-RHF Final Energy:  -232.23763936046552

   => Energetics <=

    Nuclear Repulsion Energy =            191.9173886196424803
    One-Electron Energy =                -695.3870635312578088
    Two-Electron Energy =                 271.2320355511499201
    DFT Exchange-Correlation Energy =       0.0000000000000000
    Empirical Dispersion Energy =           0.0000000000000000
    PCM Polarization Energy =               0.0000000000000000
    EFP Energy =                            0.0000000000000000
    Total Energy =                       -232.2376393604654368
    Molecular point group: c1
  Basis Set: CC-PVTZ
  Basis Set:

  -Total Gradient:
     Atom            X                  Y                   Z
    ------   -----------------  -----------------  -----------------
       1        0.000019073359     0.000024478307    -0.000004590991
       2       -0.000039230033    -0.000043357383    -0.000012910413
       3        0.000005918699     0.000025066610     0.000008075513
       4        0.000013305300    -0.000005386897     0.000016078004
       5       -0.000003215461     0.000004062038     0.000004747235
       6        0.000002088200     0.000007386188    -0.000010933705
       7        0.000007441046     0.000002456527     0.000008916345
       8        0.000003598197    -0.000002312573     0.000003618503
       9       -0.000004792592    -0.000004471823     0.000004048309
      10       -0.000002916449    -0.000004787547    -0.000006893947
      11        0.000000374215    -0.000013502951    -0.000002077944
      12        0.000004827172     0.000002295708    -0.000004551061
      13       -0.000000868641     0.000000987050    -0.000002136897
      14       -0.000001520773     0.000002339212    -0.000004266777
      15       -0.000004082240     0.000004747534     0.000002877828

  **** Optimization is complete! (in 2 steps) ****
    Final optimized geometry and variables:
    Molecular point group: c1

    Geometry (in Angstrom), charge = 0, multiplicity = 1:

    H            2.363908339371    -1.174844811663    -0.164032569077
    O            1.675008384179    -0.612913163402    -0.466609311308
    C            1.136671472672     0.113379341694     0.607922630034
    C            0.027533032790     1.011667481714     0.091418973559
    H            1.904087191132     0.728205382505     1.071409312813
    H            0.758057472400    -0.562042063700     1.370074910810
    C           -1.138234133606     0.285169147687    -0.581546368372
    H            0.463840342895     1.708975393772    -0.616288924038
    H           -0.341248071456     1.601264834960     0.927210382098
    C           -1.934902044926    -0.630908799638     0.343765205904
    H           -0.761825217262    -0.287071196755    -1.420665845492
    H           -1.807065560908     1.034573822460    -0.993485322492
    H           -2.788471878454    -1.050830433981    -0.175897157361
    H           -1.336646581085    -1.459611325574     0.703479829375
    H           -2.308912217063    -0.090319901220     1.207902664219

  Mulliken Charges: (a.u.)
   Center  Symbol    Alpha    Beta     Spin     Total
       1     H     0.39555  0.39555  0.00000  0.20890
       2     O     4.19919  4.19919  0.00000 -0.39838
       3     C     2.97592  2.97592  0.00000  0.04817
       4     C     3.09480  3.09480  0.00000 -0.18959
       5     H     0.46322  0.46322  0.00000  0.07355
       6     H     0.47235  0.47235  0.00000  0.05530
       7     C     3.08593  3.08593  0.00000 -0.17187
       8     H     0.44852  0.44852  0.00000  0.10295
       9     H     0.45466  0.45466  0.00000  0.09068
      10     C     3.15498  3.15498  0.00000 -0.30996
      11     H     0.44650  0.44650  0.00000  0.10701
      12     H     0.45100  0.45100  0.00000  0.09800
      13     H     0.44668  0.44668  0.00000  0.10664
      14     H     0.45365  0.45365  0.00000  0.09269
      15     H     0.45705  0.45705  0.00000  0.08590

   Total alpha = 21.00000, Total beta = 21.00000, Total charge =  0.00000

*** Psi4 exiting successfully. Buy a developer a beer!
