                              Psi4 1.0.54 Driver

  ==> Input File <==

--------------------------------------------------------------------------
set {
	reference rhf
	basis cc-pvtz
}

set_num_threads( 4 )
memory 2 gb

molecule MOL {
0 1

H	 -2.644180	 -0.653737	 1.272255
C	 -2.092774	 -0.380414	 0.391915
O	 -0.808934	 -0.154049	 0.752536
F	 -2.163230	 -1.351640	 -0.507133
F	 -2.627232	 0.691260	 -0.169301
C	 0.085006	 0.250800	 -0.215074
C	 1.300370	 -0.669348	 -0.128494
Cl	 0.578520	 1.936251	 0.032387
H	 -0.320191	 0.177374	 -1.209091
F	 2.185984	 -0.345241	 -1.036053
F	 0.918921	 -1.903398	 -0.358566
F	 1.869160	 -0.628864	 1.045001

	symmetry c1
}
set optking {
	frozen_dihedral = ("
		9 6 3 2
	")
}

ee,wfn = optimize('scf', return_wfn=True)
oeprop( wfn, 'DIPOLE', 'QUADRUPOLE', 'MULLIKEN_CHARGES')
f=open( 'psi4out.xyz', 'w' )
f.write( "12  " )
f.write( str(ee) + "\n" )
f.write( MOL.save_string_xyz() )
f.close()
--------------------------------------------------------------------------

    Molecular point group: c1
  Charge       = 0
  Multiplicity = 1
  Basis Set: CC-PVTZ
  Basis Set:
  @DF-RHF Final Energy: -1146.62026677428662
    Total Energy =                      -1146.6202667742868471
    Molecular point group: c1
  Basis Set: CC-PVTZ
  Basis Set:
  Basis Set: CC-PVTZ
  Basis Set:
  @DF-RHF Final Energy: -1146.62030987604203
    Total Energy =                      -1146.6203098760424837
  Basis Set: CC-PVTZ
  Basis Set:
  Basis Set: CC-PVTZ
  Basis Set:
  @DF-RHF Final Energy: -1146.62031935529012
    Total Energy =                      -1146.6203193552901212
  Basis Set: CC-PVTZ
  Basis Set:
  Basis Set: CC-PVTZ
  Basis Set:
  @DF-RHF Final Energy: -1146.62031851916345
    Total Energy =                      -1146.6203185191629927
  Basis Set: CC-PVTZ
  Basis Set:
  Basis Set: CC-PVTZ
  Basis Set:
  @DF-RHF Final Energy: -1146.62032278467541
    Total Energy =                      -1146.6203227846763184
  Basis Set: CC-PVTZ
  Basis Set:
  Charge       = 0
  Multiplicity = 1
  Basis Set: CC-PVTZ
  Basis Set:

    Orbital Energies (a.u.)
    -----------------------

    Doubly Occupied:

       1A   -104.856752     2A    -26.354952     3A    -26.353907
       4A    -26.353141     5A    -26.343526     6A    -26.343489
       7A    -20.641186     8A    -11.520047     9A    -11.484227
      10A    -11.401177    11A    -10.582265    12A     -8.049063
      13A     -8.047076    14A     -8.046998    15A     -1.767905
      16A     -1.725078    17A     -1.662852    18A     -1.661313
      19A     -1.645060    20A     -1.487432    21A     -1.178605
      22A     -1.052190    23A     -0.991495    24A     -0.924730
      25A     -0.864742    26A     -0.858885    27A     -0.852061
      28A     -0.830967    29A     -0.818786    30A     -0.793998
      31A     -0.733955    32A     -0.732621    33A     -0.712258
      34A     -0.708741    35A     -0.684545    36A     -0.681524
      37A     -0.665265    38A     -0.664002    39A     -0.649567
      40A     -0.639038    41A     -0.598929    42A     -0.582300
      43A     -0.525732    44A     -0.478545    45A     -0.469907

  @DF-RHF Final Energy: -1146.62032287270790

   => Energetics <=

    Nuclear Repulsion Energy =            738.8243624078522771
    One-Electron Energy =               -3060.8477073950343765
    Two-Electron Energy =                1175.4030221144735151
    DFT Exchange-Correlation Energy =       0.0000000000000000
    Empirical Dispersion Energy =           0.0000000000000000
    PCM Polarization Energy =               0.0000000000000000
    EFP Energy =                            0.0000000000000000
    Total Energy =                      -1146.6203228727085843
    Molecular point group: c1
  Basis Set: CC-PVTZ
  Basis Set:

  -Total Gradient:
     Atom            X                  Y                   Z
    ------   -----------------  -----------------  -----------------
       1       -0.000008999651    -0.000009515272    -0.000000093266
       2        0.000135131672    -0.000803398443    -0.000099660813
       3       -0.000381008275     0.001487421383     0.000239241180
       4        0.000019585133     0.000018153866    -0.000012943267
       5        0.000016260550    -0.000028634220    -0.000014559749
       6        0.000549715559    -0.001656285129    -0.000167420226
       7        0.000008720244     0.000008455883    -0.000012957181
       8        0.000010036764    -0.000008199920    -0.000002531604
       9       -0.000335842772     0.000973333931     0.000070915878
      10        0.000010811121     0.000006208808     0.000000118568
      11       -0.000023140050    -0.000002884557     0.000002384930
      12       -0.000001270263     0.000015343750    -0.000002494451

  **** Optimization is complete! (in 6 steps) ****
    Final optimized geometry and variables:
    Molecular point group: c1

    Geometry (in Angstrom), charge = 0, multiplicity = 1:

    H           -2.644840466011    -0.590978304534     1.299986615172
    C           -2.091722113111    -0.312746985780     0.422239714821
    O           -0.806844822774    -0.096330606151     0.784068433876
    F           -2.170785972627    -1.272217257915    -0.487824306203
    F           -2.618188575013     0.770366157644    -0.126857286077
    C            0.089008227669     0.303054174489    -0.185433144361
    C            1.312631848242    -0.606101219197    -0.097689688373
    CL           0.566227699062     1.992697785815     0.062370171832
    H           -0.317641621966     0.233126333196    -1.178850877260
    F            2.192399550063    -0.279123424886    -1.010096872237
    F            0.942133608533    -1.845006572540    -0.318289069593
    F            1.884551733515    -0.552779466490     1.073857262827

  Mulliken Charges: (a.u.)
   Center  Symbol    Alpha    Beta     Spin     Total
       1     H     0.45155  0.45155  0.00000  0.09689
       2     C     2.74003  2.74003  0.00000  0.51993
       3     O     4.15737  4.15737  0.00000 -0.31473
       4     F     4.61745  4.61745  0.00000 -0.23490
       5     F     4.61613  4.61613  0.00000 -0.23226
       6     C     2.93534  2.93534  0.00000  0.12932
       7     C     2.66980  2.66980  0.00000  0.66040
       8    CL     8.57438  8.57438  0.00000 -0.14875
       9     H     0.43039  0.43039  0.00000  0.13922
      10     F     4.60270  4.60270  0.00000 -0.20539
      11     F     4.60431  4.60431  0.00000 -0.20861
      12     F     4.60055  4.60055  0.00000 -0.20111

   Total alpha = 45.00000, Total beta = 45.00000, Total charge = -0.00000

*** Psi4 exiting successfully. Buy a developer a beer!
