  ==> Input File <==

--------------------------------------------------------------------------
set {
	reference rhf
	basis 6-31G*
}

set_num_threads( 4 )
memory 2 gb

molecule MOL {
0 1

O	 1.923358	 1.157070	 -0.528821
C	 1.705091	 0.115954	 0.001797
C	 0.381791	 -0.609817	 0.001258
O	 2.624537	 -0.561477	 0.677697
C	 -0.823008	 0.326187	 0.001381
H	 0.371250	 -1.265087	 -0.865474
H	 0.370908	 -1.265746	 0.867490
C	 -2.149452	 -0.435131	 -0.000098
H	 -0.770201	 0.977095	 -0.865636
H	 -0.771220	 0.975655	 0.869608
C	 -3.368779	 0.488503	 -0.000883
H	 -2.193746	 -1.087250	 -0.871175
H	 -2.195311	 -1.087803	 0.870418
C	 -4.693822	 -0.272754	 -0.001129
H	 -3.325798	 1.139422	 -0.871284
H	 -3.326423	 1.139959	 0.869145
H	 -4.781274	 -0.907928	 -0.878124
H	 -5.538651	 0.408946	 -0.001420
H	 -4.781694	 -0.907783	 0.875984
C	 3.917485	 0.010710	 0.754134
H	 4.339614	 0.129197	 -0.233437
H	 4.511231	 -0.678170	 1.334468
H	 3.878511	 0.974234	 1.241584

	symmetry c1
}
set optking {
	frozen_dihedral = ("
		1 2 3 6
	")
}

ee = optimize('scf')
oeprop('DIPOLE', 'QUADRUPOLE', 'MULLIKEN_CHARGES')
f=open( 'psi4out.xyz', 'w' )
f.write( "23  " )
f.write( str(ee) + "\n" )
f.write( MOL.save_string_xyz() )
f.close()
--------------------------------------------------------------------------

    Molecular point group: c1
  Charge       = 0
  Multiplicity = 1
  Basis Set: 6-31G*
  Basis Set:
  @DF-RHF Final Energy:  -422.97533634051638
    Total Energy =                       -422.9753363405162645
    Molecular point group: c1
  Basis Set: 6-31G*
  Basis Set:
  Basis Set: 6-31G*
  Basis Set:
  @DF-RHF Final Energy:  -422.97495619995351
    Total Energy =                       -422.9749561999534535
  Basis Set: 6-31G*
  Basis Set:
  Basis Set: 6-31G*
  Basis Set:
  @DF-RHF Final Energy:  -422.97537245906324
    Total Energy =                       -422.9753724590638058
  Basis Set: 6-31G*
  Basis Set:
  Basis Set: 6-31G*
  Basis Set:
  @DF-RHF Final Energy:  -422.97568429908819
    Total Energy =                       -422.9756842990885843
  Basis Set: 6-31G*
  Basis Set:
  Basis Set: 6-31G*
  Basis Set:
  @DF-RHF Final Energy:  -422.97568535795182
    Total Energy =                       -422.9756853579514200
  Basis Set: 6-31G*
  Basis Set:
  Charge       = 0
  Multiplicity = 1
  Basis Set: 6-31G*
  Basis Set:

    Orbital Energies (a.u.)
    -----------------------

    Doubly Occupied:

       1A    -20.604982     2A    -20.543950     3A    -11.372158
       4A    -11.280872     5A    -11.234988     6A    -11.221029
       7A    -11.218471     8A    -11.216974     9A    -11.209970
      10A     -1.469678    11A     -1.362217    12A     -1.093565
      13A     -1.043546    14A     -0.987018    15A     -0.932654
      16A     -0.843820    17A     -0.795505    18A     -0.768813
      19A     -0.696276    20A     -0.682888    21A     -0.671652
      22A     -0.652323    23A     -0.608790    24A     -0.598919
      25A     -0.573287    26A     -0.564835    27A     -0.550715
      28A     -0.525103    29A     -0.523229    30A     -0.506687
      31A     -0.484729    32A     -0.470971    33A     -0.466422
      34A     -0.461797    35A     -0.455553    36A     -0.433687

  @DF-RHF Final Energy:  -422.97568560159124

   => Energetics <=

    Nuclear Repulsion Energy =            452.2171585178314785
    One-Electron Energy =               -1472.1295384497152554
    Two-Electron Energy =                 596.9366943302925392
    DFT Exchange-Correlation Energy =       0.0000000000000000
    Empirical Dispersion Energy =           0.0000000000000000
    PCM Polarization Energy =               0.0000000000000000
    EFP Energy =                            0.0000000000000000
    Total Energy =                       -422.9756856015912945
    Molecular point group: c1
  Basis Set: 6-31G*
  Basis Set:

  -Total Gradient:
     Atom            X                  Y                   Z
    ------   -----------------  -----------------  -----------------
       1        0.000236924517    -0.000519766658    -0.000807093672
       2       -0.000463730367     0.000881020326     0.001046145005
       3        0.000590731470    -0.001026132484     0.000241445039
       4        0.000010347900    -0.000022414086     0.000009976719
       5        0.000007509516     0.000011224928     0.000008470132
       6       -0.000379640809     0.000678331717    -0.000508764132
       7        0.000006286341     0.000006859835     0.000000971928
       8        0.000002126055    -0.000006933995    -0.000004598997
       9       -0.000006118104    -0.000000010194     0.000003824985
      10        0.000008524248    -0.000003706013     0.000002797050
      11        0.000003866719     0.000001881651    -0.000001836939
      12       -0.000000185552    -0.000009867621     0.000004082909
      13        0.000000490343     0.000008558795     0.000004295240
      14       -0.000000723583    -0.000000292218    -0.000009302696
      15       -0.000001646653     0.000004804590     0.000001566640
      16       -0.000000252813    -0.000003903495     0.000000994975
      17       -0.000000892392    -0.000001830014     0.000000896032
      18       -0.000000273413    -0.000000103709    -0.000001743977
      19        0.000001235403     0.000002243860     0.000000791873
      20       -0.000030498134    -0.000004738665     0.000010146487
      21        0.000002594424     0.000001264367    -0.000002842917
      22        0.000007642816     0.000001577106    -0.000000549286
      23        0.000005682070     0.000001931981     0.000000327603

  **** Optimization is complete! (in 6 steps) ****
    Final optimized geometry and variables:
    Molecular point group: c1

    Geometry (in Angstrom), charge = 0, multiplicity = 1:

    O            1.897400050669     1.136367283037    -0.589346481210
    C            1.711687377400     0.091958319629    -0.051546167855
    C            0.393616105458    -0.644239489609    -0.022257866553
    O            2.669444993150    -0.585417597714     0.566461201406
    C           -0.812180594367     0.294386558761    -0.061644906677
    H            0.386111942775    -1.292513464040    -0.896338043648
    H            0.370158903464    -1.290354596598     0.846962877726
    C           -2.138962530283    -0.464820772043    -0.102065534831
    H           -0.727329150992     0.942381258750    -0.926710472292
    H           -0.790158759235     0.943152141843     0.810535371643
    C           -3.356208078993     0.460829727911    -0.138592619508
    H           -2.157002168998    -1.114843778999    -0.975594364514
    H           -2.211857178506    -1.118891406912     0.765434964334
    C           -4.681597573476    -0.298467559753    -0.184857424328
    H           -3.283894937574     1.115058218473    -1.004444898304
    H           -3.341545363687     1.108638078264     0.735133171620
    H           -4.741383787049    -0.929922342210    -1.066847089724
    H           -5.525008710473     0.384474813419    -0.209791460947
    H           -4.798752677848    -0.936900477041     0.686330248615
    C            3.967106940202    -0.018213960788     0.554404557404
    H            4.322302618720     0.096327930814    -0.459613730848
    H            4.595621291086    -0.708213138373     1.095507099978
    H            3.963972953724     0.946535687555     1.040750672123

  Mulliken Charges: (a.u.)
   Center  Symbol    Alpha    Beta     Spin     Total
       1     O     4.28672  4.28672  0.00000 -0.57343
       2     C     2.60374  2.60374  0.00000  0.79253
       3     C     3.20890  3.20890  0.00000 -0.41780
       4     O     4.30644  4.30644  0.00000 -0.61288
       5     C     3.15654  3.15654  0.00000 -0.31308
       6     H     0.40036  0.40036  0.00000  0.19928
       7     H     0.40058  0.40058  0.00000  0.19885
       8     C     3.15291  3.15291  0.00000 -0.30581
       9     H     0.40471  0.40471  0.00000  0.19058
      10     H     0.41707  0.41707  0.00000  0.16586
      11     C     3.15178  3.15178  0.00000 -0.30355
      12     H     0.42340  0.42340  0.00000  0.15320
      13     H     0.42369  0.42369  0.00000  0.15261
      14     C     3.23964  3.23964  0.00000 -0.47929
      15     H     0.42076  0.42076  0.00000  0.15848
      16     H     0.42187  0.42187  0.00000  0.15626
      17     H     0.42157  0.42157  0.00000  0.15686
      18     H     0.41841  0.41841  0.00000  0.16317
      19     H     0.42183  0.42183  0.00000  0.15635
      20     C     3.09318  3.09318  0.00000 -0.18635
      21     H     0.40905  0.40905  0.00000  0.18190
      22     H     0.40837  0.40837  0.00000  0.18326
      23     H     0.40850  0.40850  0.00000  0.18300

   Total alpha = 36.00000, Total beta = 36.00000, Total charge = -0.00000
