  ==> Input File <==

--------------------------------------------------------------------------
set {
	reference rhf
	basis cc-pvtz
}

set_num_threads( 4 )
memory 2 gb

molecule MOL {
0 1

H	 3.044796	 0.281312	 0.907776
O	 2.346028	 0.825700	 0.595654
C	 1.135873	 0.113391	 0.608264
C	 0.027642	 1.012027	 0.090274
H	 0.893145	 -0.201916	 1.619912
H	 1.217216	 -0.783094	 -0.000144
C	 -1.138737	 0.285728	 -0.581921
H	 0.464661	 1.708096	 -0.618252
H	 -0.340737	 1.603071	 0.925246
C	 -1.933983	 -0.631436	 0.343653
H	 -0.763151	 -0.285569	 -1.422081
H	 -1.808359	 1.035291	 -0.992333
H	 -2.789188	 -1.049673	 -0.174718
H	 -1.335629	 -1.461368	 0.700418
H	 -2.305435	 -0.092167	 1.209725

	symmetry c1
}
set optking {
	frozen_dihedral = ("
		2 3 4 8
	")
}

ee = optimize('scf')
oeprop('DIPOLE', 'QUADRUPOLE', 'MULLIKEN_CHARGES')
f=open( 'psi4out.xyz', 'w' )
f.write( "15  " )
f.write( str(ee) + "\n" )
f.write( MOL.save_string_xyz() )
f.close()
--------------------------------------------------------------------------

    Molecular point group: c1
  Charge       = 0
  Multiplicity = 1
  Basis Set: CC-PVTZ
  Basis Set:
  @DF-RHF Final Energy:  -232.23503026674993
    Total Energy =                       -232.2350302667499022
    Molecular point group: c1
  Basis Set: CC-PVTZ
  Basis Set:
  Basis Set: CC-PVTZ
  Basis Set:
  @DF-RHF Final Energy:  -232.23546376056052
    Total Energy =                       -232.2354637605604921
  Basis Set: CC-PVTZ
  Basis Set:
  Basis Set: CC-PVTZ
  Basis Set:
  @DF-RHF Final Energy:  -232.23552037833511
    Total Energy =                       -232.2355203783351953
  Basis Set: CC-PVTZ
  Basis Set:
  Basis Set: CC-PVTZ
  Basis Set:
  @DF-RHF Final Energy:  -232.23552692814593
    Total Energy =                       -232.2355269281459869
  Basis Set: CC-PVTZ
  Basis Set:
  Basis Set: CC-PVTZ
  Basis Set:
  @DF-RHF Final Energy:  -232.23552834106877
    Total Energy =                       -232.2355283410688571
  Basis Set: CC-PVTZ
  Basis Set:
  Charge       = 0
  Multiplicity = 1
  Basis Set: CC-PVTZ
  Basis Set:

    Orbital Energies (a.u.)
    -----------------------

    Doubly Occupied:

       1A    -20.545737     2A    -11.265444     3A    -11.216013
       4A    -11.209345     5A    -11.209298     6A     -1.363252
       7A     -1.070730     8A     -0.970861     9A     -0.870944
      10A     -0.784783    11A     -0.702370    12A     -0.649681
      13A     -0.611512    14A     -0.591354    15A     -0.558116
      16A     -0.536854    17A     -0.511097    18A     -0.475421
      19A     -0.473216    20A     -0.456500    21A     -0.434905

  @DF-RHF Final Energy:  -232.23552851035450

   => Energetics <=

    Nuclear Repulsion Energy =            188.4518582012156855
    One-Electron Energy =                -688.3599083012011306
    Two-Electron Energy =                 267.6725215896308328
    DFT Exchange-Correlation Energy =       0.0000000000000000
    Empirical Dispersion Energy =           0.0000000000000000
    PCM Polarization Energy =               0.0000000000000000
    EFP Energy =                            0.0000000000000000
    Total Energy =                       -232.2355285103545839
    Molecular point group: c1
  Basis Set: CC-PVTZ
  Basis Set:

  -Total Gradient:
     Atom            X                  Y                   Z
    ------   -----------------  -----------------  -----------------
       1        0.000013305767     0.000003780598    -0.000000537361
       2        0.000581964443    -0.000907888991    -0.002812399551
       3       -0.000561731949     0.001704571473     0.004245358768
       4       -0.000694048078    -0.003247045023    -0.004377397601
       5       -0.000013382523     0.000004247415    -0.000002572006
       6       -0.000011903628    -0.000012678502     0.000000580601
       7        0.000014241135     0.000009365964     0.000005706874
       8        0.000694988281     0.002456892772     0.002957424087
       9        0.000000703467     0.000010604955    -0.000009349049
      10       -0.000019228302    -0.000007133299    -0.000000956510
      11       -0.000001375296    -0.000004093322    -0.000009969890
      12       -0.000003299043    -0.000009213583     0.000002617726
      13       -0.000004572120    -0.000003465967     0.000006682383
      14        0.000003089896     0.000001166409    -0.000006136558
      15        0.000001247950     0.000000889101     0.000000948090

  **** Optimization is complete! (in 6 steps) ****
    Final optimized geometry and variables:
    Molecular point group: c1

    Geometry (in Angstrom), charge = 0, multiplicity = 1:

    H            2.869136724091    -0.016722647513     0.761716392411
    O            2.191475819019     0.498850560740     0.365115261002
    C            0.982118806478    -0.214964501628     0.362680047815
    C           -0.117673994042     0.704553724329    -0.153171847002
    H            0.749397223773    -0.576840061290     1.359799057439
    H            1.069316793047    -1.083487680186    -0.287772921666
    C           -1.288619127872    -0.018386865046    -0.813206506857
    H            0.342164362505     1.400423931812    -0.844797208397
    H           -0.484359151698     1.313055906536     0.669231378157
    C           -2.064480215088    -0.938430124507     0.126888268358
    H           -0.924903765696    -0.592335438854    -1.661101881793
    H           -1.968135528850     0.724255671035    -1.218245274449
    H           -2.908441625975    -1.389747913278    -0.381741090250
    H           -1.444572374544    -1.743780527277     0.505194357192
    H           -2.447931071454    -0.388740670704     0.980368475038

  Mulliken Charges: (a.u.)
   Center  Symbol    Alpha    Beta     Spin     Total
       1     H     0.39590  0.39590  0.00000  0.20820
       2     O     4.19748  4.19748  0.00000 -0.39497
       3     C     2.96410  2.96410  0.00000  0.07180
       4     C     3.09151  3.09151  0.00000 -0.18301
       5     H     0.47163  0.47163  0.00000  0.05675
       6     H     0.47552  0.47552  0.00000  0.04895
       7     C     3.09752  3.09752  0.00000 -0.19503
       8     H     0.44234  0.44234  0.00000  0.11531
       9     H     0.45519  0.45519  0.00000  0.08961
      10     C     3.15045  3.15045  0.00000 -0.30089
      11     H     0.45391  0.45391  0.00000  0.09218
      12     H     0.44810  0.44810  0.00000  0.10380
      13     H     0.44656  0.44656  0.00000  0.10688
      14     H     0.45580  0.45580  0.00000  0.08840
      15     H     0.45399  0.45399  0.00000  0.09202

   Total alpha = 21.00000, Total beta = 21.00000, Total charge = -0.00000
