                              Psi4 1.0.54 Driver

  ==> Input File <==

--------------------------------------------------------------------------
set {
	reference rhf
	basis cc-pvtz
}

set_num_threads( 4 )
memory 2 gb

molecule MOL {
0 1

O	 -1.278239	 1.034789	 -0.784693
C	 -1.204115	 0.062668	 -0.112312
C	 -2.386398	 -0.667698	 0.460323
O	 -0.068058	 -0.518372	 0.226882
H	 -2.382952	 -1.693172	 0.114333
H	 -3.296656	 -0.175702	 0.158400
H	 -2.312537	 -0.685191	 1.540100
C	 0.264638	 -1.791994	 -0.335259
C	 1.180396	 -2.470378	 0.663889
C	 0.908223	 -1.602284	 -1.697028
H	 -0.649481	 -2.355852	 -0.442676
H	 0.687055	 -2.581478	 1.620979
H	 1.457119	 -3.454394	 0.304936
H	 2.084796	 -1.891975	 0.810337
H	 1.171913	 -2.565130	 -2.118805
H	 0.227996	 -1.110194	 -2.378047
H	 1.811031	 -1.008284	 -1.611091

	symmetry c1
}
set optking {
	frozen_dihedral = ("
		8 4 2 1
	")
}

ee,wfn = optimize('scf', return_wfn=True)
oeprop( wfn, 'DIPOLE', 'QUADRUPOLE', 'MULLIKEN_CHARGES')
f=open( 'psi4out.xyz', 'w' )
f.write( "17  " )
f.write( str(ee) + "\n" )
f.write( MOL.save_string_xyz() )
f.close()
--------------------------------------------------------------------------

    Molecular point group: c1
  Charge       = 0
  Multiplicity = 1
  Basis Set: CC-PVTZ
  Basis Set:
  @DF-RHF Final Energy:  -345.02094836411050
    Total Energy =                       -345.0209483641103816
    Molecular point group: c1
  Basis Set: CC-PVTZ
  Basis Set:
  Basis Set: CC-PVTZ
  Basis Set:
  @DF-RHF Final Energy:  -344.94237269639359
    Total Energy =                       -344.9423726963935337
  Basis Set: CC-PVTZ
  Basis Set:
  Basis Set: CC-PVTZ
  Basis Set:
  @DF-RHF Final Energy:  -344.92560346657615
    Total Energy =                       -344.9256034665760353
  Basis Set: CC-PVTZ
  Basis Set:
  Basis Set: CC-PVTZ
  Basis Set:
  @DF-RHF Final Energy:  -344.91050667617560
    Total Energy =                       -344.9105066761755438
  Basis Set: CC-PVTZ
  Basis Set:
  @DF-RHF Final Energy:  -344.90505477149185
    Total Energy =                       -344.9050547714917911
  @DF-RHF Final Energy:  -344.90928308199386
    Total Energy =                       -344.9092830819937490
  @DF-RHF Final Energy:  -344.93852355759986
    Total Energy =                       -344.9385235575999786
  @DF-RHF Final Energy:  -344.99714564323079
    Total Energy =                       -344.9971456432309651
  @DF-RHF Final Energy:  -345.00387684920929
    Total Energy =                       -345.0038768492092913
  @DF-RHF Final Energy:  -345.01905751290229
    Total Energy =                       -345.0190575129024637
  @DF-RHF Final Energy:  -345.02218203479265
    Total Energy =                       -345.0221820347921948
  @DF-RHF Final Energy:  -345.02369230922466
    Total Energy =                       -345.0236923092248844
  @DF-RHF Final Energy:  -345.02389543361386
    Total Energy =                       -345.0238954336140296
  @DF-RHF Final Energy:  -345.02366841251330
    Total Energy =                       -345.0236684125130751
  @DF-RHF Final Energy:  -345.02407834817211
    Total Energy =                       -345.0240783481724520
  @DF-RHF Final Energy:  -345.02410550258759
    Total Energy =                       -345.0241055025873607
  @DF-RHF Final Energy:  -345.02411607247728
    Total Energy =                       -345.0241160724773408
  @DF-RHF Final Energy:  -345.02411877085598
    Total Energy =                       -345.0241187708560346
  Basis Set: CC-PVTZ
  Basis Set:
  @DF-RHF Final Energy:  -345.02412168679575
    Total Energy =                       -345.0241216867959793
  Basis Set: CC-PVTZ
  Basis Set:
  Basis Set: CC-PVTZ
  Basis Set:
  @DF-RHF Final Energy:  -345.02412495805675
    Total Energy =                       -345.0241249580567455
  Basis Set: CC-PVTZ
  Basis Set:
  Basis Set: CC-PVTZ
  Basis Set:
  @DF-RHF Final Energy:  -345.02412636037349
    Total Energy =                       -345.0241263603734296
  Basis Set: CC-PVTZ
  Basis Set:
  Charge       = 0
  Multiplicity = 1
  Basis Set: CC-PVTZ
  Basis Set:

    Orbital Energies (a.u.)
    -----------------------

    Doubly Occupied:

       1A    -20.574670     2A    -20.540474     3A    -11.368497
       4A    -11.300544     5A    -11.235950     6A    -11.220889
       7A    -11.219332     8A     -1.458621     9A     -1.367803
      10A     -1.074853    11A     -1.012656    12A     -0.953735
      13A     -0.852701    14A     -0.767867    15A     -0.695264
      16A     -0.676623    17A     -0.658313    18A     -0.625251
      19A     -0.591185    20A     -0.588008    21A     -0.558066
      22A     -0.553191    23A     -0.542338    24A     -0.525407
      25A     -0.510717    26A     -0.480148    27A     -0.451144
      28A     -0.436777

  @DF-RHF Final Energy:  -345.02412662362684

   => Energetics <=

    Nuclear Repulsion Energy =            323.3266072214625524
    One-Electron Energy =               -1111.0194261191722944
    Two-Electron Energy =                 442.6686922740831278
    DFT Exchange-Correlation Energy =       0.0000000000000000
    Empirical Dispersion Energy =           0.0000000000000000
    PCM Polarization Energy =               0.0000000000000000
    EFP Energy =                            0.0000000000000000
    Total Energy =                       -345.0241266236265574
    Molecular point group: c1
  Basis Set: CC-PVTZ
  Basis Set:

  -Total Gradient:
     Atom            X                  Y                   Z
    ------   -----------------  -----------------  -----------------
       1        0.001143156252    -0.000647028875    -0.000145609995
       2       -0.001612999801     0.000728725595    -0.000333571432
       3       -0.000010806479    -0.000002825753    -0.000022076625
       4        0.000395456196     0.000308217162     0.001502369114
       5       -0.000002934183     0.000003476361     0.000002474111
       6       -0.000000189595    -0.000009099048     0.000007090516
       7        0.000007027039     0.000002618799     0.000001709910
       8        0.000103351659    -0.000404748418    -0.001008128729
       9       -0.000033025685     0.000008844214    -0.000006548597
      10       -0.000007109329     0.000026249974     0.000011600483
      11        0.000002183181     0.000003316996     0.000006749329
      12        0.000003468661    -0.000005935537    -0.000003771443
      13        0.000006307557    -0.000007395633     0.000000162465
      14        0.000003639000     0.000007041335    -0.000001232141
      15        0.000006899745    -0.000001168560    -0.000005821093
      16       -0.000007390088    -0.000009178109     0.000004081897
      17        0.000002965864    -0.000001110503    -0.000009477767

  **** Optimization is complete! (in 22 steps) ****
    Final optimized geometry and variables:
    Molecular point group: c1

    Geometry (in Angstrom), charge = 0, multiplicity = 1:

    O           -1.475728995623    -1.400414308220    -0.554769661474
    C           -1.003740920657    -0.676070937001     0.243656398633
    C           -1.068738036378    -0.919193115317     1.729013057353
    O           -0.421380778910     0.478739139537    -0.120804685341
    H           -0.074442271562    -1.008960754049     2.147736714744
    H           -1.620851449589    -1.824410199471     1.922529558802
    H           -1.551273075002    -0.076707781317     2.208230286359
    C            0.991232225527     0.642734067019    -0.020739312537
    C            1.259636737070     2.118945493245    -0.230375533688
    C            1.704009788488    -0.236267485711    -1.034496252304
    H            1.306741002155     0.367535400598     0.980455067928
    H            0.732878521246     2.709553588268     0.507656903383
    H            2.320148892689     2.322809626820    -0.144143648505
    H            0.927016805738     2.424849079567    -1.214400067564
    H            2.775712809352    -0.093551916754    -0.957848917683
    H            1.490776764691    -1.284981707848    -0.870228212724
    H            1.388388958809     0.016405283143    -2.038818706508

  Mulliken Charges: (a.u.)
   Center  Symbol    Alpha    Beta     Spin     Total
       1     O     4.17235  4.17235  0.00000 -0.34471
       2     C     2.80855  2.80855  0.00000  0.38289
       3     C     3.15240  3.15240  0.00000 -0.30480
       4     O     4.17002  4.17002  0.00000 -0.34005
       5     H     0.45076  0.45076  0.00000  0.09847
       6     H     0.43354  0.43354  0.00000  0.13292
       7     H     0.44255  0.44255  0.00000  0.11489
       8     C     2.94334  2.94334  0.00000  0.11333
       9     C     3.13739  3.13739  0.00000 -0.27477
      10     C     3.14147  3.14147  0.00000 -0.28295
      11     H     0.45469  0.45469  0.00000  0.09062
      12     H     0.44595  0.44595  0.00000  0.10809
      13     H     0.45597  0.45597  0.00000  0.08806
      14     H     0.44741  0.44741  0.00000  0.10519
      15     H     0.45038  0.45038  0.00000  0.09924
      16     H     0.44745  0.44745  0.00000  0.10511
      17     H     0.44577  0.44577  0.00000  0.10846

   Total alpha = 28.00000, Total beta = 28.00000, Total charge = -0.00000

*** Psi4 exiting successfully. Buy a developer a beer!
