  ==> Input File <==

--------------------------------------------------------------------------
set {
	reference rhf
	basis 6-31G*
}

set_num_threads( 4 )
memory 2 gb

molecule MOL {
0 1

O	 -1.276010	 1.052711	 -0.768302
C	 -1.204840	 0.067374	 -0.106123
C	 -2.388195	 -0.672128	 0.458071
O	 -0.067104	 -0.527208	 0.221609
H	 -2.388023	 -1.694060	 0.097175
H	 -3.300579	 -0.174919	 0.164318
H	 -2.315377	 -0.706351	 1.539059
C	 1.170111	 0.034140	 -0.238951
C	 1.877377	 0.556458	 0.999009
C	 0.890744	 1.118853	 -1.267541
H	 1.746127	 -0.759276	 -0.691945
H	 2.042761	 -0.243527	 1.711694
H	 2.839409	 0.979626	 0.729276
H	 1.286469	 1.327559	 1.481590
H	 1.822179	 1.563620	 -1.603141
H	 0.382655	 0.707858	 -2.130619
H	 0.274444	 1.901038	 -0.835837

	symmetry c1
}
set optking {
	frozen_dihedral = ("
		11 8 4 2
	")
}

ee = optimize('scf')
oeprop('DIPOLE', 'QUADRUPOLE', 'MULLIKEN_CHARGES')
f=open( 'psi4out.xyz', 'w' )
f.write( "17  " )
f.write( str(ee) + "\n" )
f.write( MOL.save_string_xyz() )
f.close()
--------------------------------------------------------------------------

    Molecular point group: c1
  Charge       = 0
  Multiplicity = 1
  Basis Set: 6-31G*
  Basis Set:
  @DF-RHF Final Energy:  -344.86709782368308
    Total Energy =                       -344.8670978236831957
    Molecular point group: c1
  Basis Set: 6-31G*
  Basis Set:
  Basis Set: 6-31G*
  Basis Set:
  @DF-RHF Final Energy:  -344.89477832915895
    Total Energy =                       -344.8947783291591804
  Basis Set: 6-31G*
  Basis Set:
  Basis Set: 6-31G*
  Basis Set:
  @DF-RHF Final Energy:  -344.90047427454562
    Total Energy =                       -344.9004742745454450
  Basis Set: 6-31G*
  Basis Set:
  Basis Set: 6-31G*
  Basis Set:
  @DF-RHF Final Energy:  -344.89646137915361
    Total Energy =                       -344.8964613791534930
  Basis Set: 6-31G*
  Basis Set:
  @DF-RHF Final Energy:  -344.90321675519607
    Total Energy =                       -344.9032167551960129
  @DF-RHF Final Energy:  -344.90347990804105
    Total Energy =                       -344.9034799080415041
  Basis Set: 6-31G*
  Basis Set:
  @DF-RHF Final Energy:  -344.90351954667761
    Total Energy =                       -344.9035195466781261
  Basis Set: 6-31G*
  Basis Set:
  Basis Set: 6-31G*
  Basis Set:
  @DF-RHF Final Energy:  -344.90355729077589
    Total Energy =                       -344.9035572907754954
  Basis Set: 6-31G*
  Basis Set:
  Basis Set: 6-31G*
  Basis Set:
  @DF-RHF Final Energy:  -344.90356045214696
    Total Energy =                       -344.9035604521472465
  Basis Set: 6-31G*
  Basis Set:
  Charge       = 0
  Multiplicity = 1
  Basis Set: 6-31G*
  Basis Set:

    Orbital Energies (a.u.)
    -----------------------

    Doubly Occupied:

       1A    -20.595684     2A    -20.538674     3A    -11.374827
       4A    -11.297225     5A    -11.229284     6A    -11.219785
       7A    -11.212886     8A     -1.458100     9A     -1.360420
      10A     -1.079557    11A     -1.001872    12A     -0.946326
      13A     -0.866126    14A     -0.737359    15A     -0.688059
      16A     -0.673885    17A     -0.657291    18A     -0.615371
      19A     -0.583230    20A     -0.579517    21A     -0.564931
      22A     -0.549620    23A     -0.532523    24A     -0.516090
      25A     -0.506996    26A     -0.481363    27A     -0.438065
      28A     -0.427700

  @DF-RHF Final Energy:  -344.90356128234311

   => Energetics <=

    Nuclear Repulsion Energy =            323.9783034663888088
    One-Electron Energy =               -1112.2981933450437282
    Two-Electron Energy =                 443.4163285963113594
    DFT Exchange-Correlation Energy =       0.0000000000000000
    Empirical Dispersion Energy =           0.0000000000000000
    PCM Polarization Energy =               0.0000000000000000
    EFP Energy =                            0.0000000000000000
    Total Energy =                       -344.9035612823436168
    Molecular point group: c1
  Basis Set: 6-31G*
  Basis Set:

  -Total Gradient:
     Atom            X                  Y                   Z
    ------   -----------------  -----------------  -----------------
       1       -0.000040185439     0.000052862762    -0.000010599789
       2       -0.000251102439    -0.001761907213    -0.002448918349
       3        0.000013990005    -0.000036643032    -0.000065112356
       4        0.000092572274     0.002765366033     0.003448909503
       5        0.000006366317    -0.000005649624     0.000019320253
       6        0.000018993116     0.000019246297    -0.000000463735
       7       -0.000002005582     0.000017836068     0.000025786462
       8        0.001311619603    -0.001669258307     0.001784501713
       9        0.000012264497     0.000003189069    -0.000019556127
      10        0.000013456909     0.000028576406     0.000011392472
      11       -0.001188525259     0.000594152639    -0.002719601049
      12       -0.000002066097     0.000000167860    -0.000004308646
      13       -0.000002807339    -0.000001574259     0.000000448244
      14       -0.000008016981    -0.000004055210    -0.000006446463
      15        0.000007001994    -0.000003925749    -0.000006770839
      16        0.000004997801    -0.000003646154     0.000002762349
      17        0.000013446626     0.000005262413    -0.000011343644

  **** Optimization is complete! (in 10 steps) ****
    Final optimized geometry and variables:
    Molecular point group: c1

    Geometry (in Angstrom), charge = 0, multiplicity = 1:

    O           -1.374675367012     0.857599636268    -0.513114093224
    C           -1.147469984915    -0.172045523134     0.034070917672
    C           -2.213781056002    -1.098008015854     0.562015624636
    O            0.053178924900    -0.667235508738     0.289328141316
    H           -2.128856939698    -2.066333202151     0.082425527450
    H           -3.188016444443    -0.673594089774     0.370172034012
    H           -2.076072450300    -1.246526508564     1.626749367827
    C            1.322807752545    -0.160230981031    -0.165430310870
    C            2.077880982654     0.317375863894     1.063990924609
    C            1.291370133033     0.884462812417    -1.275490621741
    H            1.799406780712    -1.042784635560    -0.572713628296
    H            2.108660835740    -0.459390542822     1.819080861188
    H            3.096796585143     0.583257301627     0.801864790860
    H            1.594691334905     1.191430383349     1.488320894200
    H            2.316013270177     1.026176033508    -1.608005679516
    H            0.706206847081     0.553337186130    -2.122910180060
    H            0.898576892587     1.833276751046    -0.942797842311

  Mulliken Charges: (a.u.)
   Center  Symbol    Alpha    Beta     Spin     Total
       1     O     4.28296  4.28296  0.00000 -0.56591
       2     C     2.61872  2.61872  0.00000  0.76255
       3     C     3.28006  3.28006  0.00000 -0.56012
       4     O     4.32318  4.32318  0.00000 -0.64635
       5     H     0.40252  0.40252  0.00000  0.19497
       6     H     0.39850  0.39850  0.00000  0.20300
       7     H     0.40160  0.40160  0.00000  0.19679
       8     C     2.91397  2.91397  0.00000  0.17206
       9     C     3.24360  3.24360  0.00000 -0.48720
      10     C     3.24816  3.24816  0.00000 -0.49631
      11     H     0.41221  0.41221  0.00000  0.17557
      12     H     0.41091  0.41091  0.00000  0.17818
      13     H     0.41848  0.41848  0.00000  0.16305
      14     H     0.41279  0.41279  0.00000  0.17442
      15     H     0.42250  0.42250  0.00000  0.15500
      16     H     0.40876  0.40876  0.00000  0.18249
      17     H     0.40109  0.40109  0.00000  0.19782

   Total alpha = 28.00000, Total beta = 28.00000, Total charge =  0.00000
