                              Psi4 1.0.54 Driver

  ==> Input File <==

--------------------------------------------------------------------------
set {
	reference rhf
	basis cc-pvtz
}

set_num_threads( 4 )
memory 2 gb

molecule MOL {
0 1

H	 0.047672	 -0.202602	 -0.559737
N	 -0.625934	 -0.663929	 -0.000707
C	 -1.978635	 -0.158664	 0.001017
C	 -0.227263	 -1.736104	 0.719074
H	 -2.519057	 -0.493535	 -0.876362
H	 -1.938890	 0.917202	 -0.004137
H	 -2.514266	 -0.485137	 0.884506
C	 1.234924	 -2.091593	 0.562691
O	 -0.962491	 -2.364884	 1.421321
H	 1.860913	 -1.265589	 0.879634
H	 1.450755	 -2.957725	 1.166264
H	 1.463605	 -2.307944	 -0.474380

	symmetry c1
}
set optking {
	frozen_dihedral = ("
		4 2 3 5
	")
}

ee,wfn = optimize('scf', return_wfn=True)
oeprop( wfn, 'DIPOLE', 'QUADRUPOLE', 'MULLIKEN_CHARGES')
f=open( 'psi4out.xyz', 'w' )
f.write( "12  " )
f.write( str(ee) + "\n" )
f.write( MOL.save_string_xyz() )
f.close()
--------------------------------------------------------------------------

    Molecular point group: c1
  Charge       = 0
  Multiplicity = 1
  Basis Set: CC-PVTZ
  Basis Set:
  @DF-RHF Final Energy:  -247.10070858358998
    Total Energy =                       -247.1007085835897783
    Molecular point group: c1
  Basis Set: CC-PVTZ
  Basis Set:
  Basis Set: CC-PVTZ
  Basis Set:
  @DF-RHF Final Energy:  -247.10093811309150
    Total Energy =                       -247.1009381130916154
  Basis Set: CC-PVTZ
  Basis Set:
  Basis Set: CC-PVTZ
  Basis Set:
  @DF-RHF Final Energy:  -247.10086461724893
    Total Energy =                       -247.1008646172490444
  Basis Set: CC-PVTZ
  Basis Set:
  Basis Set: CC-PVTZ
  Basis Set:
  @DF-RHF Final Energy:  -247.10104005842581
    Total Energy =                       -247.1010400584260083
  Basis Set: CC-PVTZ
  Basis Set:
  Basis Set: CC-PVTZ
  Basis Set:
  @DF-RHF Final Energy:  -247.10105096407202
    Total Energy =                       -247.1010509640720443
  Basis Set: CC-PVTZ
  Basis Set:
  Basis Set: CC-PVTZ
  Basis Set:
  @DF-RHF Final Energy:  -247.10106445471231
    Total Energy =                       -247.1010644547124002
  Basis Set: CC-PVTZ
  Basis Set:
  Basis Set: CC-PVTZ
  Basis Set:
  @DF-RHF Final Energy:  -247.10106570924617
    Total Energy =                       -247.1010657092461997
  Basis Set: CC-PVTZ
  Basis Set:
  Charge       = 0
  Multiplicity = 1
  Basis Set: CC-PVTZ
  Basis Set:

    Orbital Energies (a.u.)
    -----------------------

    Doubly Occupied:

       1A    -20.506895     2A    -15.574779     3A    -11.336589
       4A    -11.252713     5A    -11.228088     6A     -1.388661
       7A     -1.230921     8A     -1.016643     9A     -0.932861
      10A     -0.788237    11A     -0.690899    12A     -0.651591
      13A     -0.635489    14A     -0.586434    15A     -0.583000
      16A     -0.555898    17A     -0.545446    18A     -0.510625
      19A     -0.417519    20A     -0.389549

  @DF-RHF Final Energy:  -247.10106637302127

   => Energetics <=

    Nuclear Repulsion Energy =            181.6749135633660046
    One-Electron Energy =                -695.9062918898969201
    Two-Electron Energy =                 267.1303119535095902
    DFT Exchange-Correlation Energy =       0.0000000000000000
    Empirical Dispersion Energy =           0.0000000000000000
    PCM Polarization Energy =               0.0000000000000000
    EFP Energy =                            0.0000000000000000
    Total Energy =                       -247.1010663730213537
    Molecular point group: c1
  Basis Set: CC-PVTZ
  Basis Set:

  -Total Gradient:
     Atom            X                  Y                   Z
    ------   -----------------  -----------------  -----------------
       1       -0.000009297705     0.000004350752    -0.000022949440
       2       -0.000035378822    -0.000171981898    -0.000207584873
       3       -0.000049126785    -0.000136028409     0.000167662046
       4        0.000024437202     0.000092148479     0.000144513457
       5        0.000051671128     0.000182888012    -0.000101633119
       6       -0.000027649904     0.000010001513     0.000010870802
       7        0.000018907965    -0.000006969851    -0.000000320509
       8       -0.000017308420    -0.000043082197    -0.000032081209
       9        0.000022799992     0.000037588905     0.000010536851
      10       -0.000004449072     0.000015216544     0.000030078671
      11        0.000002122008    -0.000003203791     0.000004463653
      12        0.000023272412     0.000019071937    -0.000003556330

  **** Optimization is complete! (in 8 steps) ****
    Final optimized geometry and variables:
    Molecular point group: c1

    Geometry (in Angstrom), charge = 0, multiplicity = 1:

    H            0.538730163505     1.139846648252    -1.166717011092
    N           -0.111388707187     0.723326885317    -0.547844623659
    C           -1.478843941832     1.186732830617    -0.574560739904
    C            0.298910895208    -0.330668799651     0.192244271531
    H           -2.007106310822     0.834716239063    -1.453820468282
    H           -1.502593741178     2.268823678074    -0.566318108404
    H           -1.985404819213     0.818014885310     0.301447452365
    C            1.763221481741    -0.679329217040     0.039328701896
    O           -0.428582303255    -0.940355043321     0.918684197202
    H            2.384719398081     0.167684132918     0.305148578671
    H            1.993865226465    -1.511697754660     0.683719752501
    H            1.982260493811    -0.947779147579    -0.987803408254

  Mulliken Charges: (a.u.)
   Center  Symbol    Alpha    Beta     Spin     Total
       1     H     0.41081  0.41081  0.00000  0.17838
       2     N     3.62100  3.62100  0.00000 -0.24201
       3     C     3.08412  3.08412  0.00000 -0.16824
       4     C     2.83689  2.83689  0.00000  0.32622
       5     H     0.45680  0.45680  0.00000  0.08640
       6     H     0.45497  0.45497  0.00000  0.09006
       7     H     0.43290  0.43290  0.00000  0.13421
       8     C     3.15374  3.15374  0.00000 -0.30748
       9     O     4.21526  4.21526  0.00000 -0.43052
      10     H     0.44964  0.44964  0.00000  0.10072
      11     H     0.43355  0.43355  0.00000  0.13291
      12     H     0.45032  0.45032  0.00000  0.09936

   Total alpha = 20.00000, Total beta = 20.00000, Total charge = -0.00000

*** Psi4 exiting successfully. Buy a developer a beer!
