                              Psi4 1.0.54 Driver

  ==> Input File <==

--------------------------------------------------------------------------
set {
	reference rhf
	basis cc-pvtz
}

set_num_threads( 4 )
memory 2 gb

molecule MOL {
0 1

H	 -3.162190	 0.493205	 -0.000107
C	 -2.363908	 -0.234727	 0.000005
O	 -1.158738	 0.454634	 -0.000087
H	 -2.464314	 -0.863616	 -0.882153
H	 -2.464327	 -0.863359	 0.882345
C	 -0.036961	 -0.345069	 0.205844
C	 1.205403	 0.522352	 0.183368
H	 0.024518	 -1.109581	 -0.568998
H	 -0.116928	 -0.862161	 1.162329
C	 2.481556	 -0.282445	 0.402654
H	 1.248677	 1.039142	 -0.768988
H	 1.108373	 1.284551	 0.948605
H	 2.610918	 -1.036039	 -0.367053
H	 3.352450	 0.361080	 0.381696
H	 2.469810	 -0.788742	 1.362130

	symmetry c1
}
set optking {
	frozen_dihedral = ("
		6 3 2 4
	")
}

ee,wfn = optimize('scf', return_wfn=True)
oeprop( wfn, 'DIPOLE', 'QUADRUPOLE', 'MULLIKEN_CHARGES')
f=open( 'psi4out.xyz', 'w' )
f.write( "15  " )
f.write( str(ee) + "\n" )
f.write( MOL.save_string_xyz() )
f.close()
--------------------------------------------------------------------------

    Molecular point group: c1
  Charge       = 0
  Multiplicity = 1
  Basis Set: CC-PVTZ
  Basis Set:
  @DF-RHF Final Energy:  -232.22800630673595
    Total Energy =                       -232.2280063067360629
    Molecular point group: c1
  Basis Set: CC-PVTZ
  Basis Set:
  Basis Set: CC-PVTZ
  Basis Set:
  @DF-RHF Final Energy:  -232.22801562722614
    Total Energy =                       -232.2280156272260569
  Basis Set: CC-PVTZ
  Basis Set:
  Charge       = 0
  Multiplicity = 1
  Basis Set: CC-PVTZ
  Basis Set:

    Orbital Energies (a.u.)
    -----------------------

    Doubly Occupied:

       1A    -20.547400     2A    -11.264438     3A    -11.261735
       4A    -11.212760     5A    -11.210732     6A     -1.381592
       7A     -1.058456     8A     -0.956205     9A     -0.877301
      10A     -0.809510    11A     -0.677039    12A     -0.655746
      13A     -0.632189    14A     -0.608667    15A     -0.565021
      16A     -0.541414    17A     -0.503700    18A     -0.490070
      19A     -0.478487    20A     -0.462835    21A     -0.416577

  @DF-RHF Final Energy:  -232.22801631242370

   => Energetics <=

    Nuclear Repulsion Energy =            189.9773048715288439
    One-Electron Energy =                -691.1868963349456862
    Two-Electron Energy =                 268.9815751509930806
    DFT Exchange-Correlation Energy =       0.0000000000000000
    Empirical Dispersion Energy =           0.0000000000000000
    PCM Polarization Energy =               0.0000000000000000
    EFP Energy =                            0.0000000000000000
    Total Energy =                       -232.2280163124237333
    Molecular point group: c1
  Basis Set: CC-PVTZ
  Basis Set:

  -Total Gradient:
     Atom            X                  Y                   Z
    ------   -----------------  -----------------  -----------------
       1        0.000002534875    -0.000008638961    -0.000004886800
       2        0.000674505783    -0.001211936418     0.001217068082
       3       -0.000044092339     0.000072303093    -0.001638081673
       4       -0.000571862759     0.000998947239    -0.000644571358
       5        0.000022129889     0.000016671049     0.000016734505
       6       -0.000067892605     0.000119324739     0.001090275964
       7       -0.000014524331     0.000007860236    -0.000009208283
       8       -0.000003833662     0.000008726871    -0.000010741713
       9        0.000009353845    -0.000006188372    -0.000004590872
      10       -0.000009803579    -0.000007721632    -0.000013358763
      11        0.000009800700     0.000006836618    -0.000003915404
      12       -0.000003794328     0.000002226666     0.000002271667
      13        0.000001849226    -0.000002988242     0.000000439262
      14       -0.000002551363     0.000004244905    -0.000000754013
      15       -0.000001819358     0.000000332209     0.000003319401

  **** Optimization is complete! (in 3 steps) ****
    Final optimized geometry and variables:
    Molecular point group: c1

    Geometry (in Angstrom), charge = 0, multiplicity = 1:

    H           -3.156324379936     0.482881910660    -0.160101106813
    C           -2.358629085225    -0.246289300513    -0.156973818024
    O           -1.152968738989     0.442500631827    -0.150073667798
    H           -2.458065443245    -0.867254361484    -1.044894404360
    H           -2.466400872622    -0.876042526342     0.723167772998
    C           -0.029828249609    -0.356933617351     0.049617475044
    C            1.211936235737     0.511302236434     0.022153375784
    H            0.029936107095    -1.121328495750    -0.725818926392
    H           -0.105934175376    -0.874342435532     1.006037971892
    C            2.489164667323    -0.292350554985     0.239838336657
    H            1.252829348551     1.026432997778    -0.931271015105
    H            1.116213991927     1.274924208574     0.786242807656
    H            2.617011040133    -1.047482668265    -0.528675864080
    H            3.359766564849     0.351584269956     0.215454722096
    H            2.479996305559    -0.796727261421     1.200419203222

  Mulliken Charges: (a.u.)
   Center  Symbol    Alpha    Beta     Spin     Total
       1     H     0.44743  0.44743  0.00000  0.10513
       2     C     3.03331  3.03331  0.00000 -0.06662
       3     O     4.17180  4.17180  0.00000 -0.34359
       4     H     0.47010  0.47010  0.00000  0.05981
       5     H     0.47346  0.47346  0.00000  0.05308
       6     C     2.95608  2.95608  0.00000  0.08783
       7     C     3.08025  3.08025  0.00000 -0.16050
       8     H     0.47664  0.47664  0.00000  0.04672
       9     H     0.47494  0.47494  0.00000  0.05011
      10     C     3.15581  3.15581  0.00000 -0.31163
      11     H     0.45105  0.45105  0.00000  0.09789
      12     H     0.45116  0.45116  0.00000  0.09768
      13     H     0.45582  0.45582  0.00000  0.08836
      14     H     0.44627  0.44627  0.00000  0.10746
      15     H     0.45587  0.45587  0.00000  0.08826

   Total alpha = 21.00000, Total beta = 21.00000, Total charge = -0.00000

*** Psi4 exiting successfully. Buy a developer a beer!
