                              Psi4 1.0.54 Driver

  ==> Input File <==

--------------------------------------------------------------------------
set {
	reference rhf
	basis cc-pvtz
}

set_num_threads( 4 )
memory 2 gb

molecule MOL {
0 1

H	 -2.492252	 -1.762005	 -2.752388
O	 -2.469704	 -1.402360	 -1.885011
C	 -1.171345	 -0.970440	 -1.574970
C	 -1.175688	 -0.398187	 -0.171891
H	 -0.469789	 -1.799915	 -1.634666
H	 -0.843068	 -0.212390	 -2.283084
C	 0.196029	 0.106276	 0.266738
H	 -1.526172	 -1.165547	 0.511146
H	 -1.900343	 0.408784	 -0.132017
C	 1.330220	 -0.826136	 -0.155230
H	 0.359542	 1.097229	 -0.145561
H	 0.212134	 0.218135	 1.348778
C	 2.719700	 -0.407669	 0.328325
H	 1.339388	 -0.911200	 -1.239363
H	 1.119001	 -1.821953	 0.224128
C	 3.241564	 0.893452	 -0.276737
H	 3.418299	 -1.204729	 0.093035
H	 2.711776	 -0.323368	 1.411960
H	 3.254204	 0.841071	 -1.360784
H	 2.634460	 1.745075	 0.005842
H	 4.254264	 1.092401	 0.054971

	symmetry c1
}
set optking {
	frozen_dihedral = ("
		8 4 7 10
	")
}

ee,wfn = optimize('scf', return_wfn=True)
oeprop( wfn, 'DIPOLE', 'QUADRUPOLE', 'MULLIKEN_CHARGES')
f=open( 'psi4out.xyz', 'w' )
f.write( "21  " )
f.write( str(ee) + "\n" )
f.write( MOL.save_string_xyz() )
f.close()
--------------------------------------------------------------------------

    Molecular point group: c1
  Charge       = 0
  Multiplicity = 1
  Basis Set: CC-PVTZ
  Basis Set:
  @DF-RHF Final Energy:  -310.32703048651524
    Total Energy =                       -310.3270304865154117
    Molecular point group: c1
  Basis Set: CC-PVTZ
  Basis Set:
  Basis Set: CC-PVTZ
  Basis Set:
  @DF-RHF Final Energy:  -310.14909512092942
    Total Energy =                       -310.1490951209290756
  Basis Set: CC-PVTZ
  Basis Set:
  Basis Set: CC-PVTZ
  Basis Set:
  @DF-RHF Final Energy:  -310.26726237365017
    Total Energy =                       -310.2672623736501691
  Basis Set: CC-PVTZ
  Basis Set:
  Basis Set: CC-PVTZ
  Basis Set:
  @DF-RHF Final Energy:  -310.32451805204903
    Total Energy =                       -310.3245180520486883
  Basis Set: CC-PVTZ
  Basis Set:
  @DF-RHF Final Energy:  -310.32853886114879
    Total Energy =                       -310.3285388611490134
  @DF-RHF Final Energy:  -310.32929809210680
    Total Energy =                       -310.3292980921069102
  Basis Set: CC-PVTZ
  Basis Set:
  @DF-RHF Final Energy:  -310.32935143639139
    Total Energy =                       -310.3293514363913346
  Basis Set: CC-PVTZ
  Basis Set:
  Basis Set: CC-PVTZ
  Basis Set:
  @DF-RHF Final Energy:  -310.32933673669822
    Total Energy =                       -310.3293367366985080
  Basis Set: CC-PVTZ
  Basis Set:
  Basis Set: CC-PVTZ
  Basis Set:
  @DF-RHF Final Energy:  -310.32936481846565
    Total Energy =                       -310.3293648184656490
  Basis Set: CC-PVTZ
  Basis Set:
  Charge       = 0
  Multiplicity = 1
  Basis Set: CC-PVTZ
  Basis Set:

    Orbital Energies (a.u.)
    -----------------------

    Doubly Occupied:

       1A    -20.545184     2A    -11.264791     3A    -11.214294
       4A    -11.213480     5A    -11.212818     6A    -11.209024
       7A    -11.206892     8A     -1.363000     9A     -1.087415
      10A     -1.032663    11A     -0.952099    12A     -0.886245
      13A     -0.815398    14A     -0.766052    15A     -0.699281
      16A     -0.658048    17A     -0.622368    18A     -0.608606
      19A     -0.595280    20A     -0.560498    21A     -0.548146
      22A     -0.517500    23A     -0.517176    24A     -0.495661
      25A     -0.479109    26A     -0.457557    27A     -0.451848
      28A     -0.446633    29A     -0.433708

  @DF-RHF Final Energy:  -310.32936490045819

   => Energetics <=

    Nuclear Repulsion Energy =            317.4871119809012612
    One-Electron Energy =               -1049.9114154658877851
    Two-Electron Energy =                 422.0949385845282791
    DFT Exchange-Correlation Energy =       0.0000000000000000
    Empirical Dispersion Energy =           0.0000000000000000
    PCM Polarization Energy =               0.0000000000000000
    EFP Energy =                            0.0000000000000000
    Total Energy =                       -310.3293649004581880
    Molecular point group: c1
  Basis Set: CC-PVTZ
  Basis Set:

  -Total Gradient:
     Atom            X                  Y                   Z
    ------   -----------------  -----------------  -----------------
       1        0.000002423399     0.000008587338    -0.000002972347
       2       -0.000006799907    -0.000005155796     0.000010411681
       3        0.000018175737     0.000005523243    -0.000003889925
       4        0.003708217016    -0.003493631414    -0.003835326203
       5        0.000001752589    -0.000000481284     0.000000430980
       6       -0.000002888727    -0.000004780876     0.000002715241
       7       -0.000384435071    -0.000506773707     0.005303640400
       8       -0.003078054559     0.003105016790     0.001909745729
       9        0.000001867798     0.000001643950     0.000003720407
      10       -0.000265026627     0.000888077290    -0.003380726246
      11        0.000000523803     0.000000602001     0.000000008271
      12       -0.000002062174    -0.000004607638    -0.000002964189
      13        0.000006555848     0.000002194786    -0.000000335480
      14       -0.000001294602     0.000003882283     0.000002570402
      15        0.000003014494    -0.000001452645    -0.000001465995
      16       -0.000000803535     0.000002108182    -0.000000194472
      17       -0.000001992172    -0.000000619085     0.000000048035
      18       -0.000004064343    -0.000001720528    -0.000003571325
      19        0.000001837824     0.000000623039    -0.000000863438
      20        0.000002979532    -0.000001267221     0.000000143579
      21        0.000000073672     0.000002231297    -0.000001125104

  **** Optimization is complete! (in 10 steps) ****
    Final optimized geometry and variables:
    Molecular point group: c1

    Geometry (in Angstrom), charge = 0, multiplicity = 1:

    H           -2.453530426284    -2.602569213536    -1.651441854442
    O           -2.491994049297    -2.025578030494    -0.911378908808
    C           -1.305665697964    -1.280791734639    -0.819196847833
    C           -1.394013104493    -0.415186118700     0.421767582185
    H           -0.448967426460    -1.945344646661    -0.766707933399
    H           -1.181995092860    -0.652867613387    -1.699990876292
    C           -0.258026235253     0.598639950655     0.602522522162
    H           -1.482774444562    -1.044435140172     1.301846488933
    H           -2.332358312001     0.127541282660     0.368124300794
    C            1.150858629277     0.056877461348     0.352869699448
    H           -0.434612516463     1.435861524993    -0.065607104401
    H           -0.315762637382     0.999609713088     1.609670777290
    C            2.273096760998     1.029014621075     0.722853621322
    H            1.259122832321    -0.221278800047    -0.691443199115
    H            1.287389685549    -0.856158270315     0.927196362625
    C            2.323965141736     2.297960885276    -0.124828619681
    H            3.221747152997     0.509568952950     0.627769035848
    H            2.180287301955     1.299893674208     1.771180082488
    H            2.405338441690     2.058371942119    -1.180431439464
    H            1.440632992433     2.910654475003     0.007933317462
    H            3.182618525717     2.903402226987     0.141996124235

  Mulliken Charges: (a.u.)
   Center  Symbol    Alpha    Beta     Spin     Total
       1     H     0.39730  0.39730  0.00000  0.20541
       2     O     4.19571  4.19571  0.00000 -0.39142
       3     C     2.96551  2.96551  0.00000  0.06898
       4     C     3.09012  3.09012  0.00000 -0.18024
       5     H     0.47081  0.47081  0.00000  0.05838
       6     H     0.47325  0.47325  0.00000  0.05350
       7     C     3.10953  3.10953  0.00000 -0.21906
       8     H     0.44981  0.44981  0.00000  0.10039
       9     H     0.44718  0.44718  0.00000  0.10565
      10     C     3.10147  3.10147  0.00000 -0.20294
      11     H     0.45099  0.45099  0.00000  0.09803
      12     H     0.44754  0.44754  0.00000  0.10491
      13     C     3.09006  3.09006  0.00000 -0.18012
      14     H     0.45305  0.45305  0.00000  0.09389
      15     H     0.44764  0.44764  0.00000  0.10473
      16     C     3.15291  3.15291  0.00000 -0.30582
      17     H     0.44850  0.44850  0.00000  0.10300
      18     H     0.45424  0.45424  0.00000  0.09153
      19     H     0.45558  0.45558  0.00000  0.08884
      20     H     0.45275  0.45275  0.00000  0.09450
      21     H     0.44606  0.44606  0.00000  0.10789

   Total alpha = 29.00000, Total beta = 29.00000, Total charge =  0.00000

*** Psi4 exiting successfully. Buy a developer a beer!
