  ==> Input File <==

--------------------------------------------------------------------------
set {
	reference rhf
	basis 6-31G*
}

set_num_threads( 1 )
memory 2 gb

molecule MOL {
0 1

H	 -3.892951	 0.981613	 -0.358725
C	 -3.196921	 0.361773	 0.172313
C	 -2.076860	 -0.007332	 -0.404944
H	 -3.439953	 0.057760	 1.173024
O	 -1.933802	 -1.227961	 -0.984996
H	 -1.217375	 0.636226	 -0.470630
C	 -0.671539	 -1.606878	 -1.415071
C	 0.127673	 -2.251135	 -0.304897
H	 -0.099448	 -0.770793	 -1.801552
H	 -0.796681	 -2.337912	 -2.200191
F	 1.308521	 -2.627969	 -0.773299
F	 0.341572	 -1.413005	 0.695910
F	 -0.473620	 -3.315836	 0.184234

	symmetry c1
}
set optking {
	frozen_dihedral = ("
		11 8 7 9,
		3 5 7 9,
		6 3 5 7
	")
}

ee = energy('scf')
oeprop('DIPOLE', 'QUADRUPOLE', 'MULLIKEN_CHARGES')
f=open( 'psi4out.xyz', 'w' )
f.write( "13  " )
f.write( str(ee) + "\n" )
f.write( MOL.save_string_xyz() )
f.close()
--------------------------------------------------------------------------

    Molecular point group: c1

    Geometry (in Angstrom), charge = 0, multiplicity = 1:

       Center              X                  Y                   Z               Mass
    ------------   -----------------  -----------------  -----------------  -----------------
           H         -3.195398802610     2.591524660637    -0.034649999537     1.007825032070
           C         -2.499368802610     1.971684660637     0.496388000463    12.000000000000
           C         -1.379307802610     1.602579660637    -0.080868999537    12.000000000000
           H         -2.742400802610     1.667671660637     1.497099000463     1.007825032070
           O         -1.236249802610     0.381950660637    -0.660920999537    15.994914619560
           H         -0.519822802610     2.246137660637    -0.146554999537     1.007825032070
           C          0.026013197390     0.003033660637    -1.090995999537    12.000000000000
           C          0.825225197390    -0.641223339363     0.019178000463    12.000000000000
           H          0.598104197390     0.839118660637    -1.477476999537     1.007825032070
           H         -0.099128802610    -0.728000339363    -1.876115999537     1.007825032070
           F          2.006073197390    -1.018057339363    -0.449223999537    18.998403224000
           F          1.039124197390     0.196906660637     1.019985000463    18.998403224000
           F          0.223932197390    -1.705924339363     0.508309000463    18.998403224000

  Charge       = 0
  Multiplicity = 1
  Basis Set: 6-31G*
  Basis Set:

    Orbital Energies (a.u.)
    -----------------------

    Doubly Occupied:

       1A    -26.355310     2A    -26.352085     3A    -26.348820
       4A    -20.639179     5A    -11.513361     6A    -11.345840
       7A    -11.326724     8A    -11.173039     9A     -1.750850
      10A     -1.649456    11A     -1.646661    12A     -1.462519
      13A     -1.094204    14A     -1.019921    15A     -0.934109
      16A     -0.846016    17A     -0.840268    18A     -0.829824
      19A     -0.803198    20A     -0.732410    21A     -0.719387
      22A     -0.705469    23A     -0.680560    24A     -0.668269
      25A     -0.661628    26A     -0.651865    27A     -0.646836
      28A     -0.586399    29A     -0.576443    30A     -0.539568
      31A     -0.509524    32A     -0.271076

  @DF-RHF Final Energy:  -527.40584953475047

   => Energetics <=

    Nuclear Repulsion Energy =            413.4966651996875271
    One-Electron Energy =               -1550.0435789296836901
    Two-Electron Energy =                 609.1410641952459173
    DFT Exchange-Correlation Energy =       0.0000000000000000
    Empirical Dispersion Energy =           0.0000000000000000
    PCM Polarization Energy =               0.0000000000000000
    EFP Energy =                            0.0000000000000000
    Total Energy =                       -527.4058495347501321

  Mulliken Charges: (a.u.)
   Center  Symbol    Alpha    Beta     Spin     Total
       1     H     0.40026  0.40026  0.00000  0.19949
       2     C     3.32216  3.32216  0.00000 -0.64432
       3     C     2.85596  2.85596  0.00000  0.28808
       4     H     0.40173  0.40173  0.00000  0.19653
       5     O     4.26433  4.26433  0.00000 -0.52865
       6     H     0.40485  0.40485  0.00000  0.19030
       7     C     3.07386  3.07386  0.00000 -0.14772
       8     C     2.45552  2.45552  0.00000  1.08897
       9     H     0.40154  0.40154  0.00000  0.19691
      10     H     0.38550  0.38550  0.00000  0.22900
      11     F     4.68150  4.68150  0.00000 -0.36300
      12     F     4.67979  4.67979  0.00000 -0.35958
      13     F     4.67300  4.67300  0.00000 -0.34600

   Total alpha = 32.00000, Total beta = 32.00000, Total charge =  0.00000
