  ==> Input File <==

--------------------------------------------------------------------------
set {
	reference rhf
	basis 6-31G*
}

set_num_threads( 4 )
memory 2 gb

molecule MOL {
0 1

O	 -1.487788	 1.240889	 -0.102860
C	 -1.083277	 0.139568	 0.115197
C	 0.323299	 -0.082943	 0.642902
C	 -1.933017	 -1.084621	 -0.143902
C	 1.355627	 -0.005344	 -0.493127
H	 0.396251	 -1.044647	 1.143147
H	 0.528637	 0.693580	 1.371677
C	 2.477738	 -1.028776	 -0.329715
H	 0.861497	 -0.161492	 -1.449540
H	 1.769526	 0.997307	 -0.515896
H	 3.195691	 -0.949992	 -1.139670
H	 2.089037	 -2.043041	 -0.328382
H	 3.011884	 -0.876709	 0.603350
H	 -1.393885	 -1.806447	 -0.750509
H	 -2.850323	 -0.799888	 -0.640100
H	 -2.169004	 -1.571158	 0.798858

	symmetry c1
}
set optking {
	frozen_dihedral = ("
		9 5 3 2
	")
}

ee = optimize('scf')
oeprop('DIPOLE', 'QUADRUPOLE', 'MULLIKEN_CHARGES')
f=open( 'psi4out.xyz', 'w' )
f.write( "16  " )
f.write( str(ee) + "\n" )
f.write( MOL.save_string_xyz() )
f.close()
--------------------------------------------------------------------------

    Molecular point group: c1
  Charge       = 0
  Multiplicity = 1
  Basis Set: 6-31G*
  Basis Set:
  @DF-RHF Final Energy:  -270.02584104650009
    Total Energy =                       -270.0258410465002044
    Molecular point group: c1
  Basis Set: 6-31G*
  Basis Set:
  Basis Set: 6-31G*
  Basis Set:
  @DF-RHF Final Energy:  -270.02606570207411
    Total Energy =                       -270.0260657020741633
  Basis Set: 6-31G*
  Basis Set:
  Basis Set: 6-31G*
  Basis Set:
  @DF-RHF Final Energy:  -270.02394351027436
    Total Energy =                       -270.0239435102742505
  Basis Set: 6-31G*
  Basis Set:
  Basis Set: 6-31G*
  Basis Set:
  @DF-RHF Final Energy:  -270.02637220802796
    Total Energy =                       -270.0263722080279649
  Basis Set: 6-31G*
  Basis Set:
  @DF-RHF Final Energy:  -270.02645858143256
    Total Energy =                       -270.0264585814326210
  Basis Set: 6-31G*
  Basis Set:
  @DF-RHF Final Energy:  -270.02648046905495
    Total Energy =                       -270.0264804690549454
  Basis Set: 6-31G*
  Basis Set:
  Basis Set: 6-31G*
  Basis Set:
  @DF-RHF Final Energy:  -270.02649346215520
    Total Energy =                       -270.0264934621552584
  Basis Set: 6-31G*
  Basis Set:
  Basis Set: 6-31G*
  Basis Set:
  @DF-RHF Final Energy:  -270.02649673855046
    Total Energy =                       -270.0264967385503496
  Basis Set: 6-31G*
  Basis Set:
  Charge       = 0
  Multiplicity = 1
  Basis Set: 6-31G*
  Basis Set:

    Orbital Energies (a.u.)
    -----------------------

    Doubly Occupied:

       1A    -20.547655     2A    -11.324689     3A    -11.235474
       4A    -11.230056     5A    -11.228419     6A    -11.222010
       7A     -1.393148     8A     -1.082811     9A     -1.012248
      10A     -0.951014    11A     -0.832493    12A     -0.735654
      13A     -0.654587    14A     -0.651438    15A     -0.612927
      16A     -0.602024    17A     -0.582430    18A     -0.560581
      19A     -0.536702    20A     -0.518580    21A     -0.504833
      22A     -0.482718    23A     -0.473002    24A     -0.397736

  @DF-RHF Final Energy:  -270.02649716433916

   => Energetics <=

    Nuclear Repulsion Energy =            237.4328715732000035
    One-Electron Energy =                -836.1722747036205874
    Two-Electron Energy =                 328.7129059660812800
    DFT Exchange-Correlation Energy =       0.0000000000000000
    Empirical Dispersion Energy =           0.0000000000000000
    PCM Polarization Energy =               0.0000000000000000
    EFP Energy =                            0.0000000000000000
    Total Energy =                       -270.0264971643392755
    Molecular point group: c1
  Basis Set: 6-31G*
  Basis Set:

  -Total Gradient:
     Atom            X                  Y                   Z
    ------   -----------------  -----------------  -----------------
       1        0.000010946994    -0.000028537489     0.000005158562
       2       -0.000351109004    -0.002709405662    -0.000196255942
       3        0.000323462072     0.004634164365     0.000078350517
       4       -0.000014039247     0.000001331382     0.000010944110
       5        0.000593686277    -0.005620470637     0.000656217576
       6       -0.000002777356    -0.000002150385    -0.000004103872
       7        0.000001257787    -0.000002855405     0.000013254895
       8        0.000011840513    -0.000013286328     0.000032245191
       9       -0.000570672909     0.003736566901    -0.000577086396
      10       -0.000013989289    -0.000014194257    -0.000011647175
      11       -0.000008450475     0.000010175075    -0.000005378720
      12       -0.000004772127     0.000000178770     0.000001798191
      13        0.000001340111    -0.000001307674    -0.000001924474
      14        0.000018408929     0.000006103555    -0.000009026035
      15        0.000001212967     0.000010836170    -0.000000268674
      16        0.000003654758    -0.000007148384     0.000007722245

  **** Optimization is complete! (in 9 steps) ****
    Final optimized geometry and variables:
    Molecular point group: c1

    Geometry (in Angstrom), charge = 0, multiplicity = 1:

    O           -1.526716992603     1.395826150145     0.179270516479
    C           -1.028274665524     0.312374302386     0.215679518322
    C            0.401255220647     0.108965902782     0.679850096824
    C           -1.793501336501    -0.923894885486    -0.208009281192
    C            1.386554448218     0.071183224932    -0.513734133120
    H            0.460923376558    -0.827064328270     1.229679908542
    H            0.657890302900     0.911406749721     1.359420475578
    C            2.538777167938    -0.909827314916    -0.313412955256
    H            0.857311250006    -0.154393441838    -1.436037545621
    H            1.782141147423     1.071019409183    -0.659906044874
    H            3.232544874228    -0.871623999023    -1.147003088210
    H            2.175957246633    -1.930087653742    -0.227996376418
    H            3.093615201037    -0.679320459694     0.591313922277
    H           -1.193750750491    -1.564664389472    -0.846335273284
    H           -2.700818568538    -0.636952509097    -0.721166724391
    H           -2.053232306995    -1.501669317888     0.675389401055

  Mulliken Charges: (a.u.)
   Center  Symbol    Alpha    Beta     Spin     Total
       1     O     4.26024  4.26024  0.00000 -0.52048
       2     C     2.74043  2.74043  0.00000  0.51915
       3     C     3.20162  3.20162  0.00000 -0.40323
       4     C     3.28941  3.28941  0.00000 -0.57883
       5     C     3.16167  3.16167  0.00000 -0.32333
       6     H     0.41555  0.41555  0.00000  0.16890
       7     H     0.39848  0.39848  0.00000  0.20304
       8     C     3.24075  3.24075  0.00000 -0.48149
       9     H     0.41620  0.41620  0.00000  0.16760
      10     H     0.40813  0.40813  0.00000  0.18373
      11     H     0.41568  0.41568  0.00000  0.16863
      12     H     0.42094  0.42094  0.00000  0.15812
      13     H     0.41767  0.41767  0.00000  0.16466
      14     H     0.41067  0.41067  0.00000  0.17867
      15     H     0.39674  0.39674  0.00000  0.20651
      16     H     0.40582  0.40582  0.00000  0.18836

   Total alpha = 24.00000, Total beta = 24.00000, Total charge = -0.00000
