  ==> Input File <==

--------------------------------------------------------------------------
set {
	reference rhf
	basis cc-pvtz
}

set_num_threads( 4 )
memory 2 gb

molecule MOL {
0 1

H	 -0.982588	 -1.226315	 0.250411
N	 -1.173824	 -0.310545	 -0.096857
C	 -0.022588	 0.563366	 0.065815
H	 -1.415410	 -0.405236	 -1.061368
C	 1.270420	 -0.230572	 -0.014245
H	 -0.045354	 1.293678	 -0.735129
H	 -0.043155	 1.123061	 1.001180
H	 1.336273	 -0.754933	 -0.959364
H	 2.130728	 0.422015	 0.082222
H	 1.323344	 -0.967006	 0.781773

	symmetry c1
}
set optking {
	frozen_dihedral = ("
		1 2 3 6
	")
}

ee = optimize('scf')
oeprop('DIPOLE', 'QUADRUPOLE', 'MULLIKEN_CHARGES')
f=open( 'psi4out.xyz', 'w' )
f.write( "10  " )
f.write( str(ee) + "\n" )
f.write( MOL.save_string_xyz() )
f.close()
--------------------------------------------------------------------------

    Molecular point group: c1
  Charge       = 0
  Multiplicity = 1
  Basis Set: CC-PVTZ
  Basis Set:
  @DF-RHF Final Energy:  -134.30131264911159
    Total Energy =                       -134.3013126491115941
    Molecular point group: c1
  Basis Set: CC-PVTZ
  Basis Set:
  Basis Set: CC-PVTZ
  Basis Set:
  @DF-RHF Final Energy:  -134.30246639930414
    Total Energy =                       -134.3024663993041372
  Basis Set: CC-PVTZ
  Basis Set:
  Basis Set: CC-PVTZ
  Basis Set:
  @DF-RHF Final Energy:  -134.30263492578217
    Total Energy =                       -134.3026349257821721
  Basis Set: CC-PVTZ
  Basis Set:
  Basis Set: CC-PVTZ
  Basis Set:
  @DF-RHF Final Energy:  -134.30263686170673
    Total Energy =                       -134.3026368617067590
  Basis Set: CC-PVTZ
  Basis Set:
  Charge       = 0
  Multiplicity = 1
  Basis Set: CC-PVTZ
  Basis Set:

    Orbital Energies (a.u.)
    -----------------------

    Doubly Occupied:

       1A    -15.526676     2A    -11.241499     3A    -11.209807
       4A     -1.177706     5A     -0.989417     6A     -0.832163
       7A     -0.671612     8A     -0.601113     9A     -0.587693
      10A     -0.548505    11A     -0.507016    12A     -0.485539
      13A     -0.384082

  @DF-RHF Final Energy:  -134.30263702291171

   => Energetics <=

    Nuclear Repulsion Energy =             83.3276301342783086
    One-Electron Energy =                -345.7348777680273315
    Two-Electron Energy =                 128.1046106108371987
    DFT Exchange-Correlation Energy =       0.0000000000000000
    Empirical Dispersion Energy =           0.0000000000000000
    PCM Polarization Energy =               0.0000000000000000
    EFP Energy =                            0.0000000000000000
    Total Energy =                       -134.3026370229118243
    Molecular point group: c1
  Basis Set: CC-PVTZ
  Basis Set:

  -Total Gradient:
     Atom            X                  Y                   Z
    ------   -----------------  -----------------  -----------------
       1        0.000934019843    -0.000916824856    -0.002906052078
       2       -0.000817041675     0.000710338050     0.003249822341
       3       -0.001595690561     0.002001272436     0.001345063338
       4        0.000005239638     0.000003401528     0.000001161491
       5       -0.000019178650     0.000005176104     0.000011770327
       6        0.001475498012    -0.001810309540    -0.001708299995
       7        0.000014022485    -0.000007723516     0.000006107513
       8       -0.000005883521     0.000005350931     0.000010889887
       9        0.000009303060     0.000011384071     0.000000281417
      10       -0.000000288631    -0.000002065207    -0.000010744242

  **** Optimization is complete! (in 5 steps) ****
    Final optimized geometry and variables:
    Molecular point group: c1

    Geometry (in Angstrom), charge = 0, multiplicity = 1:

    H           -1.058909209743    -1.196137793993     0.289699823204
    N           -1.226068912457    -0.272413979484    -0.050975788433
    C           -0.034574102821     0.558100414478     0.079979695357
    H           -1.480000508287    -0.372885762345    -1.010631469614
    C            1.282215905037    -0.207883490199     0.014794611742
    H           -0.047819270588     1.292643395242    -0.716819780868
    H           -0.085858121347     1.103492309706     1.015774729005
    H            1.386008715846    -0.724052650110    -0.934001861994
    H            2.128498802992     0.461023731583     0.129585989847
    H            1.338053316324    -0.949040900668     0.806206591871

  Mulliken Charges: (a.u.)
   Center  Symbol    Alpha    Beta     Spin     Total
       1     H     0.43098  0.43098  0.00000  0.13803
       2     N     3.68856  3.68856  0.00000 -0.37712
       3     C     3.02104  3.02104  0.00000 -0.04207
       4     H     0.43025  0.43025  0.00000  0.13949
       5     C     3.14121  3.14121  0.00000 -0.28241
       6     H     0.45848  0.45848  0.00000  0.08304
       7     H     0.45788  0.45788  0.00000  0.08423
       8     H     0.45818  0.45818  0.00000  0.08363
       9     H     0.45522  0.45522  0.00000  0.08956
      10     H     0.45819  0.45819  0.00000  0.08362

   Total alpha = 13.00000, Total beta = 13.00000, Total charge =  0.00000
