                              Psi4 1.0.54 Driver

  ==> Input File <==

--------------------------------------------------------------------------
set {
	reference rhf
	basis cc-pvtz
}

set_num_threads( 4 )
memory 2 gb

molecule MOL {
0 1

O	 2.858128	 1.369398	 -0.131667
C	 2.810203	 0.214456	 -0.403556
C	 1.512782	 -0.568077	 -0.390407
C	 4.053230	 -0.557609	 -0.784377
C	 0.288398	 0.247429	 0.000314
H	 1.384929	 -1.006491	 -1.377582
H	 1.645698	 -1.411023	 0.283967
C	 -0.993089	 -0.581367	 -0.000217
H	 0.186314	 1.084193	 -0.681242
H	 0.447411	 0.679412	 0.981762
C	 -2.258482	 0.271340	 0.000669
H	 -1.002280	 -1.233920	 -0.870484
H	 -1.002061	 -1.235367	 0.868958
C	 -3.544441	 -0.550271	 -0.000253
H	 -2.250545	 0.925250	 -0.867923
H	 -2.250598	 0.923423	 0.870642
C	 -4.804551	 0.308747	 0.000556
H	 -3.553737	 -1.201524	 -0.870151
H	 -3.553831	 -1.203282	 0.868313
H	 -4.842050	 0.949078	 -0.874436
H	 -5.698404	 -0.304480	 -0.000254
H	 -4.842277	 0.947103	 0.876982
H	 3.941996	 -0.979638	 -1.777134
H	 4.911573	 0.095929	 -0.761414
H	 4.204966	 -1.383731	 -0.098418

	symmetry c1
}
set optking {
	frozen_dihedral = ("
		9 5 8 12
	")
}

ee,wfn = optimize('scf', return_wfn=True)
oeprop( wfn, 'DIPOLE', 'QUADRUPOLE', 'MULLIKEN_CHARGES')
f=open( 'psi4out.xyz', 'w' )
f.write( "25  " )
f.write( str(ee) + "\n" )
f.write( MOL.save_string_xyz() )
f.close()
--------------------------------------------------------------------------

    Molecular point group: c1
  Charge       = 0
  Multiplicity = 1
  Basis Set: CC-PVTZ
  Basis Set:
  @DF-RHF Final Energy:  -387.27370419813775
    Total Energy =                       -387.2737041981378070
    Molecular point group: c1
  Basis Set: CC-PVTZ
  Basis Set:
  Basis Set: CC-PVTZ
  Basis Set:
  @DF-RHF Final Energy:  -387.27380849167844
    Total Energy =                       -387.2738084916783237
  Basis Set: CC-PVTZ
  Basis Set:
  Basis Set: CC-PVTZ
  Basis Set:
  @DF-RHF Final Energy:  -387.27367909930774
    Total Energy =                       -387.2736790993074010
  Basis Set: CC-PVTZ
  Basis Set:
  Basis Set: CC-PVTZ
  Basis Set:
  @DF-RHF Final Energy:  -387.27386005116682
    Total Energy =                       -387.2738600511664799
  Basis Set: CC-PVTZ
  Basis Set:
  Charge       = 0
  Multiplicity = 1
  Basis Set: CC-PVTZ
  Basis Set:

    Orbital Energies (a.u.)
    -----------------------

    Doubly Occupied:

       1A    -20.538959     2A    -11.320586     3A    -11.230448
       4A    -11.226642     5A    -11.215085     6A    -11.214462
       7A    -11.213602     8A    -11.211818     9A    -11.206523
      10A     -1.398992    11A     -1.094984    12A     -1.057811
      13A     -1.015532    14A     -0.970344    15A     -0.891728
      16A     -0.815027    17A     -0.791813    18A     -0.731430
      19A     -0.661749    20A     -0.653914    21A     -0.633893
      22A     -0.626794    23A     -0.596632    24A     -0.585161
      25A     -0.567823    26A     -0.560290    27A     -0.541594
      28A     -0.527498    29A     -0.513317    30A     -0.492946
      31A     -0.489542    32A     -0.472899    33A     -0.464643
      34A     -0.461761    35A     -0.452784    36A     -0.401560

  @DF-RHF Final Energy:  -387.27386084440298

   => Energetics <=

    Nuclear Repulsion Energy =            439.0881781799836290
    One-Electron Energy =               -1395.0229037329550010
    Two-Electron Energy =                 568.6608647085685107
    DFT Exchange-Correlation Energy =       0.0000000000000000
    Empirical Dispersion Energy =           0.0000000000000000
    PCM Polarization Energy =               0.0000000000000000
    EFP Energy =                            0.0000000000000000
    Total Energy =                       -387.2738608444028614
    Molecular point group: c1
  Basis Set: CC-PVTZ
  Basis Set:

  -Total Gradient:
     Atom            X                  Y                   Z
    ------   -----------------  -----------------  -----------------
       1       -0.000025318994     0.000026742613     0.000020101648
       2       -0.000003514121    -0.000008777871    -0.000043703991
       3        0.000023232436    -0.000022643039    -0.000019914855
       4        0.000016002416    -0.000017955885    -0.000007698569
       5        0.001607912025    -0.002487255037    -0.002207803918
       6        0.000011122611     0.000010581921     0.000020948536
       7       -0.000019225444     0.000027384422    -0.000012784677
       8       -0.001868699439     0.002938719451    -0.001331755570
       9       -0.001044484888     0.001582303788     0.002141374763
      10        0.000007434914    -0.000002684183    -0.000006184331
      11       -0.000004256969     0.000035491712    -0.000071422109
      12        0.001299464794    -0.002020435134     0.001503167402
      13        0.000010676875     0.000005823323     0.000006496557
      14       -0.000000080008    -0.000013594534    -0.000000823320
      15        0.000007110482    -0.000015423173     0.000015297975
      16        0.000014036112    -0.000027872022    -0.000038659300
      17       -0.000018821639    -0.000014832525     0.000022678550
      18       -0.000002666929     0.000024763991     0.000016646194
      19       -0.000006340010    -0.000002397861    -0.000023406806
      20        0.000006830338    -0.000021141777     0.000020703617
      21        0.000010216803     0.000022421910     0.000006035141
      22       -0.000003501480    -0.000005395531    -0.000016944937
      23        0.000009173209    -0.000004769630     0.000015593653
      24       -0.000034928730    -0.000010218578     0.000001678114
      25        0.000008625642     0.000001163649    -0.000009619765

  **** Optimization is complete! (in 5 steps) ****
    Final optimized geometry and variables:
    Molecular point group: c1

    Geometry (in Angstrom), charge = 0, multiplicity = 1:

    O            2.875311015347     1.344879499926     0.096219271497
    C            2.831931575417     0.194604220463    -0.195214635560
    C            1.531936489475    -0.582772904825    -0.236104373719
    C            4.083544088553    -0.576806642555    -0.548548787917
    C            0.298553994559     0.231470624843     0.123141591850
    H            1.436223190061    -1.008379966137    -1.232233724180
    H            1.638188675634    -1.434596556171     0.432101388196
    C           -0.984364742622    -0.599004785539     0.119816901978
    H            0.201051352745     1.072764861544    -0.553743891193
    H            0.439645694579     0.672789859974     1.103388274997
    C           -2.252681381712     0.246390660041     0.160475246966
    H           -1.001072159612    -1.251068804054    -0.750781440102
    H           -0.973696078171    -1.267346674624     0.978337338694
    C           -3.533313131856    -0.581087814789     0.221270267287
    H           -2.282266516000     0.889508843663    -0.715538873055
    H           -2.212933181075     0.909398112726     1.021431870478
    C           -4.796947049794     0.271925520419     0.257580183919
    H           -3.572305188035    -1.245479805246    -0.637831660522
    H           -3.506004456875    -1.220826623289     1.099146701913
    H           -4.872099494750     0.897726624156    -0.625444644392
    H           -5.686898942363    -0.345325729835     0.301726580428
    H           -4.803690602505     0.924292875904     1.124397875617
    H            4.002433715687    -0.982619892900    -1.550895999675
    H            4.943211285790     0.072553743622    -0.487964083983
    H            4.210154249024    -1.414231203594     0.128745892934

  Mulliken Charges: (a.u.)
   Center  Symbol    Alpha    Beta     Spin     Total
       1     O     4.17056  4.17056  0.00000 -0.34111
       2     C     2.86235  2.86235  0.00000  0.27530
       3     C     3.11380  3.11380  0.00000 -0.22759
       4     C     3.15126  3.15126  0.00000 -0.30252
       5     C     3.08418  3.08418  0.00000 -0.16836
       6     H     0.44537  0.44537  0.00000  0.10926
       7     H     0.44507  0.44507  0.00000  0.10986
       8     C     3.09062  3.09062  0.00000 -0.18124
       9     H     0.44670  0.44670  0.00000  0.10661
      10     H     0.44558  0.44558  0.00000  0.10885
      11     C     3.08609  3.08609  0.00000 -0.17219
      12     H     0.45701  0.45701  0.00000  0.08598
      13     H     0.45505  0.45505  0.00000  0.08989
      14     C     3.08440  3.08440  0.00000 -0.16879
      15     H     0.45405  0.45405  0.00000  0.09190
      16     H     0.45318  0.45318  0.00000  0.09363
      17     C     3.15029  3.15029  0.00000 -0.30058
      18     H     0.45518  0.45518  0.00000  0.08964
      19     H     0.45487  0.45487  0.00000  0.09027
      20     H     0.45494  0.45494  0.00000  0.09012
      21     H     0.44866  0.44866  0.00000  0.10269
      22     H     0.45468  0.45468  0.00000  0.09063
      23     H     0.45039  0.45039  0.00000  0.09921
      24     H     0.43533  0.43533  0.00000  0.12933
      25     H     0.45039  0.45039  0.00000  0.09921

   Total alpha = 36.00000, Total beta = 36.00000, Total charge = -0.00000

*** Psi4 exiting successfully. Buy a developer a beer!
