                              Psi4 1.0.54 Driver

  ==> Input File <==

--------------------------------------------------------------------------
set {
	reference rhf
	basis cc-pvtz
}

set_num_threads( 4 )
memory 2 gb

molecule MOL {
0 1

H	 2.342730	 0.877684	 -1.045694
C	 2.360424	 0.000000	 -0.411793
C	 1.173749	 0.000000	 0.526870
H	 3.286567	 0.000000	 0.151574
H	 2.342730	 -0.877684	 -1.045694
O	 0.000000	 0.000000	 -0.223739
H	 1.203779	 0.876757	 1.172538
H	 1.203779	 -0.876757	 1.172538
C	 -1.173749	 0.000000	 0.526870
C	 -2.346149	 -0.274013	 -0.389471
H	 -1.299551	 0.961635	 1.022776
H	 -1.118543	 -0.759391	 1.305824
H	 -2.413820	 0.486914	 -1.156859
H	 -3.272049	 -0.278677	 0.174276
H	 -2.232620	 -1.235932	 -0.873512

	symmetry c1
}
set optking {
	frozen_dihedral = ("
		11 9 6 3
	")
}

ee,wfn = optimize('scf', return_wfn=True)
oeprop( wfn, 'DIPOLE', 'QUADRUPOLE', 'MULLIKEN_CHARGES')
f=open( 'psi4out.xyz', 'w' )
f.write( "15  " )
f.write( str(ee) + "\n" )
f.write( MOL.save_string_xyz() )
f.close()
--------------------------------------------------------------------------

    Molecular point group: c1
  Charge       = 0
  Multiplicity = 1
  Basis Set: CC-PVTZ
  Basis Set:
  @DF-RHF Final Energy:  -232.23335579577477
    Total Energy =                       -232.2333557957747416
    Molecular point group: c1
  Basis Set: CC-PVTZ
  Basis Set:
  Basis Set: CC-PVTZ
  Basis Set:
  @DF-RHF Final Energy:  -232.23337273975005
    Total Energy =                       -232.2333727397501093
  Basis Set: CC-PVTZ
  Basis Set:
  Basis Set: CC-PVTZ
  Basis Set:
  @DF-RHF Final Energy:  -232.23337537398965
    Total Energy =                       -232.2333753739897020
  Basis Set: CC-PVTZ
  Basis Set:
  Charge       = 0
  Multiplicity = 1
  Basis Set: CC-PVTZ
  Basis Set:

    Orbital Energies (a.u.)
    -----------------------

    Doubly Occupied:

       1A    -20.545375     2A    -11.266254     3A    -11.266140
       4A    -11.207267     5A    -11.207129     6A     -1.381318
       7A     -1.045106     8A     -0.983350     9A     -0.846941
      10A     -0.826453    11A     -0.679847    12A     -0.669129
      13A     -0.609806    14A     -0.597661    15A     -0.549702
      16A     -0.531730    17A     -0.522917    18A     -0.493696
      19A     -0.487702    20A     -0.466571    21A     -0.413846

  @DF-RHF Final Energy:  -232.23337544816670

   => Energetics <=

    Nuclear Repulsion Energy =            191.3058847349181235
    One-Electron Energy =                -693.8826354770012586
    Two-Electron Energy =                 270.3433752939164378
    DFT Exchange-Correlation Energy =       0.0000000000000000
    Empirical Dispersion Energy =           0.0000000000000000
    PCM Polarization Energy =               0.0000000000000000
    EFP Energy =                            0.0000000000000000
    Total Energy =                       -232.2333754481667256
    Molecular point group: c1
  Basis Set: CC-PVTZ
  Basis Set:

  -Total Gradient:
     Atom            X                  Y                   Z
    ------   -----------------  -----------------  -----------------
       1       -0.000004054248    -0.000000868943     0.000003955534
       2       -0.000000187153    -0.000008074444    -0.000001744743
       3        0.000008577705    -0.001211425928     0.000021313554
       4        0.000003143418    -0.000000667850     0.000000416593
       5        0.000003448855     0.000000531467    -0.000002938766
       6       -0.000222813555     0.001877142649    -0.000337544306
       7       -0.000002430031    -0.000000796969     0.000001291399
       8       -0.000002420290     0.000001307211    -0.000004090796
       9        0.000987843372    -0.001152947158     0.001538781016
      10       -0.000005141613     0.000002660104    -0.000001706325
      11       -0.000757669716     0.000491413552    -0.001210672352
      12        0.000000146153     0.000003099526    -0.000001532358
      13       -0.000004242977    -0.000001247120    -0.000002693021
      14       -0.000004588672     0.000000420138    -0.000001525773
      15        0.000000388754    -0.000000546235    -0.000001309655

  **** Optimization is complete! (in 4 steps) ****
    Final optimized geometry and variables:
    Molecular point group: c1

    Geometry (in Angstrom), charge = 0, multiplicity = 1:

    H            2.328941157049     0.951890356294    -1.054857952313
    C            2.356718661302     0.074820751045    -0.420392063306
    C            1.172506886790     0.063354091674     0.521347832791
    H            3.284334075038     0.084201895130     0.140693827685
    H            2.345911192033    -0.803447020469    -1.053798749384
    O           -0.002944076153     0.044805433595    -0.226328669887
    H            1.194735271200     0.942804442791     1.164154535859
    H            1.214470410911    -0.810632633358     1.169741367460
    C           -1.177044193388     0.050131118927     0.524232839183
    C           -2.349024445174    -0.229949652781    -0.392009738295
    H           -1.307099373361     1.019297819978     1.004140468190
    H           -1.125213737205    -0.701885918270     1.309655930381
    H           -2.404659039393     0.516931044511    -1.174169261159
    H           -3.277626047111    -0.212230504411     0.167363431461
    H           -2.244658065093    -1.202179931752    -0.857344226592

  Mulliken Charges: (a.u.)
   Center  Symbol    Alpha    Beta     Spin     Total
       1     H     0.45154  0.45154  0.00000  0.09693
       2     C     3.13504  3.13504  0.00000 -0.27009
       3     C     2.96692  2.96692  0.00000  0.06616
       4     H     0.45890  0.45890  0.00000  0.08221
       5     H     0.45161  0.45161  0.00000  0.09678
       6     O     4.17911  4.17911  0.00000 -0.35822
       7     H     0.47409  0.47409  0.00000  0.05182
       8     H     0.47260  0.47260  0.00000  0.05481
       9     C     2.96742  2.96742  0.00000  0.06516
      10     C     3.13479  3.13479  0.00000 -0.26957
      11     H     0.47106  0.47106  0.00000  0.05787
      12     H     0.47445  0.47445  0.00000  0.05110
      13     H     0.45116  0.45116  0.00000  0.09768
      14     H     0.45902  0.45902  0.00000  0.08195
      15     H     0.45229  0.45229  0.00000  0.09541

   Total alpha = 21.00000, Total beta = 21.00000, Total charge =  0.00000

*** Psi4 exiting successfully. Buy a developer a beer!
