  ==> Input File <==

--------------------------------------------------------------------------
set {
	reference rhf
	basis cc-pvtz
}

set_num_threads( 4 )
memory 2 gb

molecule MOL {
0 1

H	 -2.212629	 0.736953	 -1.945582
C	 -1.612132	 -0.143989	 -1.730574
O	 -1.401606	 -0.295183	 -0.366624
H	 -2.139493	 -1.018505	 -2.082711
H	 -0.672415	 -0.060414	 -2.273559
C	 -0.718530	 0.758693	 0.228682
C	 0.718529	 0.758687	 -0.228709
H	 -1.176498	 1.708665	 -0.046615
H	 -0.748705	 0.673525	 1.312779
O	 1.401606	 -0.295166	 0.366636
H	 0.748705	 0.673477	 -1.312803
H	 1.176496	 1.708671	 0.046552
C	 2.714315	 -0.441627	 -0.061017
H	 2.765292	 -0.641548	 -1.128869
H	 3.305661	 0.447341	 0.150952
H	 3.143725	 -1.278506	 0.470147

	symmetry c1
}
set optking {
	frozen_dihedral = ("
		2 3 6 7
	")
}

ee = optimize('scf')
oeprop('DIPOLE', 'QUADRUPOLE', 'MULLIKEN_CHARGES')
f=open( 'psi4out.xyz', 'w' )
f.write( "16  " )
f.write( str(ee) + "\n" )
f.write( MOL.save_string_xyz() )
f.close()
--------------------------------------------------------------------------

    Molecular point group: c1
  Charge       = 0
  Multiplicity = 1
  Basis Set: CC-PVTZ
  Basis Set:
  @DF-RHF Final Energy:  -307.09052022963260
    Total Energy =                       -307.0905202296324887
    Molecular point group: c1
  Basis Set: CC-PVTZ
  Basis Set:
  Basis Set: CC-PVTZ
  Basis Set:
  @DF-RHF Final Energy:  -307.09263184143197
    Total Energy =                       -307.0926318414319667
  Basis Set: CC-PVTZ
  Basis Set:
  Basis Set: CC-PVTZ
  Basis Set:
  @DF-RHF Final Energy:  -307.09454117176062
    Total Energy =                       -307.0945411717608522
  Basis Set: CC-PVTZ
  Basis Set:
  Basis Set: CC-PVTZ
  Basis Set:
  @DF-RHF Final Energy:  -307.09474289391477
    Total Energy =                       -307.0947428939150541
  Basis Set: CC-PVTZ
  Basis Set:
  Basis Set: CC-PVTZ
  Basis Set:
  @DF-RHF Final Energy:  -307.09480117870220
    Total Energy =                       -307.0948011787023120
  Basis Set: CC-PVTZ
  Basis Set:
  Basis Set: CC-PVTZ
  Basis Set:
  @DF-RHF Final Energy:  -307.09480624426715
    Total Energy =                       -307.0948062442672040
  Basis Set: CC-PVTZ
  Basis Set:
  Charge       = 0
  Multiplicity = 1
  Basis Set: CC-PVTZ
  Basis Set:

    Orbital Energies (a.u.)
    -----------------------

    Doubly Occupied:

       1A    -20.551132     2A    -20.546718     3A    -11.269855
       4A    -11.267651     5A    -11.264766     6A    -11.261639
       7A     -1.392622     8A     -1.374195     9A     -1.029320
      10A     -0.946772    11A     -0.899733    12A     -0.815941
      13A     -0.691086    14A     -0.682195    15A     -0.661270
      16A     -0.639706    17A     -0.631166    18A     -0.600917
      19A     -0.556371    20A     -0.529792    21A     -0.517348
      22A     -0.490916    23A     -0.460117    24A     -0.422676
      25A     -0.412691

  @DF-RHF Final Energy:  -307.09480684582456

   => Energetics <=

    Nuclear Repulsion Energy =            262.1662275812420830
    One-Electron Energy =                -938.6888844972816059
    Two-Electron Energy =                 369.4278500702149586
    DFT Exchange-Correlation Energy =       0.0000000000000000
    Empirical Dispersion Energy =           0.0000000000000000
    PCM Polarization Energy =               0.0000000000000000
    EFP Energy =                            0.0000000000000000
    Total Energy =                       -307.0948068458245643
    Molecular point group: c1
  Basis Set: CC-PVTZ
  Basis Set:

  -Total Gradient:
     Atom            X                  Y                   Z
    ------   -----------------  -----------------  -----------------
       1       -0.000007634941    -0.000004034873    -0.000001955260
       2        0.000316979368    -0.000169257855    -0.000048811209
       3       -0.000502058903     0.000350121959    -0.000051734542
       4        0.000005175257    -0.000003108156     0.000007754098
       5       -0.000000305839     0.000001743034    -0.000010118229
       6        0.000255960586    -0.000328361138     0.000340876064
       7       -0.000087049641     0.000211758254    -0.000261387466
       8        0.000000087147     0.000001229059     0.000021906958
       9       -0.000000944502    -0.000032585616    -0.000008325951
      10        0.000022558978     0.000012843117     0.000027113811
      11        0.000007068250    -0.000029289598     0.000003310338
      12       -0.000005958065     0.000005376974    -0.000015596670
      13       -0.000010405157    -0.000017227716    -0.000002766492
      14       -0.000003276032     0.000000665298     0.000001287083
      15       -0.000001181803     0.000002078258    -0.000002168046
      16        0.000010985298    -0.000001951001     0.000000615512

  **** Optimization is complete! (in 7 steps) ****
    Final optimized geometry and variables:
    Molecular point group: c1

    Geometry (in Angstrom), charge = 0, multiplicity = 1:

    H           -2.291657594419     0.700133525150    -1.685582385520
    C           -1.874448053291    -0.261970677544    -1.393434565295
    O           -1.631012086327    -0.317401834323    -0.026588613536
    H           -2.593689238930    -1.034132324147    -1.624998287342
    H           -0.979244835670    -0.443341349104    -1.980195946431
    C           -0.888592890015     0.726888348397     0.514944255278
    C            0.574551575795     0.749357252955     0.121124181858
    H           -1.329040219122     1.686169922297     0.242420830714
    H           -0.955894238652     0.618957654260     1.588571315488
    O            1.208200275134    -0.391475904305     0.595765983066
    H            0.687580420989     0.825145008945    -0.958831788493
    H            1.023460345159     1.644697564922     0.552616848792
    C            2.556407763614    -0.476569869250     0.274686516578
    H            2.709977621220    -0.492210658358    -0.802361081023
    H            3.119479962789     0.357343909532     0.689181600822
    H            2.938616735267    -1.396086825276     0.693104440920

  Mulliken Charges: (a.u.)
   Center  Symbol    Alpha    Beta     Spin     Total
       1     H     0.47342  0.47342  0.00000  0.05316
       2     C     3.03486  3.03486  0.00000 -0.06972
       3     O     4.17257  4.17257  0.00000 -0.34515
       4     H     0.44379  0.44379  0.00000  0.11241
       5     H     0.46897  0.46897  0.00000  0.06207
       6     C     2.97624  2.97624  0.00000  0.04752
       7     C     2.97492  2.97492  0.00000  0.05015
       8     H     0.47179  0.47179  0.00000  0.05641
       9     H     0.44931  0.44931  0.00000  0.10138
      10     O     4.16847  4.16847  0.00000 -0.33694
      11     H     0.47570  0.47570  0.00000  0.04860
      12     H     0.46785  0.46785  0.00000  0.06429
      13     C     3.03210  3.03210  0.00000 -0.06421
      14     H     0.47239  0.47239  0.00000  0.05522
      15     H     0.47206  0.47206  0.00000  0.05588
      16     H     0.44555  0.44555  0.00000  0.10891

   Total alpha = 25.00000, Total beta = 25.00000, Total charge = -0.00000
