  ==> Input File <==

--------------------------------------------------------------------------
set {
	reference rhf
	basis 6-31G*
}

set_num_threads( 4 )
memory 2 gb

molecule MOL {
0 1

H	 0.921259	 -2.666073	 0.449220
C	 0.698240	 -2.082789	 1.350799
C	 -0.562264	 -1.259426	 1.286469
O	 1.428437	 -2.128917	 2.287183
C	 -0.558097	 -0.297372	 0.091132
H	 -0.667412	 -0.725225	 2.223514
H	 -1.402966	 -1.946059	 1.193810
C	 -1.850991	 0.512573	 -0.019058
H	 0.286826	 0.381537	 0.180356
H	 -0.406540	 -0.859580	 -0.828548
C	 -3.096943	 -0.368295	 -0.099594
H	 -1.800724	 1.150330	 -0.898172
H	 -1.931651	 1.177355	 0.838044
H	 -3.060452	 -1.020287	 -0.967456
H	 -3.996858	 0.233488	 -0.175704
H	 -3.191959	 -0.995686	 0.782074

	symmetry c1
}
set optking {
	frozen_dihedral = ("
		9 5 8 12
	")
}

ee = optimize('scf')
oeprop('DIPOLE', 'QUADRUPOLE', 'MULLIKEN_CHARGES')
f=open( 'psi4out.xyz', 'w' )
f.write( "16  " )
f.write( str(ee) + "\n" )
f.write( MOL.save_string_xyz() )
f.close()
--------------------------------------------------------------------------

    Molecular point group: c1
  Charge       = 0
  Multiplicity = 1
  Basis Set: 6-31G*
  Basis Set:
  @DF-RHF Final Energy:  -270.01698336732920
    Total Energy =                       -270.0169833673292032
    Molecular point group: c1
  Basis Set: 6-31G*
  Basis Set:
  Basis Set: 6-31G*
  Basis Set:
  @DF-RHF Final Energy:  -270.01744992248797
    Total Energy =                       -270.0174499224877991
  Basis Set: 6-31G*
  Basis Set:
  Basis Set: 6-31G*
  Basis Set:
  @DF-RHF Final Energy:  -270.01802283496977
    Total Energy =                       -270.0180228349699973
  Basis Set: 6-31G*
  Basis Set:
  Basis Set: 6-31G*
  Basis Set:
  @DF-RHF Final Energy:  -270.01648950578851
    Total Energy =                       -270.0164895057882859
  Basis Set: 6-31G*
  Basis Set:
  @DF-RHF Final Energy:  -270.01807502728889
    Total Energy =                       -270.0180750272891146
  Basis Set: 6-31G*
  Basis Set:
  @DF-RHF Final Energy:  -270.01808719978590
    Total Energy =                       -270.0180871997860095
  Basis Set: 6-31G*
  Basis Set:
  Basis Set: 6-31G*
  Basis Set:
  @DF-RHF Final Energy:  -270.01812856211973
    Total Energy =                       -270.0181285621198981
  Basis Set: 6-31G*
  Basis Set:
  Basis Set: 6-31G*
  Basis Set:
  @DF-RHF Final Energy:  -270.01814278157462
    Total Energy =                       -270.0181427815747384
  Basis Set: 6-31G*
  Basis Set:
  Charge       = 0
  Multiplicity = 1
  Basis Set: 6-31G*
  Basis Set:

    Orbital Energies (a.u.)
    -----------------------

    Doubly Occupied:

       1A    -20.562037     2A    -11.326287     3A    -11.237058
       4A    -11.234575     5A    -11.229709     6A    -11.219526
       7A     -1.401887     8A     -1.096445     9A     -1.015530
      10A     -0.914331    11A     -0.808727    12A     -0.790354
      13A     -0.675533    14A     -0.648335    15A     -0.636649
      16A     -0.594560    17A     -0.576300    18A     -0.567874
      19A     -0.522118    20A     -0.517268    21A     -0.487833
      22A     -0.480974    23A     -0.470586    24A     -0.409273

  @DF-RHF Final Energy:  -270.01814320804999

   => Energetics <=

    Nuclear Repulsion Energy =            231.8463958325150998
    One-Electron Energy =                -824.8815377528871977
    Two-Electron Energy =                 323.0169987123219926
    DFT Exchange-Correlation Energy =       0.0000000000000000
    Empirical Dispersion Energy =           0.0000000000000000
    PCM Polarization Energy =               0.0000000000000000
    EFP Energy =                            0.0000000000000000
    Total Energy =                       -270.0181432080501054
    Molecular point group: c1
  Basis Set: 6-31G*
  Basis Set:

  -Total Gradient:
     Atom            X                  Y                   Z
    ------   -----------------  -----------------  -----------------
       1       -0.000035240920    -0.000040726065     0.000017485126
       2        0.000109053599     0.000126551801    -0.000040148263
       3       -0.000014709760     0.000016622171    -0.000015041505
       4       -0.000034321583    -0.000046672409     0.000015203147
       5       -0.000057055240    -0.000313278952    -0.002375546272
       6        0.000001761661    -0.000004012646    -0.000002483733
       7       -0.000016560666    -0.000004543429    -0.000003220709
       8        0.000857779501     0.001491921257     0.001632156333
       9       -0.000171517450    -0.000029955185     0.001744801433
      10        0.000025425057    -0.000010636177    -0.000013751010
      11        0.000086982159     0.000001076711    -0.000029799954
      12       -0.000784849210    -0.001226422557    -0.000976393710
      13       -0.000017376039    -0.000010462363     0.000021083358
      14        0.000037406062    -0.000006808320     0.000030529445
      15        0.000023470975     0.000030758624    -0.000029392007
      16       -0.000010248146     0.000026587543     0.000024518317

  **** Optimization is complete! (in 9 steps) ****
    Final optimized geometry and variables:
    Molecular point group: c1

    Geometry (in Angstrom), charge = 0, multiplicity = 1:

    H            1.688049297509    -1.677444041572    -0.368598310615
    C            1.415546744549    -1.115348516642     0.532768636222
    C            0.103898120672    -0.378079958523     0.456390404952
    O            2.137099759690    -1.116051258873     1.477064186128
    C            0.073161931151     0.590963941979    -0.735517400882
    H           -0.046161709628     0.145455150774     1.393834028108
    H           -0.683187555681    -1.121933351966     0.354524525971
    C           -1.205504147585     1.431643231101    -0.824949622528
    H            0.921923295344     1.264556165337    -0.647238821864
    H            0.206122139457     0.033474245092    -1.660407870868
    C           -2.496575203213     0.618483044731    -0.935684351128
    H           -1.126863729024     2.068244983959    -1.702165581117
    H           -1.264147988980     2.091806801510     0.036566228454
    H           -2.448230784957    -0.083578096639    -1.763959915007
    H           -3.344788812232     1.272925841996    -1.108668381670
    H           -2.702909874676     0.054023921760    -0.032466873321

  Mulliken Charges: (a.u.)
   Center  Symbol    Alpha    Beta     Spin     Total
       1     H     0.43223  0.43223  0.00000  0.13554
       2     C     2.82939  2.82939  0.00000  0.34122
       3     C     3.21010  3.21010  0.00000 -0.42019
       4     O     4.23749  4.23749  0.00000 -0.47499
       5     C     3.16586  3.16586  0.00000 -0.33172
       6     H     0.40010  0.40010  0.00000  0.19979
       7     H     0.40763  0.40763  0.00000  0.18475
       8     C     3.15191  3.15191  0.00000 -0.30383
       9     H     0.41157  0.41157  0.00000  0.17686
      10     H     0.41912  0.41912  0.00000  0.16175
      11     C     3.24444  3.24444  0.00000 -0.48888
      12     H     0.41681  0.41681  0.00000  0.16638
      13     H     0.41794  0.41794  0.00000  0.16411
      14     H     0.42132  0.42132  0.00000  0.15736
      15     H     0.41532  0.41532  0.00000  0.16936
      16     H     0.41875  0.41875  0.00000  0.16250

   Total alpha = 24.00000, Total beta = 24.00000, Total charge = -0.00000
