  ==> Input File <==

--------------------------------------------------------------------------
set {
	reference rhf
	basis 6-31G*
}

set_num_threads( 4 )
memory 2 gb

molecule MOL {
0 1

O	 -2.324811	 1.361668	 -0.277141
C	 -2.105949	 0.203097	 -0.092081
C	 -0.889235	 -0.467034	 -0.705952
C	 -3.002726	 -0.644460	 0.782455
C	 -0.687046	 -1.875326	 -0.123734
H	 -0.024989	 0.146810	 -0.476652
H	 -0.987764	 -0.522504	 -1.786341
C	 0.551649	 -2.567320	 -0.697661
H	 -0.610484	 -1.787786	 0.954162
H	 -1.565304	 -2.485809	 -0.327987
C	 0.761624	 -4.002922	 -0.202674
H	 1.433738	 -1.974125	 -0.463643
H	 0.473593	 -2.582782	 -1.782796
C	 1.076093	 -4.119757	 1.289792
H	 1.579433	 -4.442959	 -0.767696
H	 -0.120597	 -4.595992	 -0.435143
H	 1.948529	 -3.527553	 1.552231
H	 1.284384	 -5.150582	 1.558891
H	 0.250224	 -3.783500	 1.907580
H	 -3.496582	 -1.399307	 0.176174
H	 -3.747939	 -0.023774	 1.260148
H	 -2.421318	 -1.168775	 1.535358

	symmetry c1
}
set optking {
	frozen_dihedral = ("
		6 3 2 1
	")
}

ee = optimize('scf')
oeprop('DIPOLE', 'QUADRUPOLE', 'MULLIKEN_CHARGES')
f=open( 'psi4out.xyz', 'w' )
f.write( "22  " )
f.write( str(ee) + "\n" )
f.write( MOL.save_string_xyz() )
f.close()
--------------------------------------------------------------------------

    Molecular point group: c1
  Charge       = 0
  Multiplicity = 1
  Basis Set: 6-31G*
  Basis Set:
  @DF-RHF Final Energy:  -348.09026406641965
    Total Energy =                       -348.0902640664193086
    Molecular point group: c1
  Basis Set: 6-31G*
  Basis Set:
  Basis Set: 6-31G*
  Basis Set:
  @DF-RHF Final Energy:  -348.09271069278492
    Total Energy =                       -348.0927106927848058
  Basis Set: 6-31G*
  Basis Set:
  Basis Set: 6-31G*
  Basis Set:
  @DF-RHF Final Energy:  -348.09522060943908
    Total Energy =                       -348.0952206094393659
  Basis Set: 6-31G*
  Basis Set:
  Basis Set: 6-31G*
  Basis Set:
  @DF-RHF Final Energy:  -348.09561068124367
    Total Energy =                       -348.0956106812436133
  Basis Set: 6-31G*
  Basis Set:
  @DF-RHF Final Energy:  -348.09520730424492
    Total Energy =                       -348.0952073042452639
  @DF-RHF Final Energy:  -348.09566021515326
    Total Energy =                       -348.0956602151530888
  @DF-RHF Final Energy:  -348.09543863693460
    Total Energy =                       -348.0954386369347162
  @DF-RHF Final Energy:  -348.09563941674332
    Total Energy =                       -348.0956394167433814
  @DF-RHF Final Energy:  -348.09566996185976
    Total Energy =                       -348.0956699618598691
  Basis Set: 6-31G*
  Basis Set:
  @DF-RHF Final Energy:  -348.09572331193777
    Total Energy =                       -348.0957233119375474
  Basis Set: 6-31G*
  Basis Set:
  Basis Set: 6-31G*
  Basis Set:
  @DF-RHF Final Energy:  -348.09569950335197
    Total Energy =                       -348.0956995033522503
  Basis Set: 6-31G*
  Basis Set:
  Basis Set: 6-31G*
  Basis Set:
  @DF-RHF Final Energy:  -348.09572803579243
    Total Energy =                       -348.0957280357924901
  Basis Set: 6-31G*
  Basis Set:
  Charge       = 0
  Multiplicity = 1
  Basis Set: 6-31G*
  Basis Set:

    Orbital Energies (a.u.)
    -----------------------

    Doubly Occupied:

       1A    -20.544881     2A    -11.325907     3A    -11.230857
       4A    -11.230106     5A    -11.227550     6A    -11.224780
       7A    -11.223288     8A    -11.215237     9A     -1.392168
      10A     -1.098701    11A     -1.044874    12A     -0.996388
      13A     -0.941394    14A     -0.863904    15A     -0.789432
      16A     -0.731459    17A     -0.661081    18A     -0.647619
      19A     -0.632273    20A     -0.613105    21A     -0.607051
      22A     -0.583016    23A     -0.556813    24A     -0.543851
      25A     -0.537290    26A     -0.519539    27A     -0.508708
      28A     -0.477873    29A     -0.473884    30A     -0.468791
      31A     -0.463970    32A     -0.395804

  @DF-RHF Final Energy:  -348.09572811402711

   => Energetics <=

    Nuclear Repulsion Energy =            372.3645512868781680
    One-Electron Energy =               -1209.3773638755544653
    Two-Electron Energy =                 488.9170844746491866
    DFT Exchange-Correlation Energy =       0.0000000000000000
    Empirical Dispersion Energy =           0.0000000000000000
    PCM Polarization Energy =               0.0000000000000000
    EFP Energy =                            0.0000000000000000
    Total Energy =                       -348.0957281140271107
    Molecular point group: c1
  Basis Set: 6-31G*
  Basis Set:

  -Total Gradient:
     Atom            X                  Y                   Z
    ------   -----------------  -----------------  -----------------
       1       -0.000369351400    -0.000212211822    -0.000547264570
       2        0.000515662146     0.000231787831     0.000879377714
       3       -0.000212761915     0.000273728788    -0.000939931995
       4        0.000013227754     0.000010943623     0.000024427059
       5       -0.000004190169    -0.000003083300     0.000005916273
       6        0.000072943732    -0.000290338431     0.000609895277
       7        0.000000717698    -0.000001703816     0.000002233818
       8        0.000007085190    -0.000003196592     0.000001988198
       9        0.000000449223    -0.000004897310    -0.000008565219
      10       -0.000018331368     0.000006638795    -0.000005383927
      11       -0.000002071551     0.000004357092     0.000010004518
      12       -0.000004898181     0.000007399093    -0.000000855476
      13        0.000013577477    -0.000017102525    -0.000001822198
      14        0.000008640629    -0.000002438571    -0.000005970248
      15       -0.000001571786    -0.000006052926    -0.000002232752
      16       -0.000006240323     0.000010103423     0.000005808091
      17       -0.000002959434     0.000006923861     0.000002268402
      18        0.000007126759     0.000000155304    -0.000003647814
      19       -0.000000915530    -0.000008111237    -0.000005090271
      20       -0.000001319634    -0.000001689190    -0.000010151534
      21       -0.000005696044    -0.000001891770    -0.000000964228
      22       -0.000009123265     0.000000679673    -0.000010039116

  **** Optimization is complete! (in 13 steps) ****
    Final optimized geometry and variables:
    Molecular point group: c1

    Geometry (in Angstrom), charge = 0, multiplicity = 1:

    O           -1.462166407394     2.889436364399    -0.423061038476
    C           -1.312541204572     1.750307014877    -0.099497557344
    C           -0.096508282020     0.984924045099    -0.612406910281
    C           -2.326107715379     1.057693480476     0.785697974652
    C            0.147770950762    -0.425572478097    -0.071565679908
    H            0.763724817114     1.615903252368    -0.408741930120
    H           -0.195109615932     0.957887944548    -1.694969530093
    C            1.403959428451    -1.055306667715    -0.681082627570
    H            0.243409125380    -0.390616301587     1.009542219831
    H           -0.706392927164    -1.063325015207    -0.286994409050
    C            1.667974185075    -2.500788394441    -0.244944228361
    H            2.269174078175    -0.442245824880    -0.434842767307
    H            1.314427817010    -1.031840813207    -1.765017918884
    C            1.999905841128    -2.667282230820     1.239066332553
    H            2.495612951811    -2.889202729721    -0.832832881111
    H            0.805209433515    -3.115133963510    -0.494282944095
    H            2.850183153689    -2.051872599961     1.520359098196
    H            2.251764626976    -3.699090901074     1.463082117369
    H            1.166280547069    -2.391793881337     1.876665171151
    H           -2.753779910753     0.198819584408     0.277298083609
    H           -3.111827627944     1.757103572540     1.034221131846
    H           -1.862164497966     0.694158898615     1.696966471866

  Mulliken Charges: (a.u.)
   Center  Symbol    Alpha    Beta     Spin     Total
       1     O     4.26361  4.26361  0.00000 -0.52722
       2     C     2.73730  2.73730  0.00000  0.52540
       3     C     3.20447  3.20447  0.00000 -0.40894
       4     C     3.29161  3.29161  0.00000 -0.58322
       5     C     3.16338  3.16338  0.00000 -0.32676
       6     H     0.39970  0.39970  0.00000  0.20059
       7     H     0.40099  0.40099  0.00000  0.19802
       8     C     3.15326  3.15326  0.00000 -0.30652
       9     H     0.41775  0.41775  0.00000  0.16451
      10     H     0.42050  0.42050  0.00000  0.15899
      11     C     3.15293  3.15293  0.00000 -0.30585
      12     H     0.42125  0.42125  0.00000  0.15749
      13     H     0.41987  0.41987  0.00000  0.16025
      14     C     3.24180  3.24180  0.00000 -0.48360
      15     H     0.41860  0.41860  0.00000  0.16280
      16     H     0.42263  0.42263  0.00000  0.15474
      17     H     0.42100  0.42100  0.00000  0.15799
      18     H     0.41738  0.41738  0.00000  0.16523
      19     H     0.42104  0.42104  0.00000  0.15792
      20     H     0.40780  0.40780  0.00000  0.18439
      21     H     0.39547  0.39547  0.00000  0.20906
      22     H     0.40765  0.40765  0.00000  0.18470

   Total alpha = 32.00000, Total beta = 32.00000, Total charge =  0.00000
