  ==> Input File <==

--------------------------------------------------------------------------
set {
	reference rhf
	basis 6-31G*
}

set_num_threads( 4 )
memory 2 gb

molecule MOL {
0 1

H	 -2.432808	 2.247193	 1.135366
O	 -1.745173	 1.652581	 0.871740
C	 -2.306886	 0.532354	 0.237577
C	 -1.177863	 -0.397191	 -0.171080
H	 -2.991260	 0.015235	 0.908790
H	 -2.877004	 0.834606	 -0.639890
C	 0.198102	 0.111031	 0.262842
H	 -1.208843	 -0.518759	 -1.250427
H	 -1.368741	 -1.376554	 0.258909
C	 1.331804	 -0.827780	 -0.158768
H	 0.361943	 1.100838	 -0.156218
H	 0.217265	 0.229072	 1.345532
C	 2.723619	 -0.410569	 0.329459
H	 1.342964	 -0.912588	 -1.244120
H	 1.116806	 -1.824343	 0.220779
C	 3.243875	 0.895854	 -0.272975
H	 3.424222	 -1.207124	 0.091250
H	 2.714788	 -0.329854	 1.414619
H	 3.251977	 0.848779	 -1.358681
H	 2.637085	 1.747371	 0.016682
H	 4.259473	 1.094070	 0.055697

	symmetry c1
}
set optking {
	frozen_dihedral = ("
		2 3 4 8
	")
}

ee = optimize('scf')
oeprop('DIPOLE', 'QUADRUPOLE', 'MULLIKEN_CHARGES')
f=open( 'psi4out.xyz', 'w' )
f.write( "21  " )
f.write( str(ee) + "\n" )
f.write( MOL.save_string_xyz() )
f.close()
--------------------------------------------------------------------------

    Molecular point group: c1
  Charge       = 0
  Multiplicity = 1
  Basis Set: 6-31G*
  Basis Set:
  @DF-RHF Final Energy:  -310.20241359684269
    Total Energy =                       -310.2024135968424616
    Molecular point group: c1
  Basis Set: 6-31G*
  Basis Set:
  Basis Set: 6-31G*
  Basis Set:
  @DF-RHF Final Energy:  -310.20275584821155
    Total Energy =                       -310.2027558482115523
  Basis Set: 6-31G*
  Basis Set:
  Basis Set: 6-31G*
  Basis Set:
  @DF-RHF Final Energy:  -310.20434150453241
    Total Energy =                       -310.2043415045325219
  Basis Set: 6-31G*
  Basis Set:
  Basis Set: 6-31G*
  Basis Set:
  @DF-RHF Final Energy:  -310.20440654708966
    Total Energy =                       -310.2044065470894338
  Basis Set: 6-31G*
  Basis Set:
  @DF-RHF Final Energy:  -310.20440539567454
    Total Energy =                       -310.2044053956744278
  Basis Set: 6-31G*
  Basis Set:
  @DF-RHF Final Energy:  -310.20440907268375
    Total Energy =                       -310.2044090726833474
  Basis Set: 6-31G*
  Basis Set:
  Basis Set: 6-31G*
  Basis Set:
  @DF-RHF Final Energy:  -310.20441024021540
    Total Energy =                       -310.2044102402156227
  Basis Set: 6-31G*
  Basis Set:
  Basis Set: 6-31G*
  Basis Set:
  @DF-RHF Final Energy:  -310.20440902316761
    Total Energy =                       -310.2044090231676137
  Basis Set: 6-31G*
  Basis Set:
  Charge       = 0
  Multiplicity = 1
  Basis Set: 6-31G*
  Basis Set:

    Orbital Energies (a.u.)
    -----------------------

    Doubly Occupied:

       1A    -20.552401     2A    -11.268905     3A    -11.212905
       4A    -11.209012     5A    -11.206534     6A    -11.202529
       7A    -11.201830     8A     -1.359098     9A     -1.077309
      10A     -1.024863    11A     -0.950336    12A     -0.875131
      13A     -0.799557    14A     -0.771187    15A     -0.694482
      16A     -0.655309    17A     -0.616136    18A     -0.602312
      19A     -0.583241    20A     -0.561722    21A     -0.531853
      22A     -0.519908    23A     -0.493748    24A     -0.492703
      25A     -0.481960    26A     -0.456342    27A     -0.447915
      28A     -0.435352    29A     -0.422284

  @DF-RHF Final Energy:  -310.20441039924691

   => Energetics <=

    Nuclear Repulsion Energy =            318.1886728258130574
    One-Electron Energy =               -1051.3724374233879644
    Two-Electron Energy =                 422.9793541983277123
    DFT Exchange-Correlation Energy =       0.0000000000000000
    Empirical Dispersion Energy =           0.0000000000000000
    PCM Polarization Energy =               0.0000000000000000
    EFP Energy =                            0.0000000000000000
    Total Energy =                       -310.2044103992472515
    Molecular point group: c1
  Basis Set: 6-31G*
  Basis Set:

  -Total Gradient:
     Atom            X                  Y                   Z
    ------   -----------------  -----------------  -----------------
       1       -0.000000131782    -0.000003424544    -0.000001632725
       2       -0.000040867721    -0.000344980671     0.000630648352
       3       -0.000071311700     0.000284986840    -0.000812642232
       4        0.000653707753     0.000810857063     0.000092645166
       5        0.000000085995     0.000000481787     0.000001048810
       6       -0.000000558803    -0.000000963284    -0.000000732047
       7       -0.000004765429    -0.000001898059    -0.000000405726
       8       -0.000536284273    -0.000744056514     0.000091586749
       9       -0.000000638455    -0.000000003535     0.000000267498
      10        0.000002138760    -0.000001539590    -0.000001401315
      11       -0.000000753613    -0.000000178937    -0.000000291099
      12       -0.000000420061    -0.000000079987     0.000000532882
      13       -0.000001201543     0.000000809425     0.000000397538
      14       -0.000000219553    -0.000000565081    -0.000000197021
      15       -0.000000432070     0.000000127999    -0.000000198752
      16        0.000000722389     0.000000075012     0.000000324021
      17        0.000000111429     0.000000398454     0.000000030367
      18        0.000000425170    -0.000000075813     0.000000137890
      19       -0.000000186482    -0.000000043788     0.000000057673
      20        0.000000553404    -0.000000052355     0.000000044456
      21        0.000000026591     0.000000125578    -0.000000220487

  **** Optimization is complete! (in 9 steps) ****
    Final optimized geometry and variables:
    Molecular point group: c1

    Geometry (in Angstrom), charge = 0, multiplicity = 1:

    H           -2.892942330290     1.962636524174     0.952231174723
    O           -2.150273187520     1.425123314177     0.716945951541
    C           -2.608866307729     0.263996613364     0.069231029150
    C           -1.423584168689    -0.639299320039    -0.333984119162
    H           -3.278573969261    -0.281997382377     0.729580441585
    H           -3.183064208284     0.535719378474    -0.813313135233
    C           -0.042623487636    -0.140950379478     0.102319064141
    H           -1.427252872827    -0.769923431598    -1.412879964622
    H           -1.583714847517    -1.630755435187     0.081442911205
    C            1.067987240118    -1.100449989081    -0.334153136710
    H            0.127436958265     0.846448893780    -0.309400605939
    H           -0.021265350492    -0.027064291868     1.181868384164
    C            2.470866168984    -0.707075453909     0.143188520533
    H            1.071416029866    -1.183354817235    -1.420399241841
    H            0.843315435658    -2.096221310792     0.043914126887
    C            3.005296617931     0.593095113529    -0.460260423488
    H            3.157767167384    -1.513659049205    -0.102332050066
    H            2.471412704610    -0.628072639151     1.228402502067
    H            3.005280523526     0.547731137637    -1.546226486540
    H            2.411624513475     1.451397248208    -0.164762374546
    H            4.026090457729     0.776324928060    -0.138479107373

  Mulliken Charges: (a.u.)
   Center  Symbol    Alpha    Beta     Spin     Total
       1     H     0.28055  0.28055  0.00000  0.43891
       2     O     4.37164  4.37164  0.00000 -0.74328
       3     C     2.99020  2.99020  0.00000  0.01959
       4     C     3.17708  3.17708  0.00000 -0.35416
       5     H     0.43030  0.43030  0.00000  0.13940
       6     H     0.43004  0.43004  0.00000  0.13992
       7     C     3.14536  3.14536  0.00000 -0.29072
       8     H     0.41992  0.41992  0.00000  0.16016
       9     H     0.42037  0.42037  0.00000  0.15925
      10     C     3.15427  3.15427  0.00000 -0.30853
      11     H     0.41178  0.41178  0.00000  0.17644
      12     H     0.41653  0.41653  0.00000  0.16694
      13     C     3.15137  3.15137  0.00000 -0.30273
      14     H     0.42646  0.42646  0.00000  0.14709
      15     H     0.42486  0.42486  0.00000  0.15027
      16     C     3.24136  3.24136  0.00000 -0.48271
      17     H     0.42280  0.42280  0.00000  0.15439
      18     H     0.42333  0.42333  0.00000  0.15334
      19     H     0.42351  0.42351  0.00000  0.15297
      20     H     0.41753  0.41753  0.00000  0.16494
      21     H     0.42074  0.42074  0.00000  0.15852

   Total alpha = 29.00000, Total beta = 29.00000, Total charge =  0.00000
