  ==> Input File <==

--------------------------------------------------------------------------
set {
	reference rhf
	basis cc-pvtz
}

set_num_threads( 4 )
memory 2 gb

molecule MOL {
0 1

H	 2.489930	 -1.237810	 -1.085652
N	 1.511520	 -1.049876	 -1.103063
C	 1.250156	 0.335394	 -0.767564
C	 0.800590	 -1.954578	 -0.222190
H	 1.777421	 0.974398	 -1.465430
H	 1.586915	 0.588358	 0.239521
C	 -0.240822	 0.603931	 -0.862152
H	 1.002090	 -2.974939	 -0.524866
H	 1.108946	 -1.846294	 0.819352
C	 -0.689799	 -1.683039	 -0.317493
H	 -0.554655	 0.503408	 -1.905222
H	 -0.444870	 1.622762	 -0.554798
N	 -0.976577	 -0.298712	 -0.000000
H	 -1.218485	 -2.317832	 0.383684
H	 -1.034562	 -1.941115	 -1.323041
C	 -2.391156	 -0.021003	 -0.000000
H	 -2.853954	 -0.458728	 -0.875714
H	 -2.853954	 -0.458728	 0.875714
H	 -2.614037	 1.049773	 -0.000000

	symmetry c1
}
set optking {
	frozen_dihedral = ("
		7 13 16 19
	")
}

ee = optimize('scf')
oeprop('DIPOLE', 'QUADRUPOLE', 'MULLIKEN_CHARGES')
f=open( 'psi4out.xyz', 'w' )
f.write( "19  " )
f.write( str(ee) + "\n" )
f.write( MOL.save_string_xyz() )
f.close()
--------------------------------------------------------------------------

    Molecular point group: c1
  Charge       = 0
  Multiplicity = 1
  Basis Set: CC-PVTZ
  Basis Set:
  @DF-RHF Final Energy:  -305.30721173428492
    Total Energy =                       -305.3072117342848060
    Molecular point group: c1
  Basis Set: CC-PVTZ
  Basis Set:
  Basis Set: CC-PVTZ
  Basis Set:
  @DF-RHF Final Energy:  -305.30795595063228
    Total Energy =                       -305.3079559506326177
  Basis Set: CC-PVTZ
  Basis Set:
  Basis Set: CC-PVTZ
  Basis Set:
  @DF-RHF Final Energy:  -305.30804325999361
    Total Energy =                       -305.3080432599937240
  Basis Set: CC-PVTZ
  Basis Set:
  Basis Set: CC-PVTZ
  Basis Set:
  @DF-RHF Final Energy:  -305.30804617170975
    Total Energy =                       -305.3080461717102025
  Basis Set: CC-PVTZ
  Basis Set:
  Charge       = 0
  Multiplicity = 1
  Basis Set: CC-PVTZ
  Basis Set:

    Orbital Energies (a.u.)
    -----------------------

    Doubly Occupied:

       1A    -15.535107     2A    -15.531232     3A    -11.237200
       4A    -11.237179     5A    -11.236057     6A    -11.235831
       7A    -11.233278     8A     -1.248864     9A     -1.187332
      10A     -1.024293    11A     -0.965799    12A     -0.862250
      13A     -0.858305    14A     -0.756806    15A     -0.692695
      16A     -0.635029    17A     -0.627596    18A     -0.608085
      19A     -0.605922    20A     -0.582014    21A     -0.544472
      22A     -0.529415    23A     -0.512702    24A     -0.490138
      25A     -0.468905    26A     -0.458598    27A     -0.366080
      28A     -0.344533

  @DF-RHF Final Energy:  -305.30804654749232

   => Energetics <=

    Nuclear Repulsion Energy =            340.1905319293301204
    One-Electron Energy =               -1087.7657213674422110
    Two-Electron Energy =                 442.2671428906197661
    DFT Exchange-Correlation Energy =       0.0000000000000000
    Empirical Dispersion Energy =           0.0000000000000000
    PCM Polarization Energy =               0.0000000000000000
    EFP Energy =                            0.0000000000000000
    Total Energy =                       -305.3080465474923813
    Molecular point group: c1
  Basis Set: CC-PVTZ
  Basis Set:

  -Total Gradient:
     Atom            X                  Y                   Z
    ------   -----------------  -----------------  -----------------
       1        0.000000543724     0.000004352954    -0.000000240598
       2       -0.000003959526     0.000000727685    -0.000003375323
       3        0.000005981325     0.000007538340     0.000010102723
       4       -0.000010148690    -0.000002579984    -0.000005836271
       5        0.000006828441    -0.000000049312    -0.000002370536
       6       -0.000001203871     0.000001986154     0.000000794400
       7        0.000343308124     0.001577817318     0.001958732963
       8        0.000006742798    -0.000004738871    -0.000000643416
       9       -0.000005107710     0.000002155566    -0.000007611877
      10       -0.000008677363    -0.000014840015     0.000006444390
      11       -0.000007259079    -0.000006426614     0.000013680597
      12        0.000003619677    -0.000001744986     0.000000914178
      13       -0.000479177877    -0.002183960559    -0.003609648920
      14       -0.000005560720     0.000001519671    -0.000000063100
      15        0.000007329388     0.000011021680     0.000011179054
      16        0.000183125986     0.000551806118     0.004993541147
      17       -0.000007019718    -0.000006733969    -0.000001880487
      18        0.000021538853    -0.000007834664    -0.000021590371
      19       -0.000050903763     0.000069983486    -0.003342128554

  **** Optimization is complete! (in 5 steps) ****
    Final optimized geometry and variables:
    Molecular point group: c1

    Geometry (in Angstrom), charge = 0, multiplicity = 1:

    H            2.606488318613    -0.654243129688    -0.608171931580
    N            1.627676525519    -0.468231283752    -0.626917019994
    C            1.363795653992     0.917598793691    -0.295995707932
    C            0.917613680729    -1.371563727335     0.255914765120
    H            1.897677432844     1.555683217478    -0.989775994423
    H            1.692015473707     1.171091921090     0.713948364416
    C           -0.126418511824     1.188549507034    -0.402561057727
    H            1.124756085448    -2.392812699675    -0.040164233501
    H            1.221566601562    -1.255957754260     1.298050004975
    C           -0.573268321585    -1.105892451707     0.151983647345
    H           -0.428119485538     1.099436967651    -1.450740288043
    H           -0.330784173118     2.204323239911    -0.086911921733
    N           -0.866522466296     0.279512481676     0.446715857857
    H           -1.104002904979    -1.732405347344     0.859805965594
    H           -0.914255854654    -1.379539480803    -0.850897227605
    C           -2.282730617067     0.549574027306     0.476504042051
    H           -2.801661805433     0.165221219497    -0.406577191637
    H           -2.736767779996     0.101216623718     1.351810619873
    H           -2.455869475321     1.617525864582     0.500569120339

  Mulliken Charges: (a.u.)
   Center  Symbol    Alpha    Beta     Spin     Total
       1     H     0.43993  0.43993  0.00000  0.12015
       2     N     3.64283  3.64283  0.00000 -0.28565
       3     C     3.04153  3.04153  0.00000 -0.08306
       4     C     3.04066  3.04066  0.00000 -0.08133
       5     H     0.45252  0.45252  0.00000  0.09496
       6     H     0.46570  0.46570  0.00000  0.06860
       7     C     3.03238  3.03238  0.00000 -0.06476
       8     H     0.45247  0.45247  0.00000  0.09505
       9     H     0.46560  0.46560  0.00000  0.06881
      10     C     3.03426  3.03426  0.00000 -0.06852
      11     H     0.47002  0.47002  0.00000  0.05995
      12     H     0.45416  0.45416  0.00000  0.09168
      13     N     3.61415  3.61415  0.00000 -0.22831
      14     H     0.45460  0.45460  0.00000  0.09080
      15     H     0.46811  0.46811  0.00000  0.06378
      16     C     3.09610  3.09610  0.00000 -0.19219
      17     H     0.47007  0.47007  0.00000  0.05986
      18     H     0.45095  0.45095  0.00000  0.09810
      19     H     0.45397  0.45397  0.00000  0.09207

   Total alpha = 28.00000, Total beta = 28.00000, Total charge = -0.00000
