  ==> Input File <==

--------------------------------------------------------------------------
set {
	reference rhf
	basis 6-31G*
}

set_num_threads( 4 )
memory 2 gb

molecule MOL {
0 1

H	 2.273715	 -5.291421	 2.260275
C	 2.188905	 -4.323957	 1.799958
C	 1.017802	 -3.953072	 1.147895
C	 3.239418	 -3.430812	 1.846512
H	 0.188569	 -4.636492	 1.101663
C	 0.905386	 -2.713392	 0.556495
H	 4.152893	 -3.700408	 2.346478
C	 3.142018	 -2.175927	 1.254707
H	 0.006753	 -2.414231	 0.049744
C	 1.970329	 -1.816443	 0.607406
H	 3.976266	 -1.503720	 1.307958
O	 1.765256	 -0.628444	 0.000000
C	 2.778419	 0.335181	 0.000000
H	 2.731280	 0.961222	 -0.884976
H	 3.711703	 -0.207767	 0.000000
H	 2.731280	 0.961222	 0.884976

	symmetry c1
}
set optking {
	frozen_dihedral = ("
		10 12 13 14
	")
}

ee = optimize('scf')
oeprop('DIPOLE', 'QUADRUPOLE', 'MULLIKEN_CHARGES')
f=open( 'psi4out.xyz', 'w' )
f.write( "16  " )
f.write( str(ee) + "\n" )
f.write( MOL.save_string_xyz() )
f.close()
--------------------------------------------------------------------------

    Molecular point group: c1
  Charge       = 0
  Multiplicity = 1
  Basis Set: 6-31G*
  Basis Set:
  @DF-RHF Final Energy:  -344.57659362989426
    Total Energy =                       -344.5765936298940346
    Molecular point group: c1
  Basis Set: 6-31G*
  Basis Set:
  Basis Set: 6-31G*
  Basis Set:
  @DF-RHF Final Energy:  -344.57826089029066
    Total Energy =                       -344.5782608902907214
  Basis Set: 6-31G*
  Basis Set:
  Basis Set: 6-31G*
  Basis Set:
  @DF-RHF Final Energy:  -344.58057871880663
    Total Energy =                       -344.5805787188065779
  Basis Set: 6-31G*
  Basis Set:
  Basis Set: 6-31G*
  Basis Set:
  @DF-RHF Final Energy:  -344.58087120051027
    Total Energy =                       -344.5808712005103303
  Basis Set: 6-31G*
  Basis Set:
  @DF-RHF Final Energy:  -344.58095885539359
    Total Energy =                       -344.5809588553937033
  Basis Set: 6-31G*
  Basis Set:
  @DF-RHF Final Energy:  -344.58096289738864
    Total Energy =                       -344.5809628973886447
  Basis Set: 6-31G*
  Basis Set:
  Basis Set: 6-31G*
  Basis Set:
  @DF-RHF Final Energy:  -344.58094570927085
    Total Energy =                       -344.5809457092707930
  Basis Set: 6-31G*
  Basis Set:
  Basis Set: 6-31G*
  Basis Set:
  @DF-RHF Final Energy:  -344.58096389680065
    Total Energy =                       -344.5809638968007675
  Basis Set: 6-31G*
  Basis Set:
  Charge       = 0
  Multiplicity = 1
  Basis Set: 6-31G*
  Basis Set:

    Orbital Energies (a.u.)
    -----------------------

    Doubly Occupied:

       1A    -20.581836     2A    -11.293073     3A    -11.279177
       4A    -11.232989     5A    -11.231434     6A    -11.224061
       7A    -11.220016     8A    -11.219491     9A     -1.410636
      10A     -1.145856    11A     -1.020850    12A     -1.012853
      13A     -0.940407    14A     -0.830960    15A     -0.804753
      16A     -0.719865    17A     -0.663777    18A     -0.661856
      19A     -0.652924    20A     -0.615530    21A     -0.587836
      22A     -0.578314    23A     -0.524159    24A     -0.517362
      25A     -0.507900    26A     -0.478018    27A     -0.456641
      28A     -0.334468    29A     -0.306328

  @DF-RHF Final Energy:  -344.58096455009684

   => Energetics <=

    Nuclear Repulsion Energy =            347.9267335074497396
    One-Electron Energy =               -1156.9086532134897425
    Two-Electron Energy =                 464.4009551559430520
    DFT Exchange-Correlation Energy =       0.0000000000000000
    Empirical Dispersion Energy =           0.0000000000000000
    PCM Polarization Energy =               0.0000000000000000
    EFP Energy =                            0.0000000000000000
    Total Energy =                       -344.5809645500969509
    Molecular point group: c1
  Basis Set: 6-31G*
  Basis Set:

  -Total Gradient:
     Atom            X                  Y                   Z
    ------   -----------------  -----------------  -----------------
       1       -0.000006698552    -0.000003092669     0.000000893582
       2        0.000036959162     0.000022283133     0.000026410917
       3       -0.000016470112     0.000015062845    -0.000039802704
       4       -0.000003627260    -0.000048950780    -0.000007561604
       5        0.000005465099    -0.000000606787     0.000005806373
       6        0.000000915564    -0.000016516257    -0.000023468121
       7       -0.000001142391     0.000004890685     0.000000235342
       8       -0.000017828821     0.000032091474    -0.000042253813
       9        0.000001683779     0.000004312461    -0.000000872089
      10        0.000033093219    -0.001007171469    -0.002371514692
      11        0.000004115246     0.000000158315    -0.000007115698
      12        0.000127705127     0.001055104484     0.003177610635
      13       -0.001117773146     0.001971782231     0.001250590554
      14        0.000949520970    -0.002068078437    -0.001965084222
      15        0.000001560237     0.000002881781     0.000011847840
      16        0.000002521875     0.000035848987    -0.000015722301

  **** Optimization is complete! (in 9 steps) ****
    Final optimized geometry and variables:
    Molecular point group: c1

    Geometry (in Angstrom), charge = 0, multiplicity = 1:

    H            0.175066879100    -3.117931687522     1.211278424987
    C            0.073071953462    -2.119712163964     0.826095813150
    C           -1.081923336570    -1.739045490303     0.153586563221
    C            1.086088440113    -1.196353311209     0.995005107784
    H           -1.880641044303    -2.445925199955     0.014782235103
    C           -1.215292544075    -0.460045569074    -0.346404715237
    H            1.983602058973    -1.472016574687     1.519904659250
    C            0.963386752234     0.096946399137     0.502239397482
    H           -2.100809421536    -0.153478513486    -0.871427217132
    C           -0.188511803170     0.463526655967    -0.176616181523
    H            1.755594066372     0.803614280911     0.662484435821
    O           -0.408674576283     1.700516488176    -0.673678606754
    C            0.674502944461     2.530649897986    -0.993337452907
    H            0.352248237162     3.164113719879    -1.807484572271
    H            1.528694737187     1.954841305028    -1.329803346889
    H            0.965344021422     3.140904546039    -0.145291202278

  Mulliken Charges: (a.u.)
   Center  Symbol    Alpha    Beta     Spin     Total
       1     H     0.40111  0.40111  0.00000  0.19777
       2     C     3.11151  3.11151  0.00000 -0.22301
       3     C     3.09242  3.09242  0.00000 -0.18485
       4     C     3.09165  3.09165  0.00000 -0.18330
       5     H     0.39876  0.39876  0.00000  0.20247
       6     C     3.12522  3.12522  0.00000 -0.25045
       7     H     0.39951  0.39951  0.00000  0.20099
       8     C     3.14060  3.14060  0.00000 -0.28120
       9     H     0.39308  0.39308  0.00000  0.21383
      10     C     2.78526  2.78526  0.00000  0.42947
      11     H     0.39744  0.39744  0.00000  0.20511
      12     O     4.32825  4.32825  0.00000 -0.65649
      13     C     3.08964  3.08964  0.00000 -0.17929
      14     H     0.40717  0.40717  0.00000  0.18566
      15     H     0.41965  0.41965  0.00000  0.16071
      16     H     0.41871  0.41871  0.00000  0.16257

   Total alpha = 29.00000, Total beta = 29.00000, Total charge =  0.00000
