  ==> Input File <==

--------------------------------------------------------------------------
set {
	reference rhf
	basis cc-pvtz
}

set_num_threads( 4 )
memory 2 gb

molecule MOL {
0 1

O	 0.965652	 -0.102080	 -0.701540
C	 0.029490	 0.077183	 0.000078
C	 -1.232113	 -0.748027	 0.000015
O	 -0.030524	 1.048580	 0.895633
C	 -2.501422	 0.088592	 -0.000052
H	 -1.188777	 -1.400384	 -0.865133
H	 -1.188857	 -1.400312	 0.865225
H	 -2.548170	 0.725504	 -0.873205
H	 -3.371613	 -0.556398	 -0.000040
H	 -2.548215	 0.725571	 0.873047
C	 1.090600	 1.902535	 1.002796
H	 1.972124	 1.341833	 1.276225
H	 0.849068	 2.615764	 1.774024
H	 1.272664	 2.411575	 0.067929

	symmetry c1
}
set optking {
	frozen_dihedral = ("
		4 2 3 6
	")
}

ee = optimize('scf')
oeprop('DIPOLE', 'QUADRUPOLE', 'MULLIKEN_CHARGES')
f=open( 'psi4out.xyz', 'w' )
f.write( "14  " )
f.write( str(ee) + "\n" )
f.write( MOL.save_string_xyz() )
f.close()
--------------------------------------------------------------------------

    Molecular point group: c1
  Charge       = 0
  Multiplicity = 1
  Basis Set: CC-PVTZ
  Basis Set:
  @DF-RHF Final Energy:  -305.98553561646816
    Total Energy =                       -305.9855356164683826
    Molecular point group: c1
  Basis Set: CC-PVTZ
  Basis Set:
  Basis Set: CC-PVTZ
  Basis Set:
  @DF-RHF Final Energy:  -305.98560680578203
    Total Energy =                       -305.9856068057819698
  Basis Set: CC-PVTZ
  Basis Set:
  Basis Set: CC-PVTZ
  Basis Set:
  @DF-RHF Final Energy:  -305.98584186692466
    Total Energy =                       -305.9858418669246589
  Basis Set: CC-PVTZ
  Basis Set:
  Basis Set: CC-PVTZ
  Basis Set:
  @DF-RHF Final Energy:  -305.98591587292628
    Total Energy =                       -305.9859158729263982
  Basis Set: CC-PVTZ
  Basis Set:
  Charge       = 0
  Multiplicity = 1
  Basis Set: CC-PVTZ
  Basis Set:

    Orbital Energies (a.u.)
    -----------------------

    Doubly Occupied:

       1A    -20.598302     2A    -20.533173     3A    -11.364770
       4A    -11.279574     5A    -11.236914     6A    -11.222405
       7A     -1.473319     8A     -1.365538     9A     -1.068150
      10A     -0.976232    11A     -0.887191    12A     -0.776744
      13A     -0.698021    14A     -0.683695    15A     -0.676875
      16A     -0.621656    17A     -0.588433    18A     -0.568161
      19A     -0.546764    20A     -0.522141    21A     -0.515332
      22A     -0.501199    23A     -0.460593    24A     -0.437496

  @DF-RHF Final Energy:  -305.98591689777322

   => Energetics <=

    Nuclear Repulsion Energy =            248.7917802707991086
    One-Electron Energy =                -910.3500326298353684
    Two-Electron Energy =                 355.5723354612628668
    DFT Exchange-Correlation Energy =       0.0000000000000000
    Empirical Dispersion Energy =           0.0000000000000000
    PCM Polarization Energy =               0.0000000000000000
    EFP Energy =                            0.0000000000000000
    Total Energy =                       -305.9859168977733930
    Molecular point group: c1
  Basis Set: CC-PVTZ
  Basis Set:

  -Total Gradient:
     Atom            X                  Y                   Z
    ------   -----------------  -----------------  -----------------
       1       -0.000035404727     0.000144372214     0.000121090018
       2        0.000290493268    -0.000548326764     0.000315974560
       3        0.000118293145    -0.000248043080     0.000315539075
       4       -0.000159902167     0.000360116073    -0.000410095922
       5        0.000087306862    -0.000079689687    -0.000038792086
       6       -0.000302920728     0.000399361999    -0.000351703327
       7        0.000017859201    -0.000055582576     0.000004729743
       8       -0.000003999462     0.000001616318     0.000025463515
       9       -0.000019053474    -0.000001316505     0.000006060914
      10        0.000002475059     0.000011433684    -0.000005016274
      11       -0.000039678672    -0.000012523396     0.000019056874
      12        0.000010534532     0.000002705312     0.000002649639
      13        0.000030562345     0.000020539537     0.000000929000
      14        0.000003434816     0.000005336871    -0.000005885729

  **** Optimization is complete! (in 5 steps) ****
    Final optimized geometry and variables:
    Molecular point group: c1

    Geometry (in Angstrom), charge = 0, multiplicity = 1:

    O            1.222987543856    -0.508926448331    -0.902916392148
    C            0.287156026585    -0.311859087935    -0.204836061186
    C           -0.969217735335    -1.146604591826    -0.208568471670
    O            0.243630679389     0.664595519638     0.685475476638
    C           -2.265242281410    -0.339422961683    -0.211226441372
    H           -0.910856558566    -1.789588870536    -1.074267986157
    H           -0.929832918383    -1.778160347073     0.673459132747
    H           -2.317378009336     0.312782307786    -1.075228625136
    H           -3.115140801143    -1.009258030888    -0.249613193348
    H           -2.352228241697     0.270507483298     0.676617803439
    C            1.382406459413     1.495074455773     0.793443277439
    H            2.250040371570     0.916833754534     1.074393453011
    H            1.152342663023     2.217956334385     1.559227524626
    H            1.579724799146     1.993879058721    -0.143662161096

  Mulliken Charges: (a.u.)
   Center  Symbol    Alpha    Beta     Spin     Total
       1     O     4.19910  4.19910  0.00000 -0.39821
       2     C     2.80361  2.80361  0.00000  0.39278
       3     C     3.08603  3.08603  0.00000 -0.17206
       4     O     4.14833  4.14833  0.00000 -0.29665
       5     C     3.14674  3.14674  0.00000 -0.29349
       6     H     0.43543  0.43543  0.00000  0.12913
       7     H     0.44744  0.44744  0.00000  0.10512
       8     H     0.45119  0.45119  0.00000  0.09762
       9     H     0.44842  0.44842  0.00000  0.10315
      10     H     0.44579  0.44579  0.00000  0.10842
      11     C     3.03474  3.03474  0.00000 -0.06948
      12     H     0.45334  0.45334  0.00000  0.09332
      13     H     0.44592  0.44592  0.00000  0.10816
      14     H     0.45391  0.45391  0.00000  0.09219

   Total alpha = 24.00000, Total beta = 24.00000, Total charge = -0.00000
