  ==> Input File <==

--------------------------------------------------------------------------
set {
	reference rhf
	basis 6-31G*
}

set_num_threads( 4 )
memory 2 gb

molecule MOL {
0 1

H	 -3.312655	 0.861800	 1.698222
O	 -2.454169	 1.141502	 1.414418
C	 -2.026376	 0.340750	 0.341611
C	 -0.673256	 0.843270	 -0.132153
H	 -1.943032	 -0.698690	 0.653951
H	 -2.745151	 0.381301	 -0.475929
C	 0.486613	 -0.083066	 0.235839
H	 -0.715586	 0.970948	 -1.210718
H	 -0.508072	 1.829858	 0.297090
C	 1.840406	 0.433480	 -0.254303
H	 0.300215	 -1.068318	 -0.178947
H	 0.519509	 -0.203625	 1.318070
C	 3.000220	 -0.489290	 0.118523
H	 1.809207	 0.553576	 -1.335192
H	 2.021860	 1.424500	 0.157276
H	 2.864959	 -1.479103	 -0.307933
H	 3.946603	 -0.099227	 -0.243630
H	 3.080049	 -0.602997	 1.196117

	symmetry c1
}
set optking {
	frozen_dihedral = ("
		2 3 4 8
	")
}

ee = optimize('scf')
oeprop('DIPOLE', 'QUADRUPOLE', 'MULLIKEN_CHARGES')
f=open( 'psi4out.xyz', 'w' )
f.write( "18  " )
f.write( str(ee) + "\n" )
f.write( MOL.save_string_xyz() )
f.close()
--------------------------------------------------------------------------

    Molecular point group: c1
  Charge       = 0
  Multiplicity = 1
  Basis Set: 6-31G*
  Basis Set:
  @DF-RHF Final Energy:  -271.17415457562078
    Total Energy =                       -271.1741545756210598
    Molecular point group: c1
  Basis Set: 6-31G*
  Basis Set:
  Basis Set: 6-31G*
  Basis Set:
  @DF-RHF Final Energy:  -271.17456016865879
    Total Energy =                       -271.1745601686585587
  Basis Set: 6-31G*
  Basis Set:
  Basis Set: 6-31G*
  Basis Set:
  @DF-RHF Final Energy:  -271.17465413851380
    Total Energy =                       -271.1746541385136311
  Basis Set: 6-31G*
  Basis Set:
  Basis Set: 6-31G*
  Basis Set:
  @DF-RHF Final Energy:  -271.17465193061264
    Total Energy =                       -271.1746519306125265
  Basis Set: 6-31G*
  Basis Set:
  Basis Set: 6-31G*
  Basis Set:
  @DF-RHF Final Energy:  -271.17466017867298
    Total Energy =                       -271.1746601786731503
  Basis Set: 6-31G*
  Basis Set:
  Charge       = 0
  Multiplicity = 1
  Basis Set: 6-31G*
  Basis Set:

    Orbital Energies (a.u.)
    -----------------------

    Doubly Occupied:

       1A    -20.551482     2A    -11.267533     3A    -11.213472
       4A    -11.212653     5A    -11.210695     6A    -11.207098
       7A     -1.357528     8A     -1.077147     9A     -1.008075
      10A     -0.912848    11A     -0.820109    12A     -0.789797
      13A     -0.701704    14A     -0.639751    15A     -0.628905
      16A     -0.578508    17A     -0.571413    18A     -0.560043
      19A     -0.526038    20A     -0.497114    21A     -0.489027
      22A     -0.469200    23A     -0.461947    24A     -0.452841
      25A     -0.425530

  @DF-RHF Final Energy:  -271.17466034913951

   => Energetics <=

    Nuclear Repulsion Energy =            246.4413354261844802
    One-Electron Energy =                -855.9710776816153839
    Two-Electron Energy =                 338.3550819062912183
    DFT Exchange-Correlation Energy =       0.0000000000000000
    Empirical Dispersion Energy =           0.0000000000000000
    PCM Polarization Energy =               0.0000000000000000
    EFP Energy =                            0.0000000000000000
    Total Energy =                       -271.1746603491396286
    Molecular point group: c1
  Basis Set: 6-31G*
  Basis Set:

  -Total Gradient:
     Atom            X                  Y                   Z
    ------   -----------------  -----------------  -----------------
       1        0.000005467694    -0.000002443100    -0.000007220943
       2       -0.001167310219     0.001591207114    -0.001629459792
       3        0.001279051554    -0.001296611670     0.002208938792
       4        0.000829426555    -0.003467357122    -0.000995498946
       5       -0.000002600468    -0.000000677512    -0.000001167059
       6        0.000000628226     0.000004137129     0.000002185393
       7       -0.000000995329     0.000005474378     0.000006653702
       8       -0.000948652468     0.003165427125     0.000418696887
       9        0.000007146087     0.000002551030     0.000001078007
      10       -0.000002143185    -0.000008273379    -0.000012613552
      11        0.000007318233     0.000013960548    -0.000000839924
      12       -0.000002788062    -0.000003823910     0.000003834101
      13        0.000002020193     0.000000142249     0.000005305839
      14       -0.000003739486     0.000000498971    -0.000001077237
      15       -0.000003240604    -0.000003166346     0.000001569596
      16        0.000001546561     0.000000261982    -0.000002817429
      17       -0.000000300594     0.000002061931     0.000002420670
      18       -0.000000834684    -0.000003369416     0.000000011897

  **** Optimization is complete! (in 6 steps) ****
    Final optimized geometry and variables:
    Molecular point group: c1

    Geometry (in Angstrom), charge = 0, multiplicity = 1:

    H           -3.216548617411     0.483098365303     1.467873655402
    O           -2.396707552139     0.792172386008     1.109028857943
    C           -2.018191069187    -0.026826953016     0.028871480400
    C           -0.656042016828     0.447307249037    -0.488402225689
    H           -1.966598074311    -1.068088021164     0.341404541967
    H           -2.765557171977     0.036069312937    -0.759068816567
    C            0.507325899393    -0.466779246546    -0.102916568089
    H           -0.693856783588     0.579172536771    -1.566696771176
    H           -0.491804496234     1.437987263248    -0.076386342007
    C            1.866531399262     0.063868442924    -0.559789406775
    H            0.348162184209    -1.457172131423    -0.527265198614
    H            0.512766632014    -0.593209046154     0.978063607010
    C            3.026170027516    -0.854607703980    -0.176066929994
    H            1.855930072153     0.199853537166    -1.639391774793
    H            2.029101096744     1.049711829138    -0.129934466649
    H            2.910646153442    -1.839228684892    -0.620614637906
    H            3.976231000847    -0.450200133398    -0.511420156678
    H            3.083451059847    -0.983874871820     0.901022723758

  Mulliken Charges: (a.u.)
   Center  Symbol    Alpha    Beta     Spin     Total
       1     H     0.28194  0.28194  0.00000  0.43612
       2     O     4.37103  4.37103  0.00000 -0.74207
       3     C     2.99662  2.99662  0.00000  0.00677
       4     C     3.16530  3.16530  0.00000 -0.33060
       5     H     0.42995  0.42995  0.00000  0.14010
       6     H     0.42999  0.42999  0.00000  0.14003
       7     C     3.15616  3.15616  0.00000 -0.31233
       8     H     0.42142  0.42142  0.00000  0.15715
       9     H     0.40436  0.40436  0.00000  0.19129
      10     C     3.15232  3.15232  0.00000 -0.30465
      11     H     0.42589  0.42589  0.00000  0.14821
      12     H     0.41797  0.41797  0.00000  0.16406
      13     C     3.23929  3.23929  0.00000 -0.47858
      14     H     0.42367  0.42367  0.00000  0.15265
      15     H     0.42096  0.42096  0.00000  0.15809
      16     H     0.42250  0.42250  0.00000  0.15500
      17     H     0.41940  0.41940  0.00000  0.16119
      18     H     0.42121  0.42121  0.00000  0.15759

   Total alpha = 25.00000, Total beta = 25.00000, Total charge = -0.00000
