  ==> Input File <==

--------------------------------------------------------------------------
set {
	reference rhf
	basis 6-31G*
}

set_num_threads( 4 )
memory 2 gb

molecule MOL {
0 1

H	 -2.281496	 0.004250	 2.316565
C	 -1.815741	 -0.045839	 1.350159
C	 -2.572424	 0.014807	 0.192273
C	 -0.446840	 -0.172146	 1.249631
H	 -3.641503	 0.113398	 0.249649
C	 -1.959500	 -0.050820	 -1.044960
H	 0.166204	 -0.221581	 2.125137
C	 0.154804	 -0.237046	 -0.000077
H	 -2.564142	 -0.001874	 -1.931588
C	 -0.579506	 -0.178758	 -1.189371
N	 1.611208	 -0.370857	 -0.000034
C	 -0.015877	 -0.240956	 -2.592006
O	 2.274126	 0.622059	 -0.008063
O	 2.068510	 -1.474748	 0.007823
H	 0.515947	 -1.166167	 -2.766007
H	 -0.828462	 -0.168248	 -3.303901
H	 0.680290	 0.565464	 -2.776834

	symmetry c1
}
set optking {
	frozen_dihedral = ("
		4 8 11 13
	")
}

ee = optimize('scf')
oeprop('DIPOLE', 'QUADRUPOLE', 'MULLIKEN_CHARGES')
f=open( 'psi4out.xyz', 'w' )
f.write( "17  " )
f.write( str(ee) + "\n" )
f.write( MOL.save_string_xyz() )
f.close()
--------------------------------------------------------------------------

    Molecular point group: c1
  Charge       = 0
  Multiplicity = 1
  Basis Set: 6-31G*
  Basis Set:
  @DF-RHF Final Energy:  -473.19810147268174
    Total Energy =                       -473.1981014726820831
    Molecular point group: c1
  Basis Set: 6-31G*
  Basis Set:
  Basis Set: 6-31G*
  Basis Set:
  @DF-RHF Final Energy:  -473.20049192440763
    Total Energy =                       -473.2004919244077428
  Basis Set: 6-31G*
  Basis Set:
  Basis Set: 6-31G*
  Basis Set:
  @DF-RHF Final Energy:  -473.19304194096435
    Total Energy =                       -473.1930419409643491
  Basis Set: 6-31G*
  Basis Set:
  Basis Set: 6-31G*
  Basis Set:
  @DF-RHF Final Energy:  -473.20073881237016
    Total Energy =                       -473.2007388123697638
  Basis Set: 6-31G*
  Basis Set:
  Basis Set: 6-31G*
  Basis Set:
  @DF-RHF Final Energy:  -473.20085219499850
    Total Energy =                       -473.2008521949981059
  Basis Set: 6-31G*
  Basis Set:
  Basis Set: 6-31G*
  Basis Set:
  @DF-RHF Final Energy:  -473.20085799096830
    Total Energy =                       -473.2008579909684158
  Basis Set: 6-31G*
  Basis Set:
  Basis Set: 6-31G*
  Basis Set:
  @DF-RHF Final Energy:  -473.20085966052693
    Total Energy =                       -473.2008596605269304
  Basis Set: 6-31G*
  Basis Set:
  Charge       = 0
  Multiplicity = 1
  Basis Set: 6-31G*
  Basis Set:

    Orbital Energies (a.u.)
    -----------------------

    Doubly Occupied:

       1A    -20.606277     2A    -20.606219     3A    -15.853414
       4A    -11.302442     5A    -11.276029     6A    -11.267427
       7A    -11.258043     8A    -11.256335     9A    -11.255366
      10A    -11.240419    11A     -1.637098    12A     -1.420906
      13A     -1.202513    14A     -1.092185    15A     -1.072965
      16A     -0.979363    17A     -0.936224    18A     -0.854026
      19A     -0.819701    20A     -0.772827    21A     -0.734339
      22A     -0.730398    23A     -0.695981    24A     -0.652373
      25A     -0.636405    26A     -0.600247    27A     -0.599283
      28A     -0.571047    29A     -0.542732    30A     -0.529556
      31A     -0.520631    32A     -0.493208    33A     -0.478323
      34A     -0.450914    35A     -0.363775    36A     -0.353291

  @DF-RHF Final Energy:  -473.20085992671557

   => Energetics <=

    Nuclear Repulsion Energy =            509.7846571405458462
    One-Electron Energy =               -1654.6464693349480513
    Two-Electron Energy =                 671.6609522676862980
    DFT Exchange-Correlation Energy =       0.0000000000000000
    Empirical Dispersion Energy =           0.0000000000000000
    PCM Polarization Energy =               0.0000000000000000
    EFP Energy =                            0.0000000000000000
    Total Energy =                       -473.2008599267160207
    Molecular point group: c1
  Basis Set: 6-31G*
  Basis Set:

  -Total Gradient:
     Atom            X                  Y                   Z
    ------   -----------------  -----------------  -----------------
       1       -0.000008134894    -0.000002955204    -0.000002921234
       2        0.000024177135    -0.000003279451     0.000010550210
       3       -0.000005290675     0.000013096934    -0.000025790473
       4        0.000000329679    -0.000000719067     0.000001188094
       5        0.000000516309    -0.000001362419     0.000008628872
       6       -0.000008857875    -0.000029158787     0.000007143779
       7        0.000003699926     0.000000056773     0.000001346666
       8       -0.000020382040     0.000005771706    -0.000024787599
       9        0.000004615632    -0.000003069376    -0.000003746842
      10        0.000007409903     0.000052693428     0.000018469662
      11        0.000008307848    -0.000031309980     0.000026526030
      12        0.000005247283    -0.000008837050    -0.000000725717
      13       -0.000003954377    -0.000005729520    -0.000007062383
      14        0.000000298557     0.000020412075    -0.000006823236
      15       -0.000002184686    -0.000002342982    -0.000002064384
      16       -0.000001113816    -0.000000898311    -0.000004357839
      17       -0.000004683920    -0.000002368775     0.000004426394

  **** Optimization is complete! (in 8 steps) ****
    Final optimized geometry and variables:
    Molecular point group: c1

    Geometry (in Angstrom), charge = 0, multiplicity = 1:

    H           -2.235463703631     0.226227244629     2.580251743887
    C           -1.776388084465     0.176547898920     1.610420121567
    C           -2.546551271378     0.239141142629     0.462140282382
    C           -0.402307066564     0.048631960740     1.502472797703
    H           -3.614191459058     0.338355576331     0.536820508743
    C           -1.951285467272     0.174636751224    -0.787770885821
    H            0.222552701538    -0.002693114626     2.374775565835
    C            0.156724231711    -0.012473753812     0.245427528630
    H           -2.563275615838     0.224484674561    -1.670185075213
    C           -0.575426822727     0.046524226553    -0.929521816865
    N            1.613855412388    -0.148197102499     0.158892177514
    C            0.086870618463    -0.025368567536    -2.284985481797
    O            2.254161979482     0.856714030521     0.118885207007
    O            2.058526452939    -1.254130866663     0.134877771896
    H            0.628734840438    -0.957347347145    -2.403678507809
    H           -0.652930897080     0.038712536906    -3.072202257821
    H            0.792994548657     0.787322002937    -2.416018894470

  Mulliken Charges: (a.u.)
   Center  Symbol    Alpha    Beta     Spin     Total
       1     H     0.38989  0.38989  0.00000  0.22021
       2     C     3.10850  3.10850  0.00000 -0.21701
       3     C     3.08877  3.08877  0.00000 -0.17754
       4     C     3.08344  3.08344  0.00000 -0.16688
       5     H     0.39125  0.39125  0.00000  0.21751
       6     C     3.11899  3.11899  0.00000 -0.23799
       7     H     0.37759  0.37759  0.00000  0.24481
       8     C     2.90689  2.90689  0.00000  0.18622
       9     H     0.39272  0.39272  0.00000  0.21457
      10     C     2.96859  2.96859  0.00000  0.06282
      11     N     3.26385  3.26385  0.00000  0.47230
      12     C     3.26177  3.26177  0.00000 -0.52354
      13     O     4.22445  4.22445  0.00000 -0.44890
      14     O     4.22444  4.22444  0.00000 -0.44887
      15     H     0.39611  0.39611  0.00000  0.20778
      16     H     0.40662  0.40662  0.00000  0.18676
      17     H     0.39612  0.39612  0.00000  0.20776

   Total alpha = 36.00000, Total beta = 36.00000, Total charge = -0.00000
