  ==> Input File <==

--------------------------------------------------------------------------
set {
	reference rhf
	basis cc-pvtz
}

set_num_threads( 4 )
memory 2 gb

molecule MOL {
0 1

H	 2.455287	 0.465455	 0.558183
O	 1.568028	 0.590683	 0.838781
C	 0.700177	 0.619554	 -0.266242
C	 -0.713111	 0.588314	 0.266177
H	 0.865826	 -0.241949	 -0.906006
H	 0.848986	 1.522097	 -0.853311
O	 -1.421673	 -0.521378	 -0.196983
H	 -1.244794	 1.469161	 -0.069059
H	 -0.685100	 0.604721	 1.352683
H	 -0.933408	 -1.297830	 0.014544

	symmetry c1
}
set optking {
	frozen_dihedral = ("
		5 3 4 7
	")
}

ee = optimize('scf')
oeprop('DIPOLE', 'QUADRUPOLE', 'MULLIKEN_CHARGES')
f=open( 'psi4out.xyz', 'w' )
f.write( "10  " )
f.write( str(ee) + "\n" )
f.write( MOL.save_string_xyz() )
f.close()
--------------------------------------------------------------------------

    Molecular point group: c1
  Charge       = 0
  Multiplicity = 1
  Basis Set: CC-PVTZ
  Basis Set:
  @DF-RHF Final Energy:  -229.01874504073851
    Total Energy =                       -229.0187450407385086
    Molecular point group: c1
  Basis Set: CC-PVTZ
  Basis Set:
  Basis Set: CC-PVTZ
  Basis Set:
  @DF-RHF Final Energy:  -229.01991488027781
    Total Energy =                       -229.0199148802778950
  Basis Set: CC-PVTZ
  Basis Set:
  Basis Set: CC-PVTZ
  Basis Set:
  @DF-RHF Final Energy:  -229.02035340494740
    Total Energy =                       -229.0203534049473149
  Basis Set: CC-PVTZ
  Basis Set:
  Basis Set: CC-PVTZ
  Basis Set:
  @DF-RHF Final Energy:  -229.02039077942084
    Total Energy =                       -229.0203907794209499
  Basis Set: CC-PVTZ
  Basis Set:
  Basis Set: CC-PVTZ
  Basis Set:
  @DF-RHF Final Energy:  -229.02039190108147
    Total Energy =                       -229.0203919010815525
  Basis Set: CC-PVTZ
  Basis Set:
  Charge       = 0
  Multiplicity = 1
  Basis Set: CC-PVTZ
  Basis Set:

    Orbital Energies (a.u.)
    -----------------------

    Doubly Occupied:

       1A    -20.554442     2A    -20.549230     3A    -11.271161
       4A    -11.267451     5A     -1.376903     6A     -1.362018
       7A     -0.997091     8A     -0.847746     9A     -0.728868
      10A     -0.670385    11A     -0.656669    12A     -0.609569
      13A     -0.576175    14A     -0.528044    15A     -0.494704
      16A     -0.450258    17A     -0.436688

  @DF-RHF Final Energy:  -229.02039200648156

   => Energetics <=

    Nuclear Repulsion Energy =            131.5127144581746563
    One-Electron Energy =                -574.3114119448644033
    Two-Electron Energy =                 213.7783054802081324
    DFT Exchange-Correlation Energy =       0.0000000000000000
    Empirical Dispersion Energy =           0.0000000000000000
    PCM Polarization Energy =               0.0000000000000000
    EFP Energy =                            0.0000000000000000
    Total Energy =                       -229.0203920064816430
    Molecular point group: c1
  Basis Set: CC-PVTZ
  Basis Set:

  -Total Gradient:
     Atom            X                  Y                   Z
    ------   -----------------  -----------------  -----------------
       1       -0.000018230104     0.000004486250    -0.000001432123
       2        0.000000508262    -0.000003149671    -0.000002886385
       3       -0.000549021515     0.001113900938    -0.001527030073
       4        0.000502500952    -0.000986898412     0.001336395855
       5        0.000383366967    -0.000728066458     0.001004581674
       6       -0.000000343141    -0.000005271805    -0.000005992846
       7       -0.000312715298     0.000599954810    -0.000807947804
       8       -0.000001872258    -0.000004782481     0.000000078305
       9       -0.000005846502     0.000007184132     0.000004503816
      10        0.000001652635     0.000002642698    -0.000000270419

  **** Optimization is complete! (in 6 steps) ****
    Final optimized geometry and variables:
    Molecular point group: c1

    Geometry (in Angstrom), charge = 0, multiplicity = 1:

    H            2.428413732879     0.335740670669     0.399499510804
    O            1.537062795040     0.265907757501     0.687998740586
    C            0.665714676034     0.340126050953    -0.412599023707
    C           -0.776418011665     0.287350135339     0.099186452492
    H            0.825405947158    -0.498685489678    -1.082339829881
    H            0.841012507062     1.255161556581    -0.969601318359
    O           -1.506390696626    -0.795762284784    -0.408511014256
    H           -1.317698017984     1.171033027406    -0.206693265195
    H           -0.749440065037     0.271950584259     1.182493717831
    H           -1.196356912035    -1.597275948571    -0.027282058516

  Mulliken Charges: (a.u.)
   Center  Symbol    Alpha    Beta     Spin     Total
       1     H     0.39307  0.39307  0.00000  0.21386
       2     O     4.20016  4.20016  0.00000 -0.40033
       3     C     2.97388  2.97388  0.00000  0.05223
       4     C     2.97183  2.97183  0.00000  0.05635
       5     H     0.47232  0.47232  0.00000  0.05535
       6     H     0.47337  0.47337  0.00000  0.05326
       7     O     4.20304  4.20304  0.00000 -0.40608
       8     H     0.45828  0.45828  0.00000  0.08343
       9     H     0.46200  0.46200  0.00000  0.07601
      10     H     0.39204  0.39204  0.00000  0.21591

   Total alpha = 17.00000, Total beta = 17.00000, Total charge = -0.00000
