                              Psi4 1.0.54 Driver

  ==> Input File <==

--------------------------------------------------------------------------
set {
	reference rhf
	basis cc-pvtz
}

set_num_threads( 4 )
memory 2 gb

molecule MOL {
0 1

O	 0.749630	 1.305591	 -0.000460
C	 0.576499	 0.134701	 -0.003900
C	 -0.765656	 -0.550508	 -0.002152
O	 1.564816	 -0.744612	 -0.000631
C	 -1.945526	 0.411052	 0.000603
H	 -0.794329	 -1.203792	 -0.868145
H	 -0.791555	 -1.205429	 0.862701
C	 -1.743214	 1.570773	 -0.968438
H	 -2.095337	 0.789913	 1.004303
H	 -2.848303	 -0.130466	 -0.254606
H	 -0.860712	 2.148473	 -0.713952
H	 -2.593169	 2.242121	 -0.950263
H	 -1.623203	 1.217598	 -1.987356
C	 2.884339	 -0.237801	 0.002883
H	 3.064150	 0.362814	 -0.876312
H	 3.533055	 -1.098529	 0.004958
H	 3.059365	 0.363432	 0.882614

	symmetry c1
}
set optking {
	frozen_dihedral = ("
		9 5 3 6
	")
}

ee,wfn = optimize('scf', return_wfn=True)
oeprop( wfn, 'DIPOLE', 'QUADRUPOLE', 'MULLIKEN_CHARGES')
f=open( 'psi4out.xyz', 'w' )
f.write( "17  " )
f.write( str(ee) + "\n" )
f.write( MOL.save_string_xyz() )
f.close()
--------------------------------------------------------------------------

    Molecular point group: c1
  Charge       = 0
  Multiplicity = 1
  Basis Set: CC-PVTZ
  Basis Set:
  @DF-RHF Final Energy:  -345.02261536233237
    Total Energy =                       -345.0226153623322602
    Molecular point group: c1
  Basis Set: CC-PVTZ
  Basis Set:
  Basis Set: CC-PVTZ
  Basis Set:
  @DF-RHF Final Energy:  -345.02996419218675
    Total Energy =                       -345.0299641921866396
  Basis Set: CC-PVTZ
  Basis Set:
  Basis Set: CC-PVTZ
  Basis Set:
  @DF-RHF Final Energy:  -345.03083528575911
    Total Energy =                       -345.0308352857589398
  Basis Set: CC-PVTZ
  Basis Set:
  Basis Set: CC-PVTZ
  Basis Set:
  @DF-RHF Final Energy:  -345.03152530917572
    Total Energy =                       -345.0315253091754357
  Basis Set: CC-PVTZ
  Basis Set:
  @DF-RHF Final Energy:  -345.03181994372949
    Total Energy =                       -345.0318199437295448
  @DF-RHF Final Energy:  -345.03202589483550
    Total Energy =                       -345.0320258948353853
  @DF-RHF Final Energy:  -345.03232450783241
    Total Energy =                       -345.0323245078321293
  Basis Set: CC-PVTZ
  Basis Set:
  @DF-RHF Final Energy:  -345.03252360661514
    Total Energy =                       -345.0325236066155412
  Basis Set: CC-PVTZ
  Basis Set:
  Basis Set: CC-PVTZ
  Basis Set:
  @DF-RHF Final Energy:  -345.03255058006818
    Total Energy =                       -345.0325505800684027
  Basis Set: CC-PVTZ
  Basis Set:
  Basis Set: CC-PVTZ
  Basis Set:
  @DF-RHF Final Energy:  -345.03255428969538
    Total Energy =                       -345.0325542896955540
  Basis Set: CC-PVTZ
  Basis Set:
  Charge       = 0
  Multiplicity = 1
  Basis Set: CC-PVTZ
  Basis Set:

    Orbital Energies (a.u.)
    -----------------------

    Doubly Occupied:

       1A    -20.598210     2A    -20.533203     3A    -11.365678
       4A    -11.279082     5A    -11.234368     6A    -11.223326
       7A    -11.206099     8A     -1.473336     9A     -1.366070
      10A     -1.079444    11A     -1.000484    12A     -0.940880
      13A     -0.832046    14A     -0.768691    15A     -0.700490
      16A     -0.684695    17A     -0.674521    18A     -0.626661
      19A     -0.612553    20A     -0.571628    21A     -0.561921
      22A     -0.535455    23A     -0.526017    24A     -0.493632
      25A     -0.485047    26A     -0.479539    27A     -0.460351
      28A     -0.437989

  @DF-RHF Final Energy:  -345.03255458242086

   => Energetics <=

    Nuclear Repulsion Energy =            319.1178687326322461
    One-Electron Energy =               -1102.7980113791359145
    Two-Electron Energy =                 438.6475880640829246
    DFT Exchange-Correlation Energy =       0.0000000000000000
    Empirical Dispersion Energy =           0.0000000000000000
    PCM Polarization Energy =               0.0000000000000000
    EFP Energy =                            0.0000000000000000
    Total Energy =                       -345.0325545824207438
    Molecular point group: c1
  Basis Set: CC-PVTZ
  Basis Set:

  -Total Gradient:
     Atom            X                  Y                   Z
    ------   -----------------  -----------------  -----------------
       1       -0.000011503971     0.000023135812    -0.000006610230
       2        0.000048602631    -0.000052748776     0.000012678673
       3        0.002760513237     0.003304981304    -0.003259521697
       4        0.000026066194     0.000020476706     0.000006105519
       5        0.003230029696     0.003812017018    -0.000697092351
       6       -0.002808926410    -0.003307382161     0.002812927753
       7        0.000008154359    -0.000001842978     0.000007779595
       8       -0.000008084130     0.000001055022     0.000003373464
       9       -0.003201716689    -0.003808939522     0.001132642129
      10       -0.000018016707     0.000013438451    -0.000006220877
      11        0.000009327376    -0.000000088170     0.000004193411
      12        0.000000594542     0.000003684903    -0.000001396184
      13       -0.000003533746    -0.000000459510     0.000000169553
      14       -0.000002959882    -0.000002499016    -0.000013926062
      15       -0.000005822630    -0.000006535234     0.000006226484
      16       -0.000011780567     0.000000915497     0.000002427128
      17       -0.000010943300     0.000000790658    -0.000003756309

  **** Optimization is complete! (in 11 steps) ****
    Final optimized geometry and variables:
    Molecular point group: c1

    Geometry (in Angstrom), charge = 0, multiplicity = 1:

    O            0.626870642019     0.856333041311     0.794235298504
    C            0.381599736013    -0.171756337046     0.259633933393
    C           -0.990256971904    -0.785947316231     0.160893609004
    O            1.307202215255    -0.944659467581    -0.281280012235
    C           -2.157161271997     0.202218421518     0.164773546769
    H           -1.041527813777    -1.458285477460    -0.685017017680
    H           -1.070963191528    -1.429578373068     1.033949289469
    C           -2.070747655896     1.311827487420    -0.877175877439
    H           -2.285853859641     0.609217786001     1.160131187841
    H           -3.053853228843    -0.381726120715    -0.021298773298
    H           -1.236652087726     1.972089435146    -0.685994438468
    H           -2.976683339583     1.906384107957    -0.871579378342
    H           -1.956592033754     0.898825788666    -1.874994874636
    C            2.649619382231    -0.511861813943    -0.185963737960
    H            2.778586423569     0.440191056708    -0.678751140848
    H            3.241174483428    -1.268115057623    -0.675754006648
    H            2.946825549160    -0.416819663124     0.847877987356

  Mulliken Charges: (a.u.)
   Center  Symbol    Alpha    Beta     Spin     Total
       1     O     4.20232  4.20232  0.00000 -0.40463
       2     C     2.80227  2.80227  0.00000  0.39545
       3     C     3.10503  3.10503  0.00000 -0.21006
       4     O     4.14554  4.14554  0.00000 -0.29108
       5     C     3.08038  3.08038  0.00000 -0.16077
       6     H     0.43573  0.43573  0.00000  0.12854
       7     H     0.43968  0.43968  0.00000  0.12064
       8     C     3.15710  3.15710  0.00000 -0.31420
       9     H     0.44756  0.44756  0.00000  0.10488
      10     H     0.45011  0.45011  0.00000  0.09979
      11     H     0.44057  0.44057  0.00000  0.11885
      12     H     0.44821  0.44821  0.00000  0.10359
      13     H     0.45646  0.45646  0.00000  0.08708
      14     C     3.03549  3.03549  0.00000 -0.07098
      15     H     0.45400  0.45400  0.00000  0.09200
      16     H     0.44511  0.44511  0.00000  0.10977
      17     H     0.45444  0.45444  0.00000  0.09112

   Total alpha = 28.00000, Total beta = 28.00000, Total charge = -0.00000

*** Psi4 exiting successfully. Buy a developer a beer!
