  ==> Input File <==

--------------------------------------------------------------------------
set {
	reference rhf
	basis cc-pvtz
}

set_num_threads( 4 )
memory 2 gb

molecule MOL {
0 1

H	 -3.144994	 -1.202467	 -0.018751
O	 -2.321472	 -0.864941	 -0.318626
C	 -2.021813	 0.336996	 0.342658
C	 -0.669613	 0.837286	 -0.127252
H	 -2.780861	 1.084746	 0.127159
H	 -2.006390	 0.184138	 1.420053
C	 0.490865	 -0.082543	 0.241244
H	 -0.708709	 0.967192	 -1.204587
H	 -0.507562	 1.822272	 0.303070
C	 1.839800	 0.429565	 -0.255472
H	 0.305636	 -1.070211	 -0.165276
H	 0.527397	 -0.195943	 1.322876
C	 1.725533	 1.698273	 -1.093987
H	 2.486306	 0.619451	 0.596981
H	 2.328185	 -0.345463	 -0.840708
H	 1.272736	 2.502968	 -0.524464
H	 2.699049	 2.037355	 -1.429540
H	 1.112145	 1.532282	 -1.973560

	symmetry c1
}
set optking {
	frozen_dihedral = ("
		14 10 7 11
	")
}

ee = optimize('scf')
oeprop('DIPOLE', 'QUADRUPOLE', 'MULLIKEN_CHARGES')
f=open( 'psi4out.xyz', 'w' )
f.write( "18  " )
f.write( str(ee) + "\n" )
f.write( MOL.save_string_xyz() )
f.close()
--------------------------------------------------------------------------

    Molecular point group: c1
  Charge       = 0
  Multiplicity = 1
  Basis Set: CC-PVTZ
  Basis Set:
  @DF-RHF Final Energy:  -271.27217973790187
    Total Energy =                       -271.2721797379020927
    Molecular point group: c1
  Basis Set: CC-PVTZ
  Basis Set:
  Basis Set: CC-PVTZ
  Basis Set:
  @DF-RHF Final Energy:  -271.27272223561829
    Total Energy =                       -271.2727222356182892
  Basis Set: CC-PVTZ
  Basis Set:
  Basis Set: CC-PVTZ
  Basis Set:
  @DF-RHF Final Energy:  -271.27627121323246
    Total Energy =                       -271.2762712132325191
  Basis Set: CC-PVTZ
  Basis Set:
  Basis Set: CC-PVTZ
  Basis Set:
  @DF-RHF Final Energy:  -271.27679401940247
    Total Energy =                       -271.2767940194023595
  Basis Set: CC-PVTZ
  Basis Set:
  Basis Set: CC-PVTZ
  Basis Set:
  @DF-RHF Final Energy:  -271.27685814790459
    Total Energy =                       -271.2768581479048180
  Basis Set: CC-PVTZ
  Basis Set:
  Basis Set: CC-PVTZ
  Basis Set:
  @DF-RHF Final Energy:  -271.27686985281986
    Total Energy =                       -271.2768698528199707
  Basis Set: CC-PVTZ
  Basis Set:
  Charge       = 0
  Multiplicity = 1
  Basis Set: CC-PVTZ
  Basis Set:

    Orbital Energies (a.u.)
    -----------------------

    Doubly Occupied:

       1A    -20.546025     2A    -11.265642     3A    -11.209996
       4A    -11.209576     5A    -11.205120     6A    -11.203157
       7A     -1.363912     8A     -1.072163     9A     -1.006395
      10A     -0.916154    11A     -0.834886    12A     -0.765489
      13A     -0.708116    14A     -0.640441    15A     -0.621914
      16A     -0.601483    17A     -0.561029    18A     -0.551825
      19A     -0.530181    20A     -0.511032    21A     -0.491370
      22A     -0.465763    23A     -0.450830    24A     -0.442336
      25A     -0.429914

  @DF-RHF Final Energy:  -271.27686956612143

   => Energetics <=

    Nuclear Repulsion Energy =            252.1215639310207166
    One-Electron Energy =                -867.5873679557487321
    Two-Electron Energy =                 344.1889344586066954
    DFT Exchange-Correlation Energy =       0.0000000000000000
    Empirical Dispersion Energy =           0.0000000000000000
    PCM Polarization Energy =               0.0000000000000000
    EFP Energy =                            0.0000000000000000
    Total Energy =                       -271.2768695661212632
    Molecular point group: c1
  Basis Set: CC-PVTZ
  Basis Set:

  -Total Gradient:
     Atom            X                  Y                   Z
    ------   -----------------  -----------------  -----------------
       1        0.000001743147    -0.000004921196     0.000001207871
       2        0.000047199703    -0.000031344388     0.000020784482
       3       -0.000040337648     0.000033644448    -0.000094171641
       4        0.000002917084     0.000040991105     0.000137501735
       5       -0.000001234963     0.000016913529     0.000006703031
       6        0.000017329445     0.000001460165    -0.000016815823
       7       -0.001029692373     0.000696514603    -0.002327383705
       8        0.000031883908     0.000016448239    -0.000036715902
       9       -0.000032182527    -0.000026106345     0.000015913738
      10       -0.000686688026     0.002421031672     0.000538605198
      11        0.000980540605    -0.001009937874     0.001867933111
      12        0.000007211712     0.000010323646    -0.000013165179
      13       -0.000010668087     0.000033711721     0.000027737238
      14        0.000725557279    -0.002178422130    -0.000078956074
      15        0.000005626552     0.000001350745    -0.000001644680
      16        0.000050244864    -0.000006352166    -0.000026772136
      17       -0.000006874521    -0.000008518070    -0.000013018114
      18       -0.000062576158    -0.000006787705    -0.000007743150

  **** Optimization is complete! (in 7 steps) ****
    Final optimized geometry and variables:
    Molecular point group: c1

    Geometry (in Angstrom), charge = 0, multiplicity = 1:

    H           -2.912074700144    -1.664638208936     0.200624094169
    O           -2.114237236311    -1.277622249217    -0.108477940880
    C           -1.843953188608    -0.095876963749     0.600271523532
    C           -0.532539765408     0.489442553927     0.110821363673
    H           -2.641876886270     0.626054513700     0.445673607436
    H           -1.784911327855    -0.298459008378     1.667855626991
    C            0.667768798996    -0.405547475587     0.417022244250
    H           -0.620540945430     0.662855111095    -0.955437192511
    H           -0.409413855881     1.460420355063     0.580937707112
    C            2.059515985539     0.095674124742    -0.052249192877
    H            0.482168995263    -1.387169646423     0.002065843886
    H            0.703071765989    -0.553348617039     1.492784760527
    C            2.097413163961     1.336272647012    -0.943124854718
    H            2.683023290768     0.272126923730     0.817715385552
    H            2.548277949167    -0.711379312934    -0.587650587112
    H            1.682459334040     2.207380266969    -0.450327038189
    H            3.122967194859     1.569494077936    -1.206276583429
    H            1.550970938080     1.186177149350    -1.866867326969

  Mulliken Charges: (a.u.)
   Center  Symbol    Alpha    Beta     Spin     Total
       1     H     0.39558  0.39558  0.00000  0.20885
       2     O     4.19888  4.19888  0.00000 -0.39776
       3     C     2.97523  2.97523  0.00000  0.04953
       4     C     3.09167  3.09167  0.00000 -0.18333
       5     H     0.46485  0.46485  0.00000  0.07029
       6     H     0.47336  0.47336  0.00000  0.05328
       7     C     3.09848  3.09848  0.00000 -0.19696
       8     H     0.44996  0.44996  0.00000  0.10008
       9     H     0.45303  0.45303  0.00000  0.09394
      10     C     3.08761  3.08761  0.00000 -0.17522
      11     H     0.44173  0.44173  0.00000  0.11654
      12     H     0.45660  0.45660  0.00000  0.08681
      13     C     3.15686  3.15686  0.00000 -0.31371
      14     H     0.45269  0.45269  0.00000  0.09463
      15     H     0.45168  0.45168  0.00000  0.09664
      16     H     0.45442  0.45442  0.00000  0.09116
      17     H     0.44525  0.44525  0.00000  0.10950
      18     H     0.45213  0.45213  0.00000  0.09574

   Total alpha = 25.00000, Total beta = 25.00000, Total charge = -0.00000
