                              Psi4 1.0.54 Driver

  ==> Input File <==

--------------------------------------------------------------------------
set {
	reference rhf
	basis cc-pvtz
}

set_num_threads( 4 )
memory 2 gb

molecule MOL {
0 1

H	 1.395329	 1.315204	 -1.049033
O	 0.597098	 0.811634	 -1.101092
C	 0.489979	 0.078084	 0.002623
C	 -0.763662	 -0.754014	 0.000816
O	 1.300526	 0.110281	 0.862791
C	 -2.038001	 0.074705	 -0.000833
H	 -0.712945	 -1.405886	 -0.864342
H	 -0.715137	 -1.405770	 0.866182
H	 -2.087267	 0.710831	 -0.874232
H	 -2.903419	 -0.576199	 -0.001922
H	 -2.089467	 0.710909	 0.872389

	symmetry c1
}
set optking {
	frozen_dihedral = ("
		2 3 4 7
	")
}

ee,wfn = optimize('scf', return_wfn=True)
oeprop( wfn, 'DIPOLE', 'QUADRUPOLE', 'MULLIKEN_CHARGES')
f=open( 'psi4out.xyz', 'w' )
f.write( "11  " )
f.write( str(ee) + "\n" )
f.write( MOL.save_string_xyz() )
f.close()
--------------------------------------------------------------------------

    Molecular point group: c1
  Charge       = 0
  Multiplicity = 1
  Basis Set: CC-PVTZ
  Basis Set:
  @DF-RHF Final Energy:  -266.95134830538535
    Total Energy =                       -266.9513483053852383
    Molecular point group: c1
  Basis Set: CC-PVTZ
  Basis Set:
  Basis Set: CC-PVTZ
  Basis Set:
  @DF-RHF Final Energy:  -266.95158810394878
    Total Energy =                       -266.9515881039487226
  Basis Set: CC-PVTZ
  Basis Set:
  Basis Set: CC-PVTZ
  Basis Set:
  @DF-RHF Final Energy:  -266.95150016790205
    Total Energy =                       -266.9515001679021680
  Basis Set: CC-PVTZ
  Basis Set:
  Basis Set: CC-PVTZ
  Basis Set:
  @DF-RHF Final Energy:  -266.95166719679935
    Total Energy =                       -266.9516671967994057
  Basis Set: CC-PVTZ
  Basis Set:
  Charge       = 0
  Multiplicity = 1
  Basis Set: CC-PVTZ
  Basis Set:

    Orbital Energies (a.u.)
    -----------------------

    Doubly Occupied:

       1A    -20.605550     2A    -20.540409     3A    -11.373579
       4A    -11.241951     5A    -11.227986     6A     -1.478357
       7A     -1.369149     8A     -1.068927     9A     -0.913203
      10A     -0.821105    11A     -0.705948    12A     -0.686901
      13A     -0.646600    14A     -0.615599    15A     -0.593890
      16A     -0.548315    17A     -0.527827    18A     -0.512456
      19A     -0.482255    20A     -0.443766

  @DF-RHF Final Energy:  -266.95166764672945

   => Energetics <=

    Nuclear Repulsion Energy =            180.4069543108799110
    One-Electron Energy =                -721.9097025293630168
    Two-Electron Energy =                 274.5510805717536300
    DFT Exchange-Correlation Energy =       0.0000000000000000
    Empirical Dispersion Energy =           0.0000000000000000
    PCM Polarization Energy =               0.0000000000000000
    EFP Energy =                            0.0000000000000000
    Total Energy =                       -266.9516676467295042
    Molecular point group: c1
  Basis Set: CC-PVTZ
  Basis Set:

  -Total Gradient:
     Atom            X                  Y                   Z
    ------   -----------------  -----------------  -----------------
       1        0.000017190315     0.000033201558    -0.000014253732
       2       -0.000051918328     0.000159710859     0.000138494962
       3        0.000095664380    -0.000309195972    -0.000163924954
       4       -0.000229023337     0.000292101923    -0.000064259885
       5        0.000014919040     0.000035911364    -0.000018333179
       6        0.000049499020    -0.000025225258    -0.000015763931
       7        0.000122608872    -0.000154437573     0.000152374027
       8       -0.000006948173    -0.000030357215    -0.000002171098
       9       -0.000011658942     0.000013158797    -0.000000502868
      10       -0.000009216257    -0.000006102272    -0.000001119037
      11        0.000008883411    -0.000008766211    -0.000010540307

  **** Optimization is complete! (in 5 steps) ****
    Final optimized geometry and variables:
    Molecular point group: c1

    Geometry (in Angstrom), charge = 0, multiplicity = 1:

    H            1.448429111557     1.246286079200    -0.963243724542
    O            0.648945677222     0.744995669433    -1.020732951251
    C            0.550328119598    -0.015697763868     0.065884741706
    C           -0.699500841809    -0.853706052065     0.071473810739
    O            1.374286919761    -0.008862679090     0.914169580962
    C           -1.978006582147    -0.014609621051     0.058556588751
    H           -0.669632543073    -1.492941714124    -0.803781745448
    H           -0.656069256262    -1.480290695845     0.949406030454
    H           -2.037783616157     0.595802206962    -0.831900705564
    H           -2.843900320505    -0.663496279305     0.085327320386
    H           -2.023253356911     0.637472196082     0.922702819583

  Mulliken Charges: (a.u.)
   Center  Symbol    Alpha    Beta     Spin     Total
       1     H     0.38040  0.38040  0.00000  0.23921
       2     O     4.16384  4.16384  0.00000 -0.32768
       3     C     2.80140  2.80140  0.00000  0.39720
       4     C     3.09023  3.09023  0.00000 -0.18046
       5     O     4.19338  4.19338  0.00000 -0.38675
       6     C     3.14872  3.14872  0.00000 -0.29744
       7     H     0.44542  0.44542  0.00000  0.10915
       8     H     0.43533  0.43533  0.00000  0.12934
       9     H     0.44498  0.44498  0.00000  0.11004
      10     H     0.44695  0.44695  0.00000  0.10609
      11     H     0.44935  0.44935  0.00000  0.10130

   Total alpha = 20.00000, Total beta = 20.00000, Total charge = -0.00000

*** Psi4 exiting successfully. Buy a developer a beer!
