  ==> Input File <==

--------------------------------------------------------------------------
set {
	reference rhf
	basis 6-31G*
}

set_num_threads( 4 )
memory 2 gb

molecule MOL {
0 1

H	 -3.420663	 1.227371	 -1.044276
O	 -3.452007	 0.283848	 -0.965577
C	 -3.181085	 -0.079926	 0.364119
C	 -1.765924	 0.277073	 0.805136
H	 -3.327791	 -1.152017	 0.410903
H	 -3.905698	 0.375695	 1.036898
C	 -0.677594	 -0.417312	 -0.014550
H	 -1.637766	 1.358238	 0.744969
H	 -1.659588	 0.017670	 1.857098
C	 0.738335	 -0.034840	 0.421385
H	 -0.814977	 -0.178223	 -1.064632
H	 -0.802730	 -1.495410	 0.071702
C	 1.822265	 -0.738362	 -0.399735
H	 0.853533	 1.043532	 0.342250
H	 0.871597	 -0.279636	 1.474438
C	 1.681371	 -0.579644	 -1.917995
H	 1.831871	 -1.798089	 -0.149573
H	 2.793043	 -0.348347	 -0.100914
C	 0.441752	 -1.248504	 -2.514968
H	 2.565491	 -0.999687	 -2.391477
H	 1.677199	 0.478968	 -2.170036
H	 0.412546	 -2.306528	 -2.268252
H	 0.440868	 -1.162555	 -3.597303
H	 -0.476905	 -0.798873	 -2.152939

	symmetry c1
}
set optking {
	frozen_dihedral = ("
		17 13 10 7
	")
}

ee = optimize('scf')
oeprop('DIPOLE', 'QUADRUPOLE', 'MULLIKEN_CHARGES')
f=open( 'psi4out.xyz', 'w' )
f.write( "24  " )
f.write( str(ee) + "\n" )
f.write( MOL.save_string_xyz() )
f.close()
--------------------------------------------------------------------------

    Molecular point group: c1
  Charge       = 0
  Multiplicity = 1
  Basis Set: 6-31G*
  Basis Set:
  @DF-RHF Final Energy:  -349.21670063810842
    Total Energy =                       -349.2167006381081364
    Molecular point group: c1
  Basis Set: 6-31G*
  Basis Set:
  Basis Set: 6-31G*
  Basis Set:
  @DF-RHF Final Energy:  -349.23532894426705
    Total Energy =                       -349.2353289442671667
  Basis Set: 6-31G*
  Basis Set:
  Basis Set: 6-31G*
  Basis Set:
  @DF-RHF Final Energy:  -349.24024487856457
    Total Energy =                       -349.2402448785645674
  Basis Set: 6-31G*
  Basis Set:
  Basis Set: 6-31G*
  Basis Set:
  @DF-RHF Final Energy:  -349.24172476841858
    Total Energy =                       -349.2417247684185213
  Basis Set: 6-31G*
  Basis Set:
  @DF-RHF Final Energy:  -349.24254114079628
    Total Energy =                       -349.2425411407962201
  @DF-RHF Final Energy:  -349.24262174595754
    Total Energy =                       -349.2426217459575355
  @DF-RHF Final Energy:  -349.24270217813813
    Total Energy =                       -349.2427021781377334
  Basis Set: 6-31G*
  Basis Set:
  @DF-RHF Final Energy:  -349.24272694116382
    Total Energy =                       -349.2427269411638804
  Basis Set: 6-31G*
  Basis Set:
  Basis Set: 6-31G*
  Basis Set:
  @DF-RHF Final Energy:  -349.24273674709571
    Total Energy =                       -349.2427367470955346
  Basis Set: 6-31G*
  Basis Set:
  Basis Set: 6-31G*
  Basis Set:
  @DF-RHF Final Energy:  -349.24273810634003
    Total Energy =                       -349.2427381063400276
  Basis Set: 6-31G*
  Basis Set:
  Charge       = 0
  Multiplicity = 1
  Basis Set: 6-31G*
  Basis Set:

    Orbital Energies (a.u.)
    -----------------------

    Doubly Occupied:

       1A    -20.553985     2A    -11.267934     3A    -11.217571
       4A    -11.213385     5A    -11.212988     6A    -11.211809
       7A    -11.210782     8A    -11.203763     9A     -1.360515
      10A     -1.087259    11A     -1.044889    12A     -0.984703
      13A     -0.918188    14A     -0.847219    15A     -0.806250
      16A     -0.770481    17A     -0.680361    18A     -0.652200
      19A     -0.620215    20A     -0.614601    21A     -0.600135
      22A     -0.587057    23A     -0.554325    24A     -0.542023
      25A     -0.521381    26A     -0.502262    27A     -0.498246
      28A     -0.476632    29A     -0.470810    30A     -0.456314
      31A     -0.452971    32A     -0.442257    33A     -0.419498

  @DF-RHF Final Energy:  -349.24273826656304

   => Energetics <=

    Nuclear Repulsion Energy =            393.7352498624311465
    One-Electron Energy =               -1253.9499603801100420
    Two-Electron Energy =                 510.9719722511154032
    DFT Exchange-Correlation Energy =       0.0000000000000000
    Empirical Dispersion Energy =           0.0000000000000000
    PCM Polarization Energy =               0.0000000000000000
    EFP Energy =                            0.0000000000000000
    Total Energy =                       -349.2427382665634923
    Molecular point group: c1
  Basis Set: 6-31G*
  Basis Set:

  -Total Gradient:
     Atom            X                  Y                   Z
    ------   -----------------  -----------------  -----------------
       1       -0.000000813326     0.000002756775     0.000000310988
       2       -0.000013864330     0.000010258429     0.000012974201
       3        0.000005583046    -0.000035500716    -0.000009987760
       4        0.000016067810     0.000027867547    -0.000000108095
       5       -0.000007103850    -0.000004089126    -0.000002171334
       6        0.000004651985    -0.000001411545    -0.000006028652
       7        0.000035265799     0.001329402211    -0.001104566517
       8        0.000001080835     0.000007385033    -0.000000690968
       9        0.000004792665     0.000008472632    -0.000003138057
      10        0.000291984442    -0.001871983340     0.002005064924
      11       -0.000005444362     0.000009703921     0.000003562407
      12        0.000009239678     0.000002873494     0.000002682404
      13       -0.001849889105     0.000205488134    -0.002565914923
      14       -0.000013222349    -0.000015768870    -0.000011623621
      15        0.000008927918     0.000007980912     0.000020092127
      16        0.000029659625    -0.000056707616    -0.000018064048
      17        0.001492575906     0.000351175020     0.001668726884
      18        0.000010663276     0.000004580715     0.000013061266
      19       -0.000028549179     0.000022415573     0.000004731612
      20        0.000006858158     0.000004513268    -0.000000606457
      21       -0.000008713373    -0.000018067306     0.000001297601
      22        0.000012466081     0.000014547980     0.000000547290
      23        0.000001769986    -0.000000865469    -0.000000830633
      24       -0.000003987334    -0.000005027656    -0.000009320641

  **** Optimization is complete! (in 11 steps) ****
    Final optimized geometry and variables:
    Molecular point group: c1

    Geometry (in Angstrom), charge = 0, multiplicity = 1:

    H           -2.878042613285     1.809090247583    -0.198058608963
    O           -2.954606851749     0.865000499113    -0.211430349126
    C           -2.639397836831     0.356137409640     1.059796402604
    C           -1.185847859061     0.592832011135     1.454501970072
    H           -2.844896793947    -0.706031479829     1.010000420820
    H           -3.302436221016     0.779189414078     1.812453006821
    C           -0.181977580344    -0.073794243902     0.512104008246
    H           -0.998476017225     1.666478180939     1.490607075306
    H           -1.042144108129     0.226100381298     2.469344914607
    C            1.268447414638     0.215343685903     0.904854235903
    H           -0.373481678288     0.267028926882    -0.498560847224
    H           -0.355652436782    -1.148784698637     0.515119253074
    C            2.352942378270    -0.491441771970     0.078304279862
    H            1.434352014922     1.290261696448     0.843083529620
    H            1.414470078606    -0.050360139449     1.950127924665
    C            2.309462739038    -0.271534176139    -1.445129311086
    H            2.344534542603    -1.557154967983     0.300685547420
    H            3.309771467346    -0.131572487184     0.449399041708
    C            1.517587941060    -1.321634624117    -2.228677871000
    H            3.328199224824    -0.273423922256    -1.823581880381
    H            1.915868568643     0.720062617743    -1.658985476384
    H            1.938030254945    -2.311540196787    -2.074241699097
    H            1.552529266322    -1.112982593408    -3.293905862171
    H            0.475145667763    -1.358066935468    -1.935695227634

  Mulliken Charges: (a.u.)
   Center  Symbol    Alpha    Beta     Spin     Total
       1     H     0.28332  0.28332  0.00000  0.43336
       2     O     4.36837  4.36837  0.00000 -0.73674
       3     C     2.99627  2.99627  0.00000  0.00747
       4     C     3.16838  3.16838  0.00000 -0.33677
       5     H     0.41631  0.41631  0.00000  0.16739
       6     H     0.42810  0.42810  0.00000  0.14380
       7     C     3.15558  3.15558  0.00000 -0.31117
       8     H     0.42829  0.42829  0.00000  0.14342
       9     H     0.42230  0.42230  0.00000  0.15540
      10     C     3.15182  3.15182  0.00000 -0.30364
      11     H     0.40941  0.40941  0.00000  0.18118
      12     H     0.42381  0.42381  0.00000  0.15238
      13     C     3.15390  3.15390  0.00000 -0.30780
      14     H     0.42582  0.42582  0.00000  0.14836
      15     H     0.42397  0.42397  0.00000  0.15206
      16     C     3.15641  3.15641  0.00000 -0.31282
      17     H     0.42317  0.42317  0.00000  0.15365
      18     H     0.42115  0.42115  0.00000  0.15770
      19     C     3.24120  3.24120  0.00000 -0.48240
      20     H     0.42084  0.42084  0.00000  0.15832
      21     H     0.42247  0.42247  0.00000  0.15506
      22     H     0.42294  0.42294  0.00000  0.15412
      23     H     0.42084  0.42084  0.00000  0.15831
      24     H     0.41533  0.41533  0.00000  0.16934

   Total alpha = 33.00000, Total beta = 33.00000, Total charge = -0.00000
