  ==> Input File <==

--------------------------------------------------------------------------
set {
	reference rhf
	basis cc-pvtz
}

set_num_threads( 4 )
memory 2 gb

molecule MOL {
0 1

O	 -0.294688	 1.318815	 -0.000872
C	 -0.448732	 0.145721	 -0.000187
C	 -1.780748	 -0.548101	 0.000195
O	 0.550743	 -0.719877	 0.000412
H	 -1.859389	 -1.183260	 -0.872613
H	 -2.570236	 0.185547	 -0.001342
H	 -1.860233	 -1.180337	 0.875064
C	 0.511714	 -1.755216	 -0.961677
H	 -0.370311	 -2.364077	 -0.829963
H	 1.399245	 -2.344974	 -0.799945
H	 0.512095	 -1.346303	 -1.961083

	symmetry c1
}
set optking {
	frozen_dihedral = ("
		8 4 2 1
	")
}

ee = optimize('scf')
oeprop('DIPOLE', 'QUADRUPOLE', 'MULLIKEN_CHARGES')
f=open( 'psi4out.xyz', 'w' )
f.write( "11  " )
f.write( str(ee) + "\n" )
f.write( MOL.save_string_xyz() )
f.close()
--------------------------------------------------------------------------

    Molecular point group: c1
  Charge       = 0
  Multiplicity = 1
  Basis Set: CC-PVTZ
  Basis Set:
  @DF-RHF Final Energy:  -266.91549750868580
    Total Energy =                       -266.9154975086859167
    Molecular point group: c1
  Basis Set: CC-PVTZ
  Basis Set:
  Basis Set: CC-PVTZ
  Basis Set:
  @DF-RHF Final Energy:  -266.91627288847678
    Total Energy =                       -266.9162728884767830
  Basis Set: CC-PVTZ
  Basis Set:
  Basis Set: CC-PVTZ
  Basis Set:
  @DF-RHF Final Energy:  -266.91982274988447
    Total Energy =                       -266.9198227498845881
  Basis Set: CC-PVTZ
  Basis Set:
  Basis Set: CC-PVTZ
  Basis Set:
  @DF-RHF Final Energy:  -266.92067196223149
    Total Energy =                       -266.9206719622316086
  Basis Set: CC-PVTZ
  Basis Set:
  @DF-RHF Final Energy:  -266.92073617167932
    Total Energy =                       -266.9207361716792661
  @DF-RHF Final Energy:  -266.92089701583217
    Total Energy =                       -266.9208970158322245
  @DF-RHF Final Energy:  -266.92093720702081
    Total Energy =                       -266.9209372070208701
  @DF-RHF Final Energy:  -266.92094962835733
    Total Energy =                       -266.9209496283572207
  @DF-RHF Final Energy:  -266.92097347976949
    Total Energy =                       -266.9209734797697138
  Basis Set: CC-PVTZ
  Basis Set:
  @DF-RHF Final Energy:  -266.92076196222752
    Total Energy =                       -266.9207619622276297
  Basis Set: CC-PVTZ
  Basis Set:
  Basis Set: CC-PVTZ
  Basis Set:
  @DF-RHF Final Energy:  -266.92097997575735
    Total Energy =                       -266.9209799757575752
  Basis Set: CC-PVTZ
  Basis Set:
  Basis Set: CC-PVTZ
  Basis Set:
  @DF-RHF Final Energy:  -266.92098514672392
    Total Energy =                       -266.9209851467238650
  Basis Set: CC-PVTZ
  Basis Set:
  Charge       = 0
  Multiplicity = 1
  Basis Set: CC-PVTZ
  Basis Set:

    Orbital Energies (a.u.)
    -----------------------

    Doubly Occupied:

       1A    -20.587959     2A    -20.540085     3A    -11.371661
       4A    -11.294416     5A    -11.240813     6A     -1.465510
       7A     -1.372563     8A     -1.023597     9A     -0.977664
      10A     -0.783159    11A     -0.698508    12A     -0.687293
      13A     -0.677964    14A     -0.614732    15A     -0.592332
      16A     -0.580116    17A     -0.546466    18A     -0.502798
      19A     -0.462172    20A     -0.442397

  @DF-RHF Final Energy:  -266.92098981105823

   => Energetics <=

    Nuclear Repulsion Energy =            183.0623400273272239
    One-Electron Energy =                -727.0422525237935361
    Two-Electron Energy =                 277.0589226854082199
    DFT Exchange-Correlation Energy =       0.0000000000000000
    Empirical Dispersion Energy =           0.0000000000000000
    PCM Polarization Energy =               0.0000000000000000
    EFP Energy =                            0.0000000000000000
    Total Energy =                       -266.9209898110581207
    Molecular point group: c1
  Basis Set: CC-PVTZ
  Basis Set:

  -Total Gradient:
     Atom            X                  Y                   Z
    ------   -----------------  -----------------  -----------------
       1       -0.000010787110    -0.000111577186    -0.004016026098
       2        0.000718704788     0.001263678786     0.004712700719
       3       -0.000028238114     0.000043817618    -0.000077739775
       4       -0.002339152843    -0.003074390799     0.001538571206
       5       -0.000063647750    -0.000000072465     0.000034820836
       6        0.000004728667    -0.000007431736    -0.000013199594
       7        0.000052994043    -0.000003304021     0.000007635589
       8        0.001632912005     0.001886737424    -0.002177845162
       9        0.000029946389    -0.000005725313    -0.000010377167
      10        0.000000426248    -0.000010130605     0.000000187753
      11        0.000002113675     0.000018398296     0.000001271693

  **** Optimization is complete! (in 13 steps) ****
    Final optimized geometry and variables:
    Molecular point group: c1

    Geometry (in Angstrom), charge = 0, multiplicity = 1:

    O           -0.001095661202     1.626620443810     0.166484994406
    C           -0.189684140474     0.465962724737     0.187221673956
    C           -1.565606418274    -0.150013912422     0.225069327551
    O            0.844187483884    -0.388005589183     0.199565586867
    H           -1.809618903648    -0.580775343194    -0.738674143234
    H           -2.284499680210     0.619586186573     0.453207972573
    H           -1.610396568701    -0.937960498215     0.965496853672
    C            0.880628792615    -1.454509289209    -0.717666565876
    H            0.106079373959    -2.185297159037    -0.521215634287
    H            1.843043283792    -1.924168144028    -0.597681394273
    H            0.789361257717    -1.092457081285    -1.734567486480

  Mulliken Charges: (a.u.)
   Center  Symbol    Alpha    Beta     Spin     Total
       1     O     4.16979  4.16979  0.00000 -0.33959
       2     C     2.80751  2.80751  0.00000  0.38497
       3     C     3.16124  3.16124  0.00000 -0.32249
       4     O     4.14402  4.14402  0.00000 -0.28803
       5     H     0.44875  0.44875  0.00000  0.10250
       6     H     0.42922  0.42922  0.00000  0.14157
       7     H     0.44245  0.44245  0.00000  0.11509
       8     C     3.04174  3.04174  0.00000 -0.08347
       9     H     0.46192  0.46192  0.00000  0.07616
      10     H     0.43605  0.43605  0.00000  0.12790
      11     H     0.45730  0.45730  0.00000  0.08541

   Total alpha = 20.00000, Total beta = 20.00000, Total charge = -0.00000
