  ==> Input File <==

--------------------------------------------------------------------------
set {
	reference rhf
	basis 6-31G*
}

set_num_threads( 1 )
memory 2 gb

molecule MOL {
0 1

O	 0.497789	 1.207605	 0.579859
C	 0.486307	 0.169203	 0.000779
C	 1.608116	 -0.841643	 0.000302
O	 -0.534444	 -0.243982	 -0.737429
C	 2.990107	 -0.200498	 -0.000684
H	 1.468623	 -1.481519	 -0.865924
H	 1.469683	 -1.481289	 0.866878
H	 3.129736	 0.423364	 -0.875135
H	 3.757882	 -0.966877	 -0.001197
H	 3.130964	 0.423383	 0.873533
C	 -1.668427	 0.612120	 -0.830022
C	 -2.683795	 -0.074189	 -1.719020
H	 -1.358718	 1.564497	 -1.238241
H	 -2.059912	 0.787410	 0.162754
H	 -2.274611	 -0.247523	 -2.707798
H	 -3.568304	 0.546798	 -1.817341
H	 -2.979762	 -1.028863	 -1.299189

	symmetry c1
}
set optking {
	frozen_dihedral = ("
		2 4 11 13,
		11 4 2 3
	")
}

ee = energy('scf')
oeprop('DIPOLE', 'QUADRUPOLE', 'MULLIKEN_CHARGES')
f=open( 'psi4out.xyz', 'w' )
f.write( "17  " )
f.write( str(ee) + "\n" )
f.write( MOL.save_string_xyz() )
f.close()
--------------------------------------------------------------------------

    Molecular point group: c1

    Geometry (in Angstrom), charge = 0, multiplicity = 1:

       Center              X                  Y                   Z               Mass
    ------------   -----------------  -----------------  -----------------  -----------------
           O          0.410371044383     1.110405804495     0.972339436393    15.994914619560
           C          0.398889044383     0.072003804495     0.393259436393    12.000000000000
           C          1.520698044383    -0.938842195505     0.392782436393    12.000000000000
           O         -0.621861955617    -0.341181195505    -0.344948563607    15.994914619560
           C          2.902689044383    -0.297697195505     0.391796436393    12.000000000000
           H          1.381205044383    -1.578718195505    -0.473443563607     1.007825032070
           H          1.382265044383    -1.578488195505     1.259358436393     1.007825032070
           H          3.042318044383     0.326164804495    -0.482654563607     1.007825032070
           H          3.670464044383    -1.064076195505     0.391283436393     1.007825032070
           H          3.043546044383     0.326183804495     1.266013436393     1.007825032070
           C         -1.755844955617     0.514920804495    -0.437541563607    12.000000000000
           C         -2.771212955617    -0.171388195505    -1.326539563607    12.000000000000
           H         -1.446135955617     1.467297804495    -0.845760563607     1.007825032070
           H         -2.147329955617     0.690210804495     0.555234436393     1.007825032070
           H         -2.362028955617    -0.344722195505    -2.315317563607     1.007825032070
           H         -3.655721955617     0.449598804495    -1.424860563607     1.007825032070
           H         -3.067179955617    -1.126062195505    -0.906708563607     1.007825032070

  Charge       = 0
  Multiplicity = 1
  Basis Set: 6-31G*
  Basis Set:

    Orbital Energies (a.u.)
    -----------------------

    Doubly Occupied:

       1A    -20.602109     2A    -20.543063     3A    -11.371166
       4A    -11.284600     5A    -11.236509     6A    -11.222363
       7A    -11.219202     8A     -1.467672     9A     -1.361527
      10A     -1.070674    11A     -1.032034    12A     -0.911073
      13A     -0.848758    14A     -0.774245    15A     -0.694489
      16A     -0.687957    17A     -0.665370    18A     -0.624581
      19A     -0.587769    20A     -0.573900    21A     -0.557070
      22A     -0.527660    23A     -0.525531    24A     -0.510696
      25A     -0.503640    26A     -0.491393    27A     -0.452374
      28A     -0.434243

  @DF-RHF Final Energy:  -344.91067181617780

   => Energetics <=

    Nuclear Repulsion Energy =            314.8050953907066969
    One-Electron Energy =               -1093.8681905410280706
    Two-Electron Energy =                 434.1524233341432932
    DFT Exchange-Correlation Energy =       0.0000000000000000
    Empirical Dispersion Energy =           0.0000000000000000
    PCM Polarization Energy =               0.0000000000000000
    EFP Energy =                            0.0000000000000000
    Total Energy =                       -344.9106718161780805

  Mulliken Charges: (a.u.)
   Center  Symbol    Alpha    Beta     Spin     Total
       1     O     4.28640  4.28640  0.00000 -0.57279
       2     C     2.60423  2.60423  0.00000  0.79154
       3     C     3.20728  3.20728  0.00000 -0.41456
       4     O     4.31213  4.31213  0.00000 -0.62425
       5     C     3.24301  3.24301  0.00000 -0.48602
       6     H     0.40074  0.40074  0.00000  0.19852
       7     H     0.39984  0.39984  0.00000  0.20032
       8     H     0.41457  0.41457  0.00000  0.17087
       9     H     0.41599  0.41599  0.00000  0.16802
      10     H     0.40419  0.40419  0.00000  0.19163
      11     C     3.00296  3.00296  0.00000 -0.00593
      12     C     3.24846  3.24846  0.00000 -0.49692
      13     H     0.40999  0.40999  0.00000  0.18002
      14     H     0.41022  0.41022  0.00000  0.17955
      15     H     0.41191  0.41191  0.00000  0.17617
      16     H     0.41626  0.41626  0.00000  0.16748
      17     H     0.41182  0.41182  0.00000  0.17635

   Total alpha = 28.00000, Total beta = 28.00000, Total charge =  0.00000
