  ==> Input File <==

--------------------------------------------------------------------------
set {
	reference rhf
	basis 6-31G*
}

set_num_threads( 4 )
memory 2 gb

molecule MOL {
0 1

H	 -3.963194	 0.840429	 -0.442076
C	 -3.272722	 0.214904	 0.089551
C	 -2.076860	 -0.007332	 -0.404944
H	 -3.584024	 -0.216370	 1.022291
O	 -1.180634	 -0.819263	 0.215062
H	 -1.743266	 0.420813	 -1.333708
C	 0.051604	 -1.018856	 -0.387932
C	 1.043764	 0.054862	 -0.001873
H	 -0.017620	 -1.041351	 -1.469781
H	 0.437898	 -1.966374	 -0.042284
F	 2.212596	 -0.199467	 -0.571921
F	 0.652529	 1.252447	 -0.405055
F	 1.230877	 0.110694	 1.300533

	symmetry c1
}
set optking {
	frozen_dihedral = ("
		6 3 5 7
	")
}

ee = optimize('scf')
oeprop('DIPOLE', 'QUADRUPOLE', 'MULLIKEN_CHARGES')
f=open( 'psi4out.xyz', 'w' )
f.write( "13  " )
f.write( str(ee) + "\n" )
f.write( MOL.save_string_xyz() )
f.close()
--------------------------------------------------------------------------

    Molecular point group: c1
  Charge       = 0
  Multiplicity = 1
  Basis Set: 6-31G*
  Basis Set:
  @DF-RHF Final Energy:  -527.53584933178900
    Total Energy =                       -527.5358493317891089
    Molecular point group: c1
  Basis Set: 6-31G*
  Basis Set:
  Basis Set: 6-31G*
  Basis Set:
  @DF-RHF Final Energy:  -527.53584909714436
    Total Energy =                       -527.5358490971441370
  Basis Set: 6-31G*
  Basis Set:
  Basis Set: 6-31G*
  Basis Set:
  @DF-RHF Final Energy:  -527.53588466182623
    Total Energy =                       -527.5358846618260031
  Basis Set: 6-31G*
  Basis Set:
  Charge       = 0
  Multiplicity = 1
  Basis Set: 6-31G*
  Basis Set:

    Orbital Energies (a.u.)
    -----------------------

    Doubly Occupied:

       1A    -26.344990     2A    -26.344261     3A    -26.340837
       4A    -20.608280     5A    -11.503468     6A    -11.319036
       7A    -11.299405     8A    -11.215732     9A     -1.742115
      10A     -1.640305    11A     -1.638590    12A     -1.438124
      13A     -1.084495    14A     -1.016409    15A     -0.925608
      16A     -0.836754    17A     -0.831376    18A     -0.821923
      19A     -0.790902    20A     -0.723296    21A     -0.711572
      22A     -0.697790    23A     -0.675934    24A     -0.660138
      25A     -0.654893    26A     -0.643508    27A     -0.632247
      28A     -0.586181    29A     -0.563126    30A     -0.525911
      31A     -0.512560    32A     -0.351178

  @DF-RHF Final Energy:  -527.53588552696579

   => Energetics <=

    Nuclear Repulsion Energy =            413.0078314009656992
    One-Electron Energy =               -1549.7255465925263707
    Two-Electron Energy =                 609.1818296645948294
    DFT Exchange-Correlation Energy =       0.0000000000000000
    Empirical Dispersion Energy =           0.0000000000000000
    PCM Polarization Energy =               0.0000000000000000
    EFP Energy =                            0.0000000000000000
    Total Energy =                       -527.5358855269658989
    Molecular point group: c1
  Basis Set: 6-31G*
  Basis Set:

  -Total Gradient:
     Atom            X                  Y                   Z
    ------   -----------------  -----------------  -----------------
       1        0.000005148525     0.000022873401     0.000012669413
       2       -0.000022770500    -0.000027152216    -0.000002716204
       3       -0.000052889595    -0.000214187495    -0.000231454335
       4        0.000000718147     0.000008459888     0.000004876546
       5        0.000114015990     0.000201774335     0.000172675521
       6        0.000055912945     0.000146140638     0.000115786123
       7       -0.000054575293    -0.000099942406    -0.000077161240
       8        0.000009893115    -0.000019124456    -0.000016447061
       9        0.000005848359    -0.000006329720     0.000008324274
      10        0.000008668456    -0.000005744952     0.000005529061
      11       -0.000011495709    -0.000000148286     0.000012133698
      12       -0.000066860786     0.000002760767    -0.000006924257
      13        0.000008386352    -0.000009379494     0.000002708461

  **** Optimization is complete! (in 4 steps) ****
    Final optimized geometry and variables:
    Molecular point group: c1

    Geometry (in Angstrom), charge = 0, multiplicity = 1:

    H           -3.956079578484     0.859136389155    -0.433599056634
    C           -3.264710550930     0.232984503461     0.096128249433
    C           -2.076116084660    -0.003135090239    -0.409714044645
    H           -3.566938221736    -0.182660379359     1.039011145592
    O           -1.171553623792    -0.797118880498     0.221483995305
    H           -1.751474284320     0.411422503831    -1.347138375688
    C            0.060178852272    -0.998830012625    -0.382409249840
    C            1.053507768005     0.071282484014     0.010089684807
    H           -0.007926289728    -1.017264711404    -1.464152787441
    H            0.444307731243    -1.948578715243    -0.040289455963
    F            2.220769139336    -0.177140557024    -0.565285480471
    F            0.660298229889     1.272632530505    -0.381143968617
    F            1.244113499228     0.115918556166     1.312354496441

  Mulliken Charges: (a.u.)
   Center  Symbol    Alpha    Beta     Spin     Total
       1     H     0.40708  0.40708  0.00000  0.18584
       2     C     3.23610  3.23610  0.00000 -0.47221
       3     C     2.89570  2.89570  0.00000  0.20860
       4     H     0.40197  0.40197  0.00000  0.19605
       5     O     4.30202  4.30202  0.00000 -0.60404
       6     H     0.40545  0.40545  0.00000  0.18910
       7     C     3.06456  3.06456  0.00000 -0.12912
       8     C     2.45548  2.45548  0.00000  1.08904
       9     H     0.40507  0.40507  0.00000  0.18986
      10     H     0.38948  0.38948  0.00000  0.22104
      11     F     4.68272  4.68272  0.00000 -0.36543
      12     F     4.67995  4.67995  0.00000 -0.35991
      13     F     4.67441  4.67441  0.00000 -0.34883

   Total alpha = 32.00000, Total beta = 32.00000, Total charge = -0.00000
