  ==> Input File <==

--------------------------------------------------------------------------
set {
	reference rhf
	basis 6-31G*
}

set_num_threads( 4 )
memory 2 gb

molecule MOL {
0 1

H	 3.514417	 0.792002	 1.189545
N	 2.680146	 0.237443	 1.188971
C	 1.865559	 0.531981	 0.018834
H	 2.182164	 0.462978	 2.029196
C	 0.645745	 -0.382037	 -0.029944
H	 2.478053	 0.359712	 -0.860957
H	 1.539603	 1.574168	 -0.025868
C	 -0.679275	 0.379305	 0.025956
H	 0.698998	 -0.976915	 -0.937203
H	 0.693479	 -1.083846	 0.802235
C	 -1.903357	 -0.536963	 -0.023547
H	 -0.726309	 1.082987	 -0.803784
H	 -0.717680	 0.977832	 0.934877
C	 -3.225172	 0.228290	 0.028445
H	 -1.867824	 -1.134999	 -0.931459
H	 -1.860449	 -1.239604	 0.805977
H	 -3.313397	 0.915643	 -0.808262
H	 -4.073500	 -0.448134	 -0.008893
H	 -3.306061	 0.809945	 0.942516

	symmetry c1
}
set optking {
	frozen_dihedral = ("
		6 3 5 9
	")
}

ee = optimize('scf')
oeprop('DIPOLE', 'QUADRUPOLE', 'MULLIKEN_CHARGES')
f=open( 'psi4out.xyz', 'w' )
f.write( "19  " )
f.write( str(ee) + "\n" )
f.write( MOL.save_string_xyz() )
f.close()
--------------------------------------------------------------------------

    Molecular point group: c1
  Charge       = 0
  Multiplicity = 1
  Basis Set: 6-31G*
  Basis Set:
  @DF-RHF Final Energy:  -251.34515378067815
    Total Energy =                       -251.3451537806780607
    Molecular point group: c1
  Basis Set: 6-31G*
  Basis Set:
  Basis Set: 6-31G*
  Basis Set:
  @DF-RHF Final Energy:  -251.34552567537477
    Total Energy =                       -251.3455256753746312
  Basis Set: 6-31G*
  Basis Set:
  Basis Set: 6-31G*
  Basis Set:
  @DF-RHF Final Energy:  -251.34564840542492
    Total Energy =                       -251.3456484054250950
  Basis Set: 6-31G*
  Basis Set:
  Basis Set: 6-31G*
  Basis Set:
  @DF-RHF Final Energy:  -251.34564569886402
    Total Energy =                       -251.3456456988640184
  Basis Set: 6-31G*
  Basis Set:
  Charge       = 0
  Multiplicity = 1
  Basis Set: 6-31G*
  Basis Set:

    Orbital Energies (a.u.)
    -----------------------

    Doubly Occupied:

       1A    -15.532605     2A    -11.239873     3A    -11.214362
       4A    -11.213589     5A    -11.209330     6A    -11.208203
       7A     -1.175446     8A     -1.072583     9A     -0.996517
      10A     -0.901133    11A     -0.814771    12A     -0.788573
      13A     -0.666653    14A     -0.637401    15A     -0.618303
      16A     -0.583569    17A     -0.566306    18A     -0.548111
      19A     -0.530221    20A     -0.502383    21A     -0.484252
      22A     -0.465654    23A     -0.460831    24A     -0.444011
      25A     -0.379742

  @DF-RHF Final Energy:  -251.34565069905790

   => Energetics <=

    Nuclear Repulsion Energy =            246.3317951508648775
    One-Electron Energy =                -826.8460405880780399
    Two-Electron Energy =                 329.1685947381552069
    DFT Exchange-Correlation Energy =       0.0000000000000000
    Empirical Dispersion Energy =           0.0000000000000000
    PCM Polarization Energy =               0.0000000000000000
    EFP Energy =                            0.0000000000000000
    Total Energy =                       -251.3456506990579555
    Molecular point group: c1
  Basis Set: 6-31G*
  Basis Set:

  -Total Gradient:
     Atom            X                  Y                   Z
    ------   -----------------  -----------------  -----------------
       1        0.000043026551     0.000000847407     0.000031537259
       2        0.000026961117    -0.000004984579    -0.000085185844
       3        0.000278296022    -0.000566889239     0.000449142882
       4       -0.000030581058     0.000012445945    -0.000060931167
       5       -0.000386843499     0.000586638207    -0.000402975890
       6       -0.000243914743     0.000353681561    -0.000217249853
       7        0.000005765148     0.000010710292    -0.000008747211
       8        0.000034941055     0.000007072632     0.000012385381
       9        0.000294554518    -0.000362631070     0.000251713602
      10       -0.000009682315    -0.000012623725     0.000017500604
      11        0.000010858892    -0.000001863193     0.000017288822
      12        0.000027990205    -0.000000947500     0.000000786704
      13       -0.000004175425    -0.000011780467    -0.000005488473
      14       -0.000024834725    -0.000013955375    -0.000000327743
      15        0.000003155244     0.000002438529     0.000006280685
      16       -0.000011292854    -0.000000761699    -0.000004849901
      17        0.000003479147    -0.000002430142     0.000003485422
      18       -0.000017974716     0.000008030228    -0.000002428961
      19        0.000000271437    -0.000002997810    -0.000001936317

  **** Optimization is complete! (in 5 steps) ****
    Final optimized geometry and variables:
    Molecular point group: c1

    Geometry (in Angstrom), charge = 0, multiplicity = 1:

    H            3.591915881983     0.717712071522     0.992556650834
    N            2.770705117694     0.143383914556     0.977505823257
    C            1.960850595838     0.438636809853    -0.198567231755
    H            2.258922430997     0.351869866911     1.814286715162
    C            0.718259283701    -0.471948190997    -0.263614162982
    H            2.586746042814     0.277482134433    -1.069095531263
    H            1.646703658773     1.483783176763    -0.239270419811
    C           -0.609074591657     0.287802950283    -0.207212422059
    H            0.747375889220    -1.072689104666    -1.168652457358
    H            0.770080136495    -1.177694808580     0.560345174287
    C           -1.831859861869    -0.629874472220    -0.240676350948
    H           -0.662288199732     0.986581426348    -1.040639160392
    H           -0.640042703168     0.894321754952     0.697574645292
    C           -3.154961019238     0.133266477243    -0.186813365273
    H           -1.801417573070    -1.235791603131    -1.143790368665
    H           -1.782064698813    -1.325838214471     0.594016094137
    H           -3.249917510997     0.813403465199    -1.028657640737
    H           -4.002280546964    -0.544970466583    -0.212904730929
    H           -3.231213837442     0.722442773593     0.722827045363

  Mulliken Charges: (a.u.)
   Center  Symbol    Alpha    Beta     Spin     Total
       1     H     0.33365  0.33365  0.00000  0.33270
       2     N     3.92023  3.92023  0.00000 -0.84047
       3     C     3.06458  3.06458  0.00000 -0.12916
       4     H     0.33605  0.33605  0.00000  0.32791
       5     C     3.16078  3.16078  0.00000 -0.32156
       6     H     0.41819  0.41819  0.00000  0.16361
       7     H     0.43150  0.43150  0.00000  0.13700
       8     C     3.15416  3.15416  0.00000 -0.30833
       9     H     0.41907  0.41907  0.00000  0.16187
      10     H     0.41169  0.41169  0.00000  0.17663
      11     C     3.15178  3.15178  0.00000 -0.30357
      12     H     0.42397  0.42397  0.00000  0.15206
      13     H     0.42670  0.42670  0.00000  0.14660
      14     C     3.23912  3.23912  0.00000 -0.47823
      15     H     0.42256  0.42256  0.00000  0.15487
      16     H     0.42244  0.42244  0.00000  0.15513
      17     H     0.42199  0.42199  0.00000  0.15601
      18     H     0.41923  0.41923  0.00000  0.16154
      19     H     0.42230  0.42230  0.00000  0.15539

   Total alpha = 25.00000, Total beta = 25.00000, Total charge =  0.00000
