  ==> Input File <==

--------------------------------------------------------------------------
set {
	reference rhf
	basis 6-31G*
}

set_num_threads( 1 )
memory 2 gb

molecule MOL {
0 1

O	 1.350872	 1.081631	 -0.663075
C	 1.122059	 0.121804	 -0.000188
C	 -0.170150	 -0.657997	 -0.000612
O	 1.998333	 -0.400571	 0.848484
C	 -1.412532	 0.227344	 -0.000452
H	 -0.153702	 -1.313099	 -0.867402
H	 -0.153924	 -1.313811	 0.865644
C	 -2.706999	 -0.587347	 -0.000541
H	 -1.388000	 0.879466	 -0.868000
H	 -1.387972	 0.879138	 0.867341
C	 -3.956778	 0.291888	 0.000910
H	 -2.726114	 -1.239230	 -0.871609
H	 -2.725217	 -1.240844	 0.869333
H	 -3.985213	 0.933254	 -0.875158
H	 -4.860123	 -0.309979	 0.000519
H	 -3.984618	 0.931166	 0.878514
C	 3.258012	 0.238798	 0.946242
H	 3.765194	 0.227048	 -0.007758
H	 3.819271	 -0.324847	 1.675105
H	 3.140538	 1.261844	 1.273478

	symmetry c1
}
set optking {
	frozen_dihedral = ("
		9 5 8 12,
		9 5 3 6,
		1 2 4 17
	")
}

ee = energy('scf')
oeprop('DIPOLE', 'QUADRUPOLE', 'MULLIKEN_CHARGES')
f=open( 'psi4out.xyz', 'w' )
f.write( "20  " )
f.write( str(ee) + "\n" )
f.write( MOL.save_string_xyz() )
f.close()
--------------------------------------------------------------------------

    Molecular point group: c1

    Geometry (in Angstrom), charge = 0, multiplicity = 1:

       Center              X                  Y                   Z               Mass
    ------------   -----------------  -----------------  -----------------  -----------------
           O          1.381449458144     1.031042053305    -0.811872095249    15.994914619560
           C          1.152636458144     0.071215053305    -0.148985095249    12.000000000000
           C         -0.139572541856    -0.708585946695    -0.149409095249    12.000000000000
           O          2.028910458144    -0.451159946695     0.699686904751    15.994914619560
           C         -1.381954541856     0.176755053305    -0.149249095249    12.000000000000
           H         -0.123124541856    -1.363687946695    -1.016199095249     1.007825032070
           H         -0.123346541856    -1.364399946695     0.716846904751     1.007825032070
           C         -2.676421541856    -0.637935946695    -0.149338095249    12.000000000000
           H         -1.357422541856     0.828877053305    -1.016797095249     1.007825032070
           H         -1.357394541856     0.828549053305     0.718543904751     1.007825032070
           C         -3.926200541856     0.241299053305    -0.147887095249    12.000000000000
           H         -2.695536541856    -1.289818946695    -1.020406095249     1.007825032070
           H         -2.694639541856    -1.291432946695     0.720535904751     1.007825032070
           H         -3.954635541856     0.882665053305    -1.023955095249     1.007825032070
           H         -4.829545541856    -0.360567946695    -0.148278095249     1.007825032070
           H         -3.954040541856     0.880577053305     0.729716904751     1.007825032070
           C          3.288589458144     0.188209053305     0.797444904751    12.000000000000
           H          3.795771458144     0.176459053305    -0.156555095249     1.007825032070
           H          3.849848458144    -0.375435946695     1.526307904751     1.007825032070
           H          3.171115458144     1.211255053305     1.124680904751     1.007825032070

  Charge       = 0
  Multiplicity = 1
  Basis Set: 6-31G*
  Basis Set:

    Orbital Energies (a.u.)
    -----------------------

    Doubly Occupied:

       1A    -20.605125     2A    -20.544001     3A    -11.372043
       4A    -11.280604     5A    -11.234250     6A    -11.223983
       7A    -11.222055     8A    -11.212160     9A     -1.469489
      10A     -1.362323    11A     -1.090485    12A     -1.024902
      13A     -0.969288    14A     -0.887316    15A     -0.805765
      16A     -0.770285    17A     -0.695191    18A     -0.682066
      19A     -0.672237    20A     -0.646320    21A     -0.598727
      22A     -0.592153    23A     -0.575881    24A     -0.548231
      25A     -0.534893    26A     -0.523629    27A     -0.501271
      28A     -0.480070    29A     -0.477490    30A     -0.471152
      31A     -0.455369    32A     -0.433812

  @DF-RHF Final Energy:  -383.94012836373884

   => Energetics <=

    Nuclear Repulsion Energy =            381.2175521975447055
    One-Electron Energy =               -1278.3902179519106994
    Two-Electron Energy =                 513.2325373906276127
    DFT Exchange-Correlation Energy =       0.0000000000000000
    Empirical Dispersion Energy =           0.0000000000000000
    PCM Polarization Energy =               0.0000000000000000
    EFP Energy =                            0.0000000000000000
    Total Energy =                       -383.9401283637383813

  Mulliken Charges: (a.u.)
   Center  Symbol    Alpha    Beta     Spin     Total
       1     O     4.28609  4.28609  0.00000 -0.57218
       2     C     2.60523  2.60523  0.00000  0.78954
       3     C     3.20938  3.20938  0.00000 -0.41876
       4     O     4.30503  4.30503  0.00000 -0.61006
       5     C     3.15692  3.15692  0.00000 -0.31383
       6     H     0.40043  0.40043  0.00000  0.19914
       7     H     0.40027  0.40027  0.00000  0.19945
       8     C     3.15386  3.15386  0.00000 -0.30771
       9     H     0.40545  0.40545  0.00000  0.18911
      10     H     0.41683  0.41683  0.00000  0.16634
      11     C     3.23982  3.23982  0.00000 -0.47964
      12     H     0.42138  0.42138  0.00000  0.15724
      13     H     0.42193  0.42193  0.00000  0.15614
      14     H     0.41927  0.41927  0.00000  0.16146
      15     H     0.41819  0.41819  0.00000  0.16363
      16     H     0.42048  0.42048  0.00000  0.15904
      17     C     3.09336  3.09336  0.00000 -0.18672
      18     H     0.40890  0.40890  0.00000  0.18220
      19     H     0.40843  0.40843  0.00000  0.18313
      20     H     0.40876  0.40876  0.00000  0.18248

   Total alpha = 32.00000, Total beta = 32.00000, Total charge =  0.00000
