  ==> Input File <==

--------------------------------------------------------------------------
set {
	reference rhf
	basis cc-pvtz
}

set_num_threads( 4 )
memory 2 gb

molecule MOL {
0 1

O	 0.366136	 0.814489	 -0.862391
C	 0.029490	 0.077183	 0.000078
C	 -1.232113	 -0.748027	 0.000015
O	 0.734750	 -0.121407	 1.101169
C	 -2.501422	 0.088592	 -0.000052
H	 -1.188777	 -1.400384	 -0.865133
H	 -1.188857	 -1.400312	 0.865225
H	 -2.548170	 0.725504	 -0.873205
H	 -3.371613	 -0.556398	 -0.000040
H	 -2.548215	 0.725571	 0.873047
C	 1.947327	 0.592731	 1.232726
H	 2.626719	 0.341135	 0.431875
H	 2.365095	 0.297991	 2.181632
H	 1.766009	 1.657248	 1.219654

	symmetry c1
}
set optking {
	frozen_dihedral = ("
		4 2 3 6
	")
}

ee = optimize('scf')
oeprop('DIPOLE', 'QUADRUPOLE', 'MULLIKEN_CHARGES')
f=open( 'psi4out.xyz', 'w' )
f.write( "14  " )
f.write( str(ee) + "\n" )
f.write( MOL.save_string_xyz() )
f.close()
--------------------------------------------------------------------------

    Molecular point group: c1
  Charge       = 0
  Multiplicity = 1
  Basis Set: CC-PVTZ
  Basis Set:
  @DF-RHF Final Energy:  -305.98528105786670
    Total Energy =                       -305.9852810578668141
    Molecular point group: c1
  Basis Set: CC-PVTZ
  Basis Set:
  Basis Set: CC-PVTZ
  Basis Set:
  @DF-RHF Final Energy:  -305.98596137181045
    Total Energy =                       -305.9859613718103901
  Basis Set: CC-PVTZ
  Basis Set:
  Basis Set: CC-PVTZ
  Basis Set:
  @DF-RHF Final Energy:  -305.98589426482278
    Total Energy =                       -305.9858942648227185
  Basis Set: CC-PVTZ
  Basis Set:
  Basis Set: CC-PVTZ
  Basis Set:
  @DF-RHF Final Energy:  -305.98595399332612
    Total Energy =                       -305.9859539933262909
  Basis Set: CC-PVTZ
  Basis Set:
  Charge       = 0
  Multiplicity = 1
  Basis Set: CC-PVTZ
  Basis Set:

    Orbital Energies (a.u.)
    -----------------------

    Doubly Occupied:

       1A    -20.599736     2A    -20.532157     3A    -11.364906
       4A    -11.279253     5A    -11.235926     6A    -11.221672
       7A     -1.473544     8A     -1.365687     9A     -1.065934
      10A     -0.980683    11A     -0.881167    12A     -0.774686
      13A     -0.701090    14A     -0.683903    15A     -0.675879
      16A     -0.618796    17A     -0.602694    18A     -0.562391
      19A     -0.540858    20A     -0.520364    21A     -0.511658
      22A     -0.501262    23A     -0.459755    24A     -0.439682

  @DF-RHF Final Energy:  -305.98599754024883

   => Energetics <=

    Nuclear Repulsion Energy =            247.8171141804829176
    One-Electron Energy =                -908.4188591316976726
    Two-Electron Energy =                 354.6157474109659233
    DFT Exchange-Correlation Energy =       0.0000000000000000
    Empirical Dispersion Energy =           0.0000000000000000
    PCM Polarization Energy =               0.0000000000000000
    EFP Energy =                            0.0000000000000000
    Total Energy =                       -305.9859975402488317
    Molecular point group: c1
  Basis Set: CC-PVTZ
  Basis Set:

  -Total Gradient:
     Atom            X                  Y                   Z
    ------   -----------------  -----------------  -----------------
       1       -0.000059160342    -0.000186127115     0.000148832512
       2        0.000093079403    -0.000025611043    -0.000584448660
       3        0.000162882214    -0.000300764731     0.000330834137
       4        0.000033793289     0.000203295675     0.000384358461
       5        0.000096684451    -0.000055119428     0.000018660993
       6       -0.000168493495     0.000277415328    -0.000268164801
       7        0.000015194862     0.000076527952    -0.000030052640
       8       -0.000004434785    -0.000009640502     0.000011693910
       9       -0.000055788670     0.000018271627    -0.000002046434
      10       -0.000048426471     0.000031937436     0.000009539850
      11       -0.000126617491    -0.000055722040    -0.000019224227
      12        0.000021438294     0.000004453728    -0.000006348950
      13        0.000023706543     0.000008730687     0.000003771200
      14        0.000016142195     0.000012352426     0.000002594651

  **** Optimization is complete! (in 5 steps) ****
    Final optimized geometry and variables:
    Molecular point group: c1

    Geometry (in Angstrom), charge = 0, multiplicity = 1:

    O            0.398865898693     0.699104592089    -1.086489639816
    C            0.107792538457    -0.064274214915    -0.228923061582
    C           -1.145574064857    -0.904192734171    -0.236345423415
    O            0.851715522889    -0.265954484912     0.844220278684
    C           -2.401039469771    -0.034162660547    -0.289146966043
    H           -1.097643663621    -1.524926822324    -1.123396656803
    H           -1.155187978396    -1.549946208709     0.629075957877
    H           -2.381414290505     0.611944924755    -1.155709058652
    H           -3.284739860597    -0.657307449786    -0.343643869548
    H           -2.484293311807     0.586418291044     0.595615508259
    C            2.052373349311     0.473722417921     0.946812449070
    H            2.708500433205     0.250702741949     0.118705426110
    H            2.508741926577     0.172644141337     1.875730602765
    H            1.846596670150     1.533671172820     0.957774566889

  Mulliken Charges: (a.u.)
   Center  Symbol    Alpha    Beta     Spin     Total
       1     O     4.20446  4.20446  0.00000 -0.40893
       2     C     2.80355  2.80355  0.00000  0.39290
       3     C     3.08552  3.08552  0.00000 -0.17103
       4     O     4.14434  4.14434  0.00000 -0.28868
       5     C     3.14583  3.14583  0.00000 -0.29166
       6     H     0.44508  0.44508  0.00000  0.10984
       7     H     0.43976  0.43976  0.00000  0.12048
       8     H     0.44191  0.44191  0.00000  0.11617
       9     H     0.44914  0.44914  0.00000  0.10172
      10     H     0.45319  0.45319  0.00000  0.09363
      11     C     3.03384  3.03384  0.00000 -0.06768
      12     H     0.45405  0.45405  0.00000  0.09189
      13     H     0.44530  0.44530  0.00000  0.10941
      14     H     0.45403  0.45403  0.00000  0.09195

   Total alpha = 24.00000, Total beta = 24.00000, Total charge = -0.00000
