                              Psi4 1.0.54 Driver

  ==> Input File <==

--------------------------------------------------------------------------
set {
	reference rhf
	basis cc-pvtz
}

set_num_threads( 4 )
memory 2 gb

molecule MOL {
0 1

O	 1.319829	 0.668874	 0.975329
C	 1.704209	 0.119472	 -0.000093
C	 1.128789	 0.285990	 -1.383135
O	 2.715427	 -0.733672	 0.000025
C	 -0.040905	 1.257546	 -1.448078
H	 1.939120	 0.602492	 -2.031701
H	 0.840304	 -0.700373	 -1.731427
C	 -0.598171	 1.401575	 -2.861135
H	 0.277412	 2.225275	 -1.077337
H	 -0.822589	 0.921024	 -0.776503
C	 -1.772749	 2.371935	 -2.946212
H	 0.191353	 1.736916	 -3.530051
H	 -0.912605	 0.427084	 -3.228200
C	 -2.329432	 2.516299	 -4.358542
H	 -1.459556	 3.345841	 -2.580733
H	 -2.562576	 2.037087	 -2.279720
H	 -1.571439	 2.883013	 -5.042794
H	 -3.160667	 3.211397	 -4.383477
H	 -2.683546	 1.563990	 -4.739258
C	 4.020999	 -0.192556	 0.000019
H	 4.182809	 0.412891	 -0.879449
H	 4.692590	 -1.035653	 0.000152
H	 4.182726	 0.413087	 0.879368

	symmetry c1
}
set optking {
	frozen_dihedral = ("
		1 2 4 20
	")
}

ee,wfn = optimize('scf', return_wfn=True)
oeprop( wfn, 'DIPOLE', 'QUADRUPOLE', 'MULLIKEN_CHARGES')
f=open( 'psi4out.xyz', 'w' )
f.write( "23  " )
f.write( str(ee) + "\n" )
f.write( MOL.save_string_xyz() )
f.close()
--------------------------------------------------------------------------

    Molecular point group: c1
  Charge       = 0
  Multiplicity = 1
  Basis Set: CC-PVTZ
  Basis Set:
  @DF-RHF Final Energy:  -423.11177853503335
    Total Energy =                       -423.1117785350334088
    Molecular point group: c1
  Basis Set: CC-PVTZ
  Basis Set:
  Basis Set: CC-PVTZ
  Basis Set:
  @DF-RHF Final Energy:  -423.03469527762650
    Total Energy =                       -423.0346952776267244
  Basis Set: CC-PVTZ
  Basis Set:
  Basis Set: CC-PVTZ
  Basis Set:
  @DF-RHF Final Energy:  -423.10388428707040
    Total Energy =                       -423.1038842870706276
  Basis Set: CC-PVTZ
  Basis Set:
  Basis Set: CC-PVTZ
  Basis Set:
  @DF-RHF Final Energy:  -423.11213275141876
    Total Energy =                       -423.1121327514190398
  Basis Set: CC-PVTZ
  Basis Set:
  @DF-RHF Final Energy:  -423.10589202860734
    Total Energy =                       -423.1058920286079683
  @DF-RHF Final Energy:  -423.11186776701231
    Total Energy =                       -423.1118677670119723
  Basis Set: CC-PVTZ
  Basis Set:
  @DF-RHF Final Energy:  -423.11306015311027
    Total Energy =                       -423.1130601531108368
  Basis Set: CC-PVTZ
  Basis Set:
  Basis Set: CC-PVTZ
  Basis Set:
  @DF-RHF Final Energy:  -423.11307908496940
    Total Energy =                       -423.1130790849697405
  Basis Set: CC-PVTZ
  Basis Set:
  Basis Set: CC-PVTZ
  Basis Set:
  @DF-RHF Final Energy:  -423.11308127585801
    Total Energy =                       -423.1130812758580078
  Basis Set: CC-PVTZ
  Basis Set:
  Charge       = 0
  Multiplicity = 1
  Basis Set: CC-PVTZ
  Basis Set:

    Orbital Energies (a.u.)
    -----------------------

    Doubly Occupied:

       1A    -20.578024     2A    -20.545469     3A    -11.367590
       4A    -11.287546     5A    -11.237637     6A    -11.219852
       7A    -11.218159     8A    -11.216315     9A    -11.209251
      10A     -1.461922    11A     -1.369222    12A     -1.096215
      13A     -1.043400    14A     -0.981589    15A     -0.941366
      16A     -0.850389    17A     -0.797745    18A     -0.766328
      19A     -0.698082    20A     -0.681266    21A     -0.676220
      22A     -0.650454    23A     -0.617777    24A     -0.608022
      25A     -0.579904    26A     -0.569322    27A     -0.555955
      28A     -0.535204    29A     -0.510942    30A     -0.502134
      31A     -0.487939    32A     -0.479722    33A     -0.470880
      34A     -0.468120    35A     -0.452948    36A     -0.434268

  @DF-RHF Final Energy:  -423.11308149904073

   => Energetics <=

    Nuclear Repulsion Energy =            453.0495177172539343
    One-Electron Energy =               -1473.9908458572792824
    Two-Electron Energy =                 597.8282466409842755
    DFT Exchange-Correlation Energy =       0.0000000000000000
    Empirical Dispersion Energy =           0.0000000000000000
    PCM Polarization Energy =               0.0000000000000000
    EFP Energy =                            0.0000000000000000
    Total Energy =                       -423.1130814990410727
    Molecular point group: c1
  Basis Set: CC-PVTZ
  Basis Set:

  -Total Gradient:
     Atom            X                  Y                   Z
    ------   -----------------  -----------------  -----------------
       1       -0.002972312672    -0.003699695622     0.001564909253
       2        0.004413200496     0.005102858959    -0.004071057327
       3       -0.000049197857    -0.000026123566     0.000010425024
       4       -0.001586345294    -0.000628129731     0.006374964864
       5        0.000013465778    -0.000005377043    -0.000000454259
       6        0.000001767396     0.000006512104    -0.000012955770
       7        0.000008453460    -0.000007948241    -0.000012504670
       8        0.000001330665    -0.000000980818     0.000004659287
       9        0.000001415338     0.000004994331     0.000001128473
      10       -0.000006521688     0.000001868979     0.000003999905
      11        0.000010203834    -0.000001822903     0.000004434495
      12        0.000000840696     0.000001027923     0.000000311761
      13        0.000003582573    -0.000006307764    -0.000003338937
      14       -0.000005461347     0.000003417880    -0.000001495829
      15       -0.000001035420     0.000004688640    -0.000000649383
      16       -0.000001729164     0.000003151080     0.000001466575
      17       -0.000000265800     0.000000685782     0.000000355181
      18       -0.000001368607    -0.000002393080    -0.000000607967
      19        0.000000116093    -0.000004306269    -0.000002287459
      20        0.000155921686    -0.000759620139    -0.003856923920
      21       -0.000000705237     0.000008756964    -0.000030802855
      22        0.000010651498    -0.000002842228     0.000008307679
      23        0.000003993572     0.000007584758     0.000018115872

  **** Optimization is complete! (in 10 steps) ****
    Final optimized geometry and variables:
    Molecular point group: c1

    Geometry (in Angstrom), charge = 0, multiplicity = 1:

    O            0.657817231198     0.363519714498     2.240953165718
    C            1.084676527920    -0.320913146043     1.384465612080
    C            0.458669917112    -0.507108675125     0.027634379942
    O            2.171513648795    -1.100040182286     1.571361854086
    C           -0.791467926653     0.328168040964    -0.205837032125
    H            1.221511468446    -0.289636962938    -0.715045018496
    H            0.251365096006    -1.567985213074    -0.073560311027
    C           -1.396209898388     0.099192638299    -1.587866665490
    H           -0.549135367923     1.377636424264    -0.079371477777
    H           -1.522370318180     0.094557019989     0.559797883296
    C           -2.652908376300     0.928049685835    -1.837072834968
    H           -0.657095801708     0.333013103502    -2.351107873076
    H           -1.633802426970    -0.955284163613    -1.709090637453
    C           -3.257758731664     0.698401216879    -3.217929123248
    H           -2.416443558253     1.981628307065    -1.717560354185
    H           -3.392093646828     0.694443928027    -1.076126527684
    H           -2.553669477649     0.956727295465    -4.002027946563
    H           -4.147277474451     1.300710699190    -3.361555450916
    H           -3.536818174983    -0.341031019942    -3.355359131100
    C            3.427548270623    -0.465147438088     1.487199682214
    H            3.590686979038    -0.059768616988     0.494337167784
    H            4.171739627092    -1.218925253115     1.686688767721
    H            3.507882770815     0.326190929494     2.220675441557

  Mulliken Charges: (a.u.)
   Center  Symbol    Alpha    Beta     Spin     Total
       1     O     4.17142  4.17142  0.00000 -0.34284
       2     C     2.78690  2.78690  0.00000  0.42619
       3     C     3.11687  3.11687  0.00000 -0.23373
       4     O     4.17031  4.17031  0.00000 -0.34063
       5     C     3.08462  3.08462  0.00000 -0.16925
       6     H     0.44428  0.44428  0.00000  0.11145
       7     H     0.43696  0.43696  0.00000  0.12608
       8     C     3.08865  3.08865  0.00000 -0.17730
       9     H     0.44732  0.44732  0.00000  0.10536
      10     H     0.44417  0.44417  0.00000  0.11165
      11     C     3.08426  3.08426  0.00000 -0.16852
      12     H     0.45616  0.45616  0.00000  0.08769
      13     H     0.45496  0.45496  0.00000  0.09007
      14     C     3.15034  3.15034  0.00000 -0.30068
      15     H     0.45336  0.45336  0.00000  0.09328
      16     H     0.45268  0.45268  0.00000  0.09464
      17     H     0.45552  0.45552  0.00000  0.08896
      18     H     0.44745  0.44745  0.00000  0.10509
      19     H     0.45504  0.45504  0.00000  0.08993
      20     C     3.03529  3.03529  0.00000 -0.07057
      21     H     0.46774  0.46774  0.00000  0.06453
      22     H     0.44365  0.44365  0.00000  0.11270
      23     H     0.45206  0.45206  0.00000  0.09589

   Total alpha = 36.00000, Total beta = 36.00000, Total charge = -0.00000

*** Psi4 exiting successfully. Buy a developer a beer!
