  ==> Input File <==

--------------------------------------------------------------------------
set {
	reference rhf
	basis cc-pvtz
}

set_num_threads( 4 )
memory 2 gb

molecule MOL {
0 1

H	 2.384762	 1.630998	 -1.246465
N	 1.575928	 1.048090	 -1.286405
C	 1.263552	 0.494993	 0.021953
H	 1.768711	 0.321388	 -1.943730
C	 -0.016533	 -0.325589	 -0.026925
H	 1.130762	 1.324019	 0.709032
H	 2.068743	 -0.120213	 0.425899
C	 -1.280353	 0.525521	 0.047747
H	 -0.016686	 -0.912532	 -0.939714
H	 -0.014099	 -1.037598	 0.796369
C	 -2.560681	 -0.301323	 -0.007747
H	 -1.279957	 1.241025	 -0.770189
H	 -1.270445	 1.110526	 0.963468
H	 -2.617064	 -0.872870	 -0.928010
H	 -3.439525	 0.331102	 0.043462
H	 -2.609427	 -1.002736	 0.818585

	symmetry c1
}
set optking {
	frozen_dihedral = ("
		6 3 5 9
	")
}

ee = optimize('scf')
oeprop('DIPOLE', 'QUADRUPOLE', 'MULLIKEN_CHARGES')
f=open( 'psi4out.xyz', 'w' )
f.write( "16  " )
f.write( str(ee) + "\n" )
f.write( MOL.save_string_xyz() )
f.close()
--------------------------------------------------------------------------

    Molecular point group: c1
  Charge       = 0
  Multiplicity = 1
  Basis Set: CC-PVTZ
  Basis Set:
  @DF-RHF Final Energy:  -212.39850790014617
    Total Energy =                       -212.3985079001461145
    Molecular point group: c1
  Basis Set: CC-PVTZ
  Basis Set:
  Basis Set: CC-PVTZ
  Basis Set:
  @DF-RHF Final Energy:  -212.39881000710517
    Total Energy =                       -212.3988100071051122
  Basis Set: CC-PVTZ
  Basis Set:
  Basis Set: CC-PVTZ
  Basis Set:
  @DF-RHF Final Energy:  -212.39887216106001
    Total Energy =                       -212.3988721610598986
  Basis Set: CC-PVTZ
  Basis Set:
  Basis Set: CC-PVTZ
  Basis Set:
  @DF-RHF Final Energy:  -212.39887457207462
    Total Energy =                       -212.3988745720746465
  Basis Set: CC-PVTZ
  Basis Set:
  Charge       = 0
  Multiplicity = 1
  Basis Set: CC-PVTZ
  Basis Set:

    Orbital Energies (a.u.)
    -----------------------

    Doubly Occupied:

       1A    -15.527208     2A    -11.238804     3A    -11.208288
       4A    -11.204896     5A    -11.201581     6A     -1.178630
       7A     -1.054968     8A     -0.958010     9A     -0.845486
      10A     -0.786197    11A     -0.665227    12A     -0.636015
      13A     -0.603324    14A     -0.575769    15A     -0.565029
      16A     -0.516370    17A     -0.502478    18A     -0.468529
      19A     -0.462227    20A     -0.461060    21A     -0.382455

  @DF-RHF Final Energy:  -212.39887482122035

   => Energetics <=

    Nuclear Repulsion Energy =            188.7013759258697689
    One-Electron Energy =                -660.1154007232357799
    Two-Electron Energy =                 259.0151499761457785
    DFT Exchange-Correlation Energy =       0.0000000000000000
    Empirical Dispersion Energy =           0.0000000000000000
    PCM Polarization Energy =               0.0000000000000000
    EFP Energy =                            0.0000000000000000
    Total Energy =                       -212.3988748212202040
    Molecular point group: c1
  Basis Set: CC-PVTZ
  Basis Set:

  -Total Gradient:
     Atom            X                  Y                   Z
    ------   -----------------  -----------------  -----------------
       1       -0.000000893663    -0.000004613012     0.000000884016
       2        0.000016542456     0.000000880508    -0.000011094090
       3        0.001018440857    -0.001602650695     0.002549157833
       4        0.000000165706     0.000001448292     0.000002954879
       5        0.001538658544    -0.002415813599     0.001273000300
       6       -0.001100660198     0.001712441013    -0.002333220520
       7       -0.000012372150     0.000006340562    -0.000011036080
       8       -0.000009313066     0.000022325140    -0.000000716747
       9       -0.001448575356     0.002289112701    -0.001469726323
      10        0.000004986932    -0.000000417691     0.000000929126
      11        0.000000347288    -0.000003637950    -0.000002581856
      12        0.000000398402     0.000001981464     0.000004579337
      13        0.000002868034    -0.000006378715    -0.000000092443
      14       -0.000003745961    -0.000004177294     0.000001888268
      15       -0.000008025752    -0.000002434826    -0.000001538235
      16        0.000001177923     0.000005594100    -0.000003387463

  **** Optimization is complete! (in 5 steps) ****
    Final optimized geometry and variables:
    Molecular point group: c1

    Geometry (in Angstrom), charge = 0, multiplicity = 1:

    H            2.484498261984     1.383202270413    -1.016297277088
    N            1.716050988276     0.747152298599    -1.034758518341
    C            1.457904401168     0.193973379437     0.288514606828
    H            1.945953573610     0.024347956398    -1.684207297486
    C            0.168665735308    -0.624169557560     0.289243436168
    H            1.349131584979     1.035693953176     0.963889602516
    H            2.281339297464    -0.415872650532     0.656768489201
    C           -1.093204392661     0.235220190070     0.333087261072
    H            0.140546977772    -1.228299742935    -0.614742116030
    H            0.172517852240    -1.309555737149     1.131712066863
    C           -2.376160222690    -0.582140679574     0.227402911979
    H           -1.052921709252     0.959816435272    -0.471976053020
    H           -1.104292764048     0.801883891658     1.260596633895
    H           -2.416256571268    -1.127978929913    -0.709560034888
    H           -3.252309245977     0.054491364405     0.275258147086
    H           -2.449782607712    -1.305929522639     1.032928627916

  Mulliken Charges: (a.u.)
   Center  Symbol    Alpha    Beta     Spin     Total
       1     H     0.42866  0.42866  0.00000  0.14269
       2     N     3.69251  3.69251  0.00000 -0.38502
       3     C     3.03565  3.03565  0.00000 -0.07130
       4     H     0.43086  0.43086  0.00000  0.13829
       5     C     3.08320  3.08320  0.00000 -0.16640
       6     H     0.45814  0.45814  0.00000  0.08373
       7     H     0.45888  0.45888  0.00000  0.08223
       8     C     3.08139  3.08139  0.00000 -0.16277
       9     H     0.46098  0.46098  0.00000  0.07805
      10     H     0.45188  0.45188  0.00000  0.09623
      11     C     3.15051  3.15051  0.00000 -0.30101
      12     H     0.44736  0.44736  0.00000  0.10528
      13     H     0.45810  0.45810  0.00000  0.08379
      14     H     0.45551  0.45551  0.00000  0.08899
      15     H     0.44913  0.44913  0.00000  0.10174
      16     H     0.45726  0.45726  0.00000  0.08548

   Total alpha = 21.00000, Total beta = 21.00000, Total charge = -0.00000
