                              Psi4 1.0.54 Driver

  ==> Input File <==

--------------------------------------------------------------------------
set {
	reference rhf
	basis cc-pvtz
}

set_num_threads( 4 )
memory 2 gb

molecule MOL {
0 1

O	 -2.081319	 -0.951530	 -0.502732
N	 -1.613558	 0.006676	 0.014756
C	 -0.329345	 -0.171618	 0.743966
O	 -2.068523	 1.100482	 -0.024385
C	 0.665871	 0.890031	 0.292816
H	 0.011750	 -1.166057	 0.509097
H	 -0.565307	 -0.080869	 1.791018
C	 2.000827	 0.745266	 1.018834
H	 0.814223	 0.801319	 -0.777081
H	 0.244883	 1.870460	 0.483249
C	 3.013642	 1.801312	 0.590520
H	 2.408430	 -0.243706	 0.831133
H	 1.838242	 0.814008	 2.090398
H	 3.221707	 1.735124	 -0.471565
H	 2.646249	 2.800774	 0.795005
H	 3.950036	 1.677064	 1.120512

	symmetry c1
}
set optking {
	frozen_dihedral = ("
		5 3 2 1
	")
}

ee,wfn = optimize('scf', return_wfn=True)
oeprop( wfn, 'DIPOLE', 'QUADRUPOLE', 'MULLIKEN_CHARGES')
f=open( 'psi4out.xyz', 'w' )
f.write( "16  " )
f.write( str(ee) + "\n" )
f.write( MOL.save_string_xyz() )
f.close()
--------------------------------------------------------------------------

    Molecular point group: c1
  Charge       = 0
  Multiplicity = 1
  Basis Set: CC-PVTZ
  Basis Set:
  @DF-RHF Final Energy:  -360.90843475285999
    Total Energy =                       -360.9084347528601029
    Molecular point group: c1
  Basis Set: CC-PVTZ
  Basis Set:
  Basis Set: CC-PVTZ
  Basis Set:
  @DF-RHF Final Energy:  -360.90033121574425
    Total Energy =                       -360.9003312157439609
  Basis Set: CC-PVTZ
  Basis Set:
  Basis Set: CC-PVTZ
  Basis Set:
  @DF-RHF Final Energy:  -360.90613849620075
    Total Energy =                       -360.9061384962008674
  Basis Set: CC-PVTZ
  Basis Set:
  Basis Set: CC-PVTZ
  Basis Set:
  @DF-RHF Final Energy:  -360.90887596415604
    Total Energy =                       -360.9088759641559818
  Basis Set: CC-PVTZ
  Basis Set:
  Basis Set: CC-PVTZ
  Basis Set:
  @DF-RHF Final Energy:  -360.90894010161685
    Total Energy =                       -360.9089401016169631
  Basis Set: CC-PVTZ
  Basis Set:
  Basis Set: CC-PVTZ
  Basis Set:
  @DF-RHF Final Energy:  -360.90904604558671
    Total Energy =                       -360.9090460455864786
  Basis Set: CC-PVTZ
  Basis Set:
  Basis Set: CC-PVTZ
  Basis Set:
  @DF-RHF Final Energy:  -360.90904727188234
    Total Energy =                       -360.9090472718825140
  Basis Set: CC-PVTZ
  Basis Set:
  Charge       = 0
  Multiplicity = 1
  Basis Set: CC-PVTZ
  Basis Set:

    Orbital Energies (a.u.)
    -----------------------

    Doubly Occupied:

       1A    -20.591621     2A    -20.588761     3A    -15.837003
       4A    -11.297090     5A    -11.247108     6A    -11.240740
       7A    -11.225025     8A     -1.635971     9A     -1.420072
      10A     -1.135157    11A     -1.059410    12A     -0.948862
      13A     -0.843515    14A     -0.825685    15A     -0.759400
      16A     -0.742643    17A     -0.729512    18A     -0.674385
      19A     -0.615377    20A     -0.605957    21A     -0.566693
      22A     -0.539207    23A     -0.518530    24A     -0.503063
      25A     -0.495746    26A     -0.485910    27A     -0.469508
      28A     -0.453525

  @DF-RHF Final Energy:  -360.90904750767726

   => Energetics <=

    Nuclear Repulsion Energy =            312.6542090976091117
    One-Electron Energy =               -1111.0155531909890669
    Two-Electron Energy =                 437.4522965857029249
    DFT Exchange-Correlation Energy =       0.0000000000000000
    Empirical Dispersion Energy =           0.0000000000000000
    PCM Polarization Energy =               0.0000000000000000
    EFP Energy =                            0.0000000000000000
    Total Energy =                       -360.9090475076770872
    Molecular point group: c1
  Basis Set: CC-PVTZ
  Basis Set:

  -Total Gradient:
     Atom            X                  Y                   Z
    ------   -----------------  -----------------  -----------------
       1       -0.000179009672    -0.000136255285     0.000501539731
       2        0.000173006167     0.000302449007    -0.000553732968
       3        0.000095124473    -0.000374780878    -0.000281078518
       4        0.000043265751    -0.000031665074    -0.000001311399
       5       -0.000112273231     0.000230391222     0.000323282710
       6        0.000000845892     0.000000526096     0.000003410130
       7       -0.000001418351     0.000007560364    -0.000005872537
       8       -0.000003454398     0.000008093907     0.000013645800
       9       -0.000006520908    -0.000000123159    -0.000001315015
      10       -0.000000104108    -0.000000993548     0.000005492993
      11       -0.000001847808    -0.000005141103    -0.000006893235
      12       -0.000007583004    -0.000000398034     0.000000808924
      13        0.000002839139     0.000002384834     0.000004685473
      14        0.000000206282     0.000002710690    -0.000002748473
      15        0.000000472296    -0.000000364630     0.000002207726
      16       -0.000003548519    -0.000004394407    -0.000002121341

  **** Optimization is complete! (in 8 steps) ****
    Final optimized geometry and variables:
    Molecular point group: c1

    Geometry (in Angstrom), charge = 0, multiplicity = 1:

    O           -1.916451913873    -1.629378323264    -0.557275866632
    N           -1.494305128515    -0.626151816094    -0.089947468327
    C           -0.099229408606    -0.649226612155     0.435883259545
    O           -2.098430496303     0.388575760211     0.013923620639
    C            0.725135578167     0.510064341692    -0.098301182111
    H            0.299735734952    -1.609444850922     0.159077453801
    H           -0.207465947882    -0.594882153831     1.510023165055
    C            2.154816753028     0.460211397091     0.435836733685
    H            0.736659938747     0.468498176826    -1.182683920004
    H            0.253071669743     1.441670649609     0.180956661739
    C            3.010991490094     1.608612571757    -0.086298867543
    H            2.613678269195    -0.485335347419     0.162141837974
    H            2.135072483156     0.489751134485     1.521585162465
    H            3.076705104842     1.586423896141    -1.168452189235
    H            2.594953941524     2.567817767791     0.200829920795
    H            4.018133750249     1.551759225018     0.308258529694

  Mulliken Charges: (a.u.)
   Center  Symbol    Alpha    Beta     Spin     Total
       1     O     4.16933  4.16933  0.00000 -0.33866
       2     N     3.27629  3.27629  0.00000  0.44741
       3     C     3.04344  3.04344  0.00000 -0.08689
       4     O     4.17344  4.17344  0.00000 -0.34688
       5     C     3.10013  3.10013  0.00000 -0.20027
       6     H     0.43141  0.43141  0.00000  0.13717
       7     H     0.43673  0.43673  0.00000  0.12655
       8     C     3.09389  3.09389  0.00000 -0.18778
       9     H     0.44370  0.44370  0.00000  0.11260
      10     H     0.43262  0.43262  0.00000  0.13476
      11     C     3.14802  3.14802  0.00000 -0.29605
      12     H     0.45069  0.45069  0.00000  0.09862
      13     H     0.45118  0.45118  0.00000  0.09765
      14     H     0.45215  0.45215  0.00000  0.09571
      15     H     0.45154  0.45154  0.00000  0.09691
      16     H     0.44543  0.44543  0.00000  0.10914

   Total alpha = 28.00000, Total beta = 28.00000, Total charge = -0.00000

*** Psi4 exiting successfully. Buy a developer a beer!
