  ==> Input File <==

--------------------------------------------------------------------------
set {
	reference rhf
	basis cc-pvtz
}

set_num_threads( 4 )
memory 2 gb

molecule MOL {
0 1

O	 -0.294688	 1.318815	 -0.000872
C	 -0.448732	 0.145721	 -0.000187
C	 -1.780748	 -0.548101	 0.000195
O	 0.550743	 -0.719877	 0.000412
H	 -1.859389	 -1.183260	 -0.872613
H	 -2.570236	 0.185547	 -0.001342
H	 -1.860233	 -1.180337	 0.875064
C	 1.670789	 -0.416766	 -0.807477
H	 1.382190	 -0.341228	 -1.845279
H	 2.364234	 -1.230647	 -0.671772
H	 2.122396	 0.514066	 -0.498244

	symmetry c1
}
set optking {
	frozen_dihedral = ("
		8 4 2 1
	")
}

ee = optimize('scf')
oeprop('DIPOLE', 'QUADRUPOLE', 'MULLIKEN_CHARGES')
f=open( 'psi4out.xyz', 'w' )
f.write( "11  " )
f.write( str(ee) + "\n" )
f.write( MOL.save_string_xyz() )
f.close()
--------------------------------------------------------------------------

    Molecular point group: c1
  Charge       = 0
  Multiplicity = 1
  Basis Set: CC-PVTZ
  Basis Set:
  @DF-RHF Final Energy:  -266.93086954934586
    Total Energy =                       -266.9308695493458004
    Molecular point group: c1
  Basis Set: CC-PVTZ
  Basis Set:
  Basis Set: CC-PVTZ
  Basis Set:
  @DF-RHF Final Energy:  -266.92793618639962
    Total Energy =                       -266.9279361863993927
  Basis Set: CC-PVTZ
  Basis Set:
  Basis Set: CC-PVTZ
  Basis Set:
  @DF-RHF Final Energy:  -266.93148207151694
    Total Energy =                       -266.9314820715168253
  Basis Set: CC-PVTZ
  Basis Set:
  Basis Set: CC-PVTZ
  Basis Set:
  @DF-RHF Final Energy:  -266.93154073469782
    Total Energy =                       -266.9315407346978191
  Basis Set: CC-PVTZ
  Basis Set:
  Basis Set: CC-PVTZ
  Basis Set:
  @DF-RHF Final Energy:  -266.93155115946979
    Total Energy =                       -266.9315511594699046
  Basis Set: CC-PVTZ
  Basis Set:
  Basis Set: CC-PVTZ
  Basis Set:
  @DF-RHF Final Energy:  -266.93154363657561
    Total Energy =                       -266.9315436365756113
  Basis Set: CC-PVTZ
  Basis Set:
  Basis Set: CC-PVTZ
  Basis Set:
  @DF-RHF Final Energy:  -266.93155915456254
    Total Energy =                       -266.9315591545625921
  Basis Set: CC-PVTZ
  Basis Set:
  Charge       = 0
  Multiplicity = 1
  Basis Set: CC-PVTZ
  Basis Set:

    Orbital Energies (a.u.)
    -----------------------

    Doubly Occupied:

       1A    -20.591062     2A    -20.539611     3A    -11.370323
       4A    -11.283103     5A    -11.234099     6A     -1.469135
       7A     -1.369068     8A     -1.034302     9A     -0.955608
      10A     -0.779365    11A     -0.697627    12A     -0.683316
      13A     -0.677431    14A     -0.601540    15A     -0.594025
      16A     -0.566569    17A     -0.534638    18A     -0.515280
      19A     -0.460584    20A     -0.444546

  @DF-RHF Final Energy:  -266.93155984841746

   => Energetics <=

    Nuclear Repulsion Energy =            183.1541527523710613
    One-Electron Energy =                -727.3689599919255215
    Two-Electron Energy =                 277.2832473911370812
    DFT Exchange-Correlation Energy =       0.0000000000000000
    Empirical Dispersion Energy =           0.0000000000000000
    PCM Polarization Energy =               0.0000000000000000
    EFP Energy =                            0.0000000000000000
    Total Energy =                       -266.9315598484174075
    Molecular point group: c1
  Basis Set: CC-PVTZ
  Basis Set:

  -Total Gradient:
     Atom            X                  Y                   Z
    ------   -----------------  -----------------  -----------------
       1       -0.000324177161    -0.000020662312     0.009878684157
       2       -0.001149836713    -0.001723385938    -0.017758061117
       3        0.000047036010    -0.000000656356     0.000195677270
       4        0.004455835473     0.005570145368     0.013588048647
       5        0.000005550586    -0.000004845449    -0.000013359978
       6       -0.000017448740    -0.000017374960    -0.000015597003
       7        0.000002663317     0.000010291179    -0.000010598733
       8       -0.003062432708    -0.003830138696    -0.005856887737
       9        0.000023048544     0.000010227149    -0.000005415173
      10        0.000010293172    -0.000003849034     0.000001190959
      11        0.000009468220     0.000010249051    -0.000003681290

  **** Optimization is complete! (in 8 steps) ****
    Final optimized geometry and variables:
    Molecular point group: c1

    Geometry (in Angstrom), charge = 0, multiplicity = 1:

    O           -0.270283715390     1.365466903312     0.116845413506
    C           -0.419226223449     0.194540356307     0.130601366433
    C           -1.747466796900    -0.500449466061     0.206154729609
    O            0.594732121972    -0.669579367489     0.180759678272
    H           -1.895744416678    -1.087378039258    -0.692309950366
    H           -2.537516673346     0.225760512928     0.307559082545
    H           -1.750576985223    -1.183215749031     1.045555072040
    C            1.741195787621    -0.371269130926    -0.591199521936
    H            1.479254875179    -0.304284266122    -1.639099977403
    H            2.428156814314    -1.188100170043    -0.441128081715
    H            2.193517382363     0.556022824972    -0.274170636503

  Mulliken Charges: (a.u.)
   Center  Symbol    Alpha    Beta     Spin     Total
       1     O     4.18652  4.18652  0.00000 -0.37305
       2     C     2.80063  2.80063  0.00000  0.39875
       3     C     3.13696  3.13696  0.00000 -0.27392
       4     O     4.15600  4.15600  0.00000 -0.31200
       5     H     0.44915  0.44915  0.00000  0.10170
       6     H     0.43838  0.43838  0.00000  0.12323
       7     H     0.44366  0.44366  0.00000  0.11268
       8     C     3.03266  3.03266  0.00000 -0.06532
       9     H     0.46334  0.46334  0.00000  0.07331
      10     H     0.44552  0.44552  0.00000  0.10895
      11     H     0.44717  0.44717  0.00000  0.10565

   Total alpha = 20.00000, Total beta = 20.00000, Total charge = -0.00000
