  ==> Input File <==

--------------------------------------------------------------------------
set {
	reference rhf
	basis 6-31G*
}

set_num_threads( 4 )
memory 2 gb

molecule MOL {
0 1

H	 2.591245	 0.065271	 1.159481
C	 1.951159	 -0.223429	 0.317018
C	 0.692068	 0.589600	 0.160137
O	 2.269671	 -1.120346	 -0.394473
C	 -0.558097	 -0.297372	 0.091132
H	 0.791645	 1.202255	 -0.728243
H	 0.616171	 1.253469	 1.020572
C	 -1.850991	 0.512573	 -0.019058
H	 -0.476753	 -0.965681	 -0.762987
H	 -0.604799	 -0.930658	 0.975228
C	 -3.096943	 -0.368295	 -0.099594
H	 -1.800724	 1.150330	 -0.898172
H	 -1.931651	 1.177355	 0.838044
H	 -3.060452	 -1.020287	 -0.967456
H	 -3.996858	 0.233488	 -0.175704
H	 -3.191959	 -0.995686	 0.782074

	symmetry c1
}
set optking {
	frozen_dihedral = ("
		4 2 3 6
	")
}

ee = optimize('scf')
oeprop('DIPOLE', 'QUADRUPOLE', 'MULLIKEN_CHARGES')
f=open( 'psi4out.xyz', 'w' )
f.write( "16  " )
f.write( str(ee) + "\n" )
f.write( MOL.save_string_xyz() )
f.close()
--------------------------------------------------------------------------

    Molecular point group: c1
  Charge       = 0
  Multiplicity = 1
  Basis Set: 6-31G*
  Basis Set:
  @DF-RHF Final Energy:  -270.01818952030396
    Total Energy =                       -270.0181895203040767
    Molecular point group: c1
  Basis Set: 6-31G*
  Basis Set:
  Basis Set: 6-31G*
  Basis Set:
  @DF-RHF Final Energy:  -270.01873803102671
    Total Energy =                       -270.0187380310266576
  Basis Set: 6-31G*
  Basis Set:
  Basis Set: 6-31G*
  Basis Set:
  @DF-RHF Final Energy:  -270.01840225183889
    Total Energy =                       -270.0184022518387223
  Basis Set: 6-31G*
  Basis Set:
  Basis Set: 6-31G*
  Basis Set:
  @DF-RHF Final Energy:  -270.01874086204248
    Total Energy =                       -270.0187408620424776
  Basis Set: 6-31G*
  Basis Set:
  Basis Set: 6-31G*
  Basis Set:
  @DF-RHF Final Energy:  -270.01875174572172
    Total Energy =                       -270.0187517457218291
  Basis Set: 6-31G*
  Basis Set:
  Basis Set: 6-31G*
  Basis Set:
  @DF-RHF Final Energy:  -270.01878200477472
    Total Energy =                       -270.0187820047746072
  Basis Set: 6-31G*
  Basis Set:
  Basis Set: 6-31G*
  Basis Set:
  @DF-RHF Final Energy:  -270.01878471616635
    Total Energy =                       -270.0187847161666923
  Basis Set: 6-31G*
  Basis Set:
  Charge       = 0
  Multiplicity = 1
  Basis Set: 6-31G*
  Basis Set:

    Orbital Energies (a.u.)
    -----------------------

    Doubly Occupied:

       1A    -20.562892     2A    -11.328002     3A    -11.235632
       4A    -11.227336     5A    -11.224111     6A    -11.213967
       7A     -1.403329     8A     -1.089754     9A     -1.014331
      10A     -0.906141    11A     -0.813252    12A     -0.778823
      13A     -0.680654    14A     -0.647486    15A     -0.627968
      16A     -0.599639    17A     -0.580600    18A     -0.544589
      19A     -0.526715    20A     -0.502980    21A     -0.481420
      22A     -0.478805    23A     -0.472598    24A     -0.408951

  @DF-RHF Final Energy:  -270.01878475764153

   => Energetics <=

    Nuclear Repulsion Energy =            231.2403726588470931
    One-Electron Energy =                -823.8183619446865578
    Two-Electron Energy =                 322.5592045281978244
    DFT Exchange-Correlation Energy =       0.0000000000000000
    Empirical Dispersion Energy =           0.0000000000000000
    PCM Polarization Energy =               0.0000000000000000
    EFP Energy =                            0.0000000000000000
    Total Energy =                       -270.0187847576416971
    Molecular point group: c1
  Basis Set: 6-31G*
  Basis Set:

  -Total Gradient:
     Atom            X                  Y                   Z
    ------   -----------------  -----------------  -----------------
       1        0.000000004583     0.000005328595    -0.000006164028
       2       -0.000883175361    -0.001326104082     0.000963554119
       3        0.000841267676     0.001367393577     0.000431070536
       4        0.000534108778     0.000813691752    -0.000749412537
       5       -0.000014470771    -0.000003339700     0.000022227934
       6       -0.000486218750    -0.000837975341    -0.000635663249
       7        0.000007975120    -0.000006691322    -0.000008795101
       8        0.000011539396    -0.000008397858    -0.000030231492
       9        0.000001030629     0.000023410691    -0.000000882598
      10       -0.000017194936    -0.000020663932     0.000001622521
      11       -0.000002225001    -0.000004974719     0.000020603643
      12       -0.000001315808     0.000000724520    -0.000007090595
      13        0.000010094114    -0.000003105915    -0.000005216932
      14        0.000001405767     0.000006705446    -0.000000374330
      15       -0.000000744807     0.000000934180     0.000006231721
      16       -0.000002080627    -0.000006935891    -0.000001479612

  **** Optimization is complete! (in 8 steps) ****
    Final optimized geometry and variables:
    Molecular point group: c1

    Geometry (in Angstrom), charge = 0, multiplicity = 1:

    H            2.787837825265     0.214535637867     1.082451707793
    C            2.077317491276    -0.059894516297     0.295600023929
    C            0.799314536522     0.747481974096     0.223333108006
    O            2.339717631646    -0.938854111254    -0.460701013725
    C           -0.449441710700    -0.137529618687     0.128855812229
    H            0.868066418759     1.367721444020    -0.668276779821
    H            0.739524148069     1.415073263304     1.077525384836
    C           -1.735765890226     0.674158962588    -0.027601046653
    H           -0.332004130003    -0.813651068677    -0.710870554160
    H           -0.519627992677    -0.758441448413     1.019459918856
    C           -2.981850223577    -0.206232661270    -0.113715146092
    H           -1.665928228274     1.289800390721    -0.921786981744
    H           -1.836279223955     1.361387183932     0.809849519582
    H           -2.925644448178    -0.881958461342    -0.962035472543
    H           -3.878756423425     0.394423777789    -0.227119486070
    H           -3.098497076964    -0.809557426780     0.781977869473

  Mulliken Charges: (a.u.)
   Center  Symbol    Alpha    Beta     Spin     Total
       1     H     0.42589  0.42589  0.00000  0.14821
       2     C     2.84333  2.84333  0.00000  0.31334
       3     C     3.20449  3.20449  0.00000 -0.40897
       4     O     4.23695  4.23695  0.00000 -0.47391
       5     C     3.15551  3.15551  0.00000 -0.31103
       6     H     0.40135  0.40135  0.00000  0.19731
       7     H     0.41539  0.41539  0.00000  0.16922
       8     C     3.15303  3.15303  0.00000 -0.30607
       9     H     0.40375  0.40375  0.00000  0.19250
      10     H     0.41911  0.41911  0.00000  0.16178
      11     C     3.24008  3.24008  0.00000 -0.48015
      12     H     0.42105  0.42105  0.00000  0.15791
      13     H     0.42276  0.42276  0.00000  0.15447
      14     H     0.41881  0.41881  0.00000  0.16237
      15     H     0.41790  0.41790  0.00000  0.16420
      16     H     0.42059  0.42059  0.00000  0.15882

   Total alpha = 24.00000, Total beta = 24.00000, Total charge = -0.00000
