                              Psi4 1.0.54 Driver

  ==> Input File <==

--------------------------------------------------------------------------
set {
	reference rhf
	basis cc-pvtz
}

set_num_threads( 4 )
memory 2 gb

molecule MOL {
0 1

H	 3.350209	 -1.124104	 3.651338
C	 2.818657	 -1.392608	 2.746094
C	 1.546206	 -0.566957	 2.591757
H	 3.491571	 -1.234882	 1.909823
H	 2.597613	 -2.453588	 2.795874
C	 0.766782	 -0.912734	 1.331636
H	 1.787660	 0.489948	 2.571372
H	 0.909325	 -0.721847	 3.459494
N	 -0.421266	 -0.096941	 1.202178
H	 1.393295	 -0.734935	 0.462706
H	 0.535243	 -1.982067	 1.330839
C	 -1.215959	 -0.382435	 0.027143
H	 -0.985069	 -0.190318	 2.021157
C	 -2.451944	 0.502410	 -0.038737
H	 -0.599104	 -0.202048	 -0.848144
H	 -1.519233	 -1.432577	 -0.020860
C	 -3.752217	 -0.292550	 0.005776
H	 -2.407325	 1.093801	 -0.946480
H	 -2.431979	 1.206234	 0.790023
H	 -3.817783	 -0.982946	 -0.828547
H	 -4.612613	 0.364348	 -0.042306
H	 -3.830160	 -0.871666	 0.919868

	symmetry c1
}
set optking {
	frozen_dihedral = ("
		15 12 14 18
	")
}

ee,wfn = optimize('scf', return_wfn=True)
oeprop( wfn, 'DIPOLE', 'QUADRUPOLE', 'MULLIKEN_CHARGES')
f=open( 'psi4out.xyz', 'w' )
f.write( "22  " )
f.write( str(ee) + "\n" )
f.write( MOL.save_string_xyz() )
f.close()
--------------------------------------------------------------------------

    Molecular point group: c1
  Charge       = 0
  Multiplicity = 1
  Basis Set: CC-PVTZ
  Basis Set:
  @DF-RHF Final Energy:  -290.48358436295609
    Total Energy =                       -290.4835843629559236
    Molecular point group: c1
  Basis Set: CC-PVTZ
  Basis Set:
  Basis Set: CC-PVTZ
  Basis Set:
  @DF-RHF Final Energy:  -290.48394450621100
    Total Energy =                       -290.4839445062107757
  Basis Set: CC-PVTZ
  Basis Set:
  Basis Set: CC-PVTZ
  Basis Set:
  @DF-RHF Final Energy:  -290.48404065713385
    Total Energy =                       -290.4840406571335620
  Basis Set: CC-PVTZ
  Basis Set:
  Charge       = 0
  Multiplicity = 1
  Basis Set: CC-PVTZ
  Basis Set:

    Orbital Energies (a.u.)
    -----------------------

    Doubly Occupied:

       1A    -15.528748     2A    -11.236360     3A    -11.235936
       4A    -11.211869     5A    -11.211591     6A    -11.208211
       7A    -11.207572     8A     -1.206989     9A     -1.058621
      10A     -1.025720    11A     -0.928454    12A     -0.871608
      13A     -0.810574    14A     -0.794494    15A     -0.667306
      16A     -0.632409    17A     -0.619324    18A     -0.597762
      19A     -0.576330    20A     -0.564540    21A     -0.546564
      22A     -0.527777    23A     -0.506572    24A     -0.488718
      25A     -0.480630    26A     -0.471512    27A     -0.465202
      28A     -0.451587    29A     -0.360627

  @DF-RHF Final Energy:  -290.48404142177122

   => Energetics <=

    Nuclear Repulsion Energy =            314.5632494813579001
    One-Electron Energy =               -1015.1073597246398776
    Two-Electron Energy =                 410.0600688215108107
    DFT Exchange-Correlation Energy =       0.0000000000000000
    Empirical Dispersion Energy =           0.0000000000000000
    PCM Polarization Energy =               0.0000000000000000
    EFP Energy =                            0.0000000000000000
    Total Energy =                       -290.4840414217711100
    Molecular point group: c1
  Basis Set: CC-PVTZ
  Basis Set:

  -Total Gradient:
     Atom            X                  Y                   Z
    ------   -----------------  -----------------  -----------------
       1        0.000013890328    -0.000008252578     0.000003130217
       2        0.000016443032     0.000007843709     0.000029233834
       3        0.000038869892    -0.000026541258    -0.000013816071
       4       -0.000002901226     0.000001131252     0.000001089554
       5       -0.000001909344     0.000003838332    -0.000000557225
       6       -0.000024700880     0.000034601166     0.000030933767
       7        0.000000476056    -0.000004329520    -0.000001683059
       8       -0.000001321851    -0.000004162013    -0.000004463164
       9       -0.000020084867    -0.000018434719    -0.000087072674
      10        0.000006700399    -0.000005369688     0.000011196889
      11        0.000011349471    -0.000008019634    -0.000005772414
      12        0.000427216328     0.000694507607     0.000522586299
      13       -0.000008508947     0.000002127377    -0.000042042745
      14       -0.000455679345    -0.000651652475    -0.000479532093
      15       -0.000298047321    -0.000460286462    -0.000278676578
      16        0.000008329846    -0.000001269061    -0.000005918915
      17       -0.000030308244    -0.000021922948     0.000009353788
      18        0.000303344640     0.000459970948     0.000313842125
      19       -0.000011896021    -0.000017835780    -0.000004840434
      20        0.000015883508     0.000006336598     0.000005526345
      21        0.000004963415     0.000014520502    -0.000006609758
      22        0.000007891129     0.000003198648     0.000004092314

  **** Optimization is complete! (in 4 steps) ****
    Final optimized geometry and variables:
    Molecular point group: c1

    Geometry (in Angstrom), charge = 0, multiplicity = 1:

    H            3.757950444291    -0.710878413585     2.493987693341
    C            3.215196017277    -0.971631550993     1.593104757403
    C            1.954527716762    -0.126462919990     1.448072916464
    H            3.883838622987    -0.824856553734     0.751438093403
    H            2.977991989007    -2.028993487248     1.645375491094
    C            1.160503120711    -0.459980570127     0.193633868074
    H            2.212276211322     0.926518252601     1.425863514594
    H            1.321760641696    -0.271705017662     2.320484425039
    N           -0.014460917792     0.375356617982     0.071603677501
    H            1.783692490286    -0.292874713840    -0.679939672379
    H            0.911523334950    -1.525419792195     0.194610453977
    C           -0.821444730846     0.096045509705    -1.099710872694
    H           -0.575281453572     0.288541702399     0.893746943384
    C           -2.078716925942     0.981934066036    -1.154814053419
    H           -0.204367459682     0.269582379895    -1.973853782922
    H           -1.115246475918    -0.955817273365    -1.144226218861
    C           -3.386725023562     0.198837456940    -1.090446828629
    H           -2.065080106920     1.582074862547    -2.057469724058
    H           -2.036516822011     1.687317551703    -0.332878350142
    H           -3.478814046181    -0.482511916754    -1.929458918090
    H           -4.242522371287     0.863990843409    -1.109575609302
    H           -3.446323973672    -0.391413827661    -0.181332133203

  Mulliken Charges: (a.u.)
   Center  Symbol    Alpha    Beta     Spin     Total
       1     H     0.44771  0.44771  0.00000  0.10458
       2     C     3.15354  3.15354  0.00000 -0.30708
       3     C     3.08021  3.08021  0.00000 -0.16043
       4     H     0.45472  0.45472  0.00000  0.09056
       5     H     0.45614  0.45614  0.00000  0.08771
       6     C     3.02108  3.02108  0.00000 -0.04216
       7     H     0.44905  0.44905  0.00000  0.10189
       8     H     0.45979  0.45979  0.00000  0.08042
       9     N     3.63628  3.63628  0.00000 -0.27256
      10     H     0.45918  0.45918  0.00000  0.08165
      11     H     0.47480  0.47480  0.00000  0.05040
      12     C     3.03393  3.03393  0.00000 -0.06785
      13     H     0.44525  0.44525  0.00000  0.10951
      14     C     3.09352  3.09352  0.00000 -0.18703
      15     H     0.45568  0.45568  0.00000  0.08864
      16     H     0.47243  0.47243  0.00000  0.05514
      17     C     3.14724  3.14724  0.00000 -0.29448
      18     H     0.44873  0.44873  0.00000  0.10253
      19     H     0.44951  0.44951  0.00000  0.10098
      20     H     0.45509  0.45509  0.00000  0.08982
      21     H     0.44909  0.44909  0.00000  0.10181
      22     H     0.45703  0.45703  0.00000  0.08594

   Total alpha = 29.00000, Total beta = 29.00000, Total charge = -0.00000

*** Psi4 exiting successfully. Buy a developer a beer!
