  ==> Input File <==

--------------------------------------------------------------------------
set {
	reference rhf
	basis 6-31G*
}

set_num_threads( 1 )
memory 2 gb

molecule MOL {
0 1

H	 -0.516344	 1.550786	 2.886715
C	 -1.161511	 0.683844	 2.697527
C	 -2.026096	 0.789316	 1.467088
O	 -1.145016	 -0.245669	 3.437449
C	 -1.220012	 1.144545	 0.209990
H	 -2.563403	 -0.144078	 1.345495
H	 -2.757938	 1.573607	 1.656697
C	 -0.252658	 0.041456	 -0.226725
H	 -1.915902	 1.354328	 -0.596864
H	 -0.669750	 2.068198	 0.382713
C	 1.180775	 0.282413	 0.250794
H	 -0.266029	 -0.034465	 -1.312038
H	 -0.597733	 -0.921000	 0.146291
C	 2.148627	 -0.814315	 -0.201312
H	 1.516199	 1.249228	 -0.115937
H	 1.192670	 0.346017	 1.338083
C	 3.580890	 -0.659131	 0.322722
H	 2.166869	 -0.852443	 -1.289387
H	 1.762857	 -1.776509	 0.128956
C	 4.324889	 0.564933	 -0.213704
H	 4.142010	 -1.551473	 0.056605
H	 3.564836	 -0.624694	 1.410140
H	 4.342616	 0.565491	 -1.300421
H	 3.866655	 1.493402	 0.110242
H	 5.353900	 0.572371	 0.132816

	symmetry c1
}
set optking {
	frozen_dihedral = ("
		6 3 5 8,
		6 3 2 4,
		12 8 11 14,
		8 11 14 18,
		20 17 14 18
	")
}

ee = energy('scf')
oeprop('DIPOLE', 'QUADRUPOLE', 'MULLIKEN_CHARGES')
f=open( 'psi4out.xyz', 'w' )
f.write( "25  " )
f.write( str(ee) + "\n" )
f.write( MOL.save_string_xyz() )
f.close()
--------------------------------------------------------------------------

    Molecular point group: c1

    Geometry (in Angstrom), charge = 0, multiplicity = 1:

       Center              X                  Y                   Z               Mass
    ------------   -----------------  -----------------  -----------------  -----------------
           H         -1.135697500395     1.352736368651     2.015053757442     1.007825032070
           C         -1.780864500395     0.485794368651     1.825865757442    12.000000000000
           C         -2.645449500395     0.591266368651     0.595426757442    12.000000000000
           O         -1.764369500395    -0.443718631349     2.565787757442    15.994914619560
           C         -1.839365500395     0.946495368651    -0.661671242558    12.000000000000
           H         -3.182756500395    -0.342127631349     0.473833757442     1.007825032070
           H         -3.377291500395     1.375557368651     0.785035757442     1.007825032070
           C         -0.872011500395    -0.156593631349    -1.098386242558    12.000000000000
           H         -2.535255500395     1.156278368651    -1.468525242558     1.007825032070
           H         -1.289103500395     1.870148368651    -0.488948242558     1.007825032070
           C          0.561421499605     0.084363368651    -0.620867242558    12.000000000000
           H         -0.885382500395    -0.232514631349    -2.183699242558     1.007825032070
           H         -1.217086500395    -1.119049631349    -0.725370242558     1.007825032070
           C          1.529273499605    -1.012364631349    -1.072973242558    12.000000000000
           H          0.896845499605     1.051178368651    -0.987598242558     1.007825032070
           H          0.573316499605     0.147967368651     0.466421757442     1.007825032070
           C          2.961536499605    -0.857180631349    -0.548939242558    12.000000000000
           H          1.547515499605    -1.050492631349    -2.161048242558     1.007825032070
           H          1.143503499605    -1.974558631349    -0.742705242558     1.007825032070
           C          3.705535499605     0.366883368651    -1.085365242558    12.000000000000
           H          3.522656499605    -1.749522631349    -0.815056242558     1.007825032070
           H          2.945482499605    -0.822743631349     0.538478757442     1.007825032070
           H          3.723262499605     0.367441368651    -2.172082242558     1.007825032070
           H          3.247301499605     1.295352368651    -0.761419242558     1.007825032070
           H          4.734546499605     0.374321368651    -0.738845242558     1.007825032070

  Charge       = 0
  Multiplicity = 1
  Basis Set: 6-31G*
  Basis Set:

    Orbital Energies (a.u.)
    -----------------------

    Doubly Occupied:

       1A    -20.562163     2A    -11.326283     3A    -11.234885
       4A    -11.233742     5A    -11.222066     6A    -11.219311
       7A    -11.216088     8A    -11.215364     9A    -11.209440
      10A     -1.402381    11A     -1.104524    12A     -1.067988
      13A     -1.010999    14A     -0.942904    15A     -0.877970
      16A     -0.815536    17A     -0.790724    18A     -0.779157
      19A     -0.664114    20A     -0.654607    21A     -0.644264
      22A     -0.618038    23A     -0.614210    24A     -0.576549
      25A     -0.572364    26A     -0.562196    27A     -0.531602
      28A     -0.520527    29A     -0.511390    30A     -0.505013
      31A     -0.486744    32A     -0.473192    33A     -0.459421
      34A     -0.458039    35A     -0.441779    36A     -0.408811

  @DF-RHF Final Energy:  -387.11726277600047

   => Energetics <=

    Nuclear Repulsion Energy =            451.9404357765901636
    One-Electron Energy =               -1420.2464681046953956
    Two-Electron Energy =                 581.1887695521045316
    DFT Exchange-Correlation Energy =       0.0000000000000000
    Empirical Dispersion Energy =           0.0000000000000000
    PCM Polarization Energy =               0.0000000000000000
    EFP Energy =                            0.0000000000000000
    Total Energy =                       -387.1172627760006435

  Mulliken Charges: (a.u.)
   Center  Symbol    Alpha    Beta     Spin     Total
       1     H     0.43194  0.43194  0.00000  0.13611
       2     C     2.83063  2.83063  0.00000  0.33873
       3     C     3.20803  3.20803  0.00000 -0.41606
       4     O     4.23934  4.23934  0.00000 -0.47868
       5     C     3.16847  3.16847  0.00000 -0.33694
       6     H     0.39941  0.39941  0.00000  0.20119
       7     H     0.40740  0.40740  0.00000  0.18519
       8     C     3.15953  3.15953  0.00000 -0.31906
       9     H     0.41063  0.41063  0.00000  0.17874
      10     H     0.41773  0.41773  0.00000  0.16455
      11     C     3.15916  3.15916  0.00000 -0.31832
      12     H     0.41726  0.41726  0.00000  0.16548
      13     H     0.41397  0.41397  0.00000  0.17206
      14     C     3.15301  3.15301  0.00000 -0.30603
      15     H     0.42081  0.42081  0.00000  0.15839
      16     H     0.42138  0.42138  0.00000  0.15725
      17     C     3.15321  3.15321  0.00000 -0.30642
      18     H     0.42421  0.42421  0.00000  0.15158
      19     H     0.41911  0.41911  0.00000  0.16179
      20     C     3.24118  3.24118  0.00000 -0.48236
      21     H     0.42025  0.42025  0.00000  0.15951
      22     H     0.42102  0.42102  0.00000  0.15795
      23     H     0.42252  0.42252  0.00000  0.15496
      24     H     0.42125  0.42125  0.00000  0.15751
      25     H     0.41855  0.41855  0.00000  0.16290

   Total alpha = 36.00000, Total beta = 36.00000, Total charge =  0.00000
