  ==> Input File <==

--------------------------------------------------------------------------
set {
	reference rhf
	basis cc-pvtz
}

set_num_threads( 4 )
memory 2 gb

molecule MOL {
0 1

H	 2.646708	 0.758099	 0.000000
O	 2.258158	 -0.097743	 0.000000
C	 0.911162	 -0.015915	 0.000000
C	 0.234636	 -0.590076	 1.063698
C	 0.207554	 0.611490	 -1.010801
H	 0.796800	 -1.072529	 1.838753
C	 -1.141513	 -0.531029	 1.106145
H	 0.732447	 1.057121	 -1.836363
C	 -1.173996	 0.663167	 -0.955045
H	 -1.660489	 -0.977714	 1.932908
C	 -1.857654	 0.094867	 0.099269
H	 -1.712677	 1.152372	 -1.744239
H	 -2.928420	 0.136805	 0.139223

	symmetry c1
}
set optking {
	frozen_dihedral = ("
		4 3 2 1
	")
}

ee = optimize('scf')
oeprop('DIPOLE', 'QUADRUPOLE', 'MULLIKEN_CHARGES')
f=open( 'psi4out.xyz', 'w' )
f.write( "13  " )
f.write( str(ee) + "\n" )
f.write( MOL.save_string_xyz() )
f.close()
--------------------------------------------------------------------------

    Molecular point group: c1
  Charge       = 0
  Multiplicity = 1
  Basis Set: CC-PVTZ
  Basis Set:
  @DF-RHF Final Energy:  -305.66681349556592
    Total Energy =                       -305.6668134955657479
    Molecular point group: c1
  Basis Set: CC-PVTZ
  Basis Set:
  Basis Set: CC-PVTZ
  Basis Set:
  @DF-RHF Final Energy:  -305.66714473826778
    Total Energy =                       -305.6671447382677229
  Basis Set: CC-PVTZ
  Basis Set:
  Basis Set: CC-PVTZ
  Basis Set:
  @DF-RHF Final Energy:  -305.66718251913375
    Total Energy =                       -305.6671825191338030
  Basis Set: CC-PVTZ
  Basis Set:
  Basis Set: CC-PVTZ
  Basis Set:
  @DF-RHF Final Energy:  -305.66718656688488
    Total Energy =                       -305.6671865668848795
  Basis Set: CC-PVTZ
  Basis Set:
  Charge       = 0
  Multiplicity = 1
  Basis Set: CC-PVTZ
  Basis Set:

    Orbital Energies (a.u.)
    -----------------------

    Doubly Occupied:

       1A    -20.574050     2A    -11.290843     3A    -11.234122
       4A    -11.233139     5A    -11.226297     6A    -11.224378
       7A    -11.223627     8A     -1.401735     9A     -1.153223
      10A     -1.022479    11A     -1.008377    12A     -0.842463
      13A     -0.827948    14A     -0.739085    15A     -0.685372
      16A     -0.652113    17A     -0.629161    18A     -0.597794
      19A     -0.592001    20A     -0.533139    21A     -0.517489
      22A     -0.497583    23A     -0.475294    24A     -0.342204
      25A     -0.325836

  @DF-RHF Final Energy:  -305.66718736702893

   => Energetics <=

    Nuclear Repulsion Energy =            273.4286108770238002
    One-Electron Energy =                -956.4920951586905176
    Two-Electron Energy =                 377.3962969146375599
    DFT Exchange-Correlation Energy =       0.0000000000000000
    Empirical Dispersion Energy =           0.0000000000000000
    PCM Polarization Energy =               0.0000000000000000
    EFP Energy =                            0.0000000000000000
    Total Energy =                       -305.6671873670291006
    Molecular point group: c1
  Basis Set: CC-PVTZ
  Basis Set:

  -Total Gradient:
     Atom            X                  Y                   Z
    ------   -----------------  -----------------  -----------------
       1        0.000054260993    -0.000007527678     0.002093731518
       2        0.000128987025     0.000634875984    -0.002197288290
       3       -0.000354588920    -0.001866549929    -0.000796391677
       4        0.000074565214     0.001270567544     0.000852079329
       5        0.000156463360    -0.000026695639     0.000041997039
       6       -0.000006987812     0.000000123892    -0.000016524644
       7        0.000083445561    -0.000014170209     0.000043918606
       8        0.000011918237    -0.000003108129    -0.000010138982
       9       -0.000132162249    -0.000017497968     0.000084044972
      10       -0.000021909739     0.000006354834    -0.000011799035
      11        0.000004293230     0.000046735761    -0.000113862864
      12        0.000010071353    -0.000012131261     0.000007447799
      13       -0.000008356249    -0.000010977202     0.000022786228

  **** Optimization is complete! (in 5 steps) ****
    Final optimized geometry and variables:
    Molecular point group: c1

    Geometry (in Angstrom), charge = 0, multiplicity = 1:

    H            2.651888361530     0.735408488615    -0.064336885581
    O            2.266273244079    -0.122564826014    -0.064304783120
    C            0.905493302972    -0.036982460732    -0.030738911966
    C            0.229357070361    -0.610727400944     1.028290085072
    C            0.206599012162     0.589578740281    -1.045467406301
    H            0.790269112293    -1.092247088677     1.805028463841
    C           -1.151043365413    -0.562791231175     1.064856124725
    H            0.742676547797     1.019841825065    -1.870139833679
    C           -1.173454129219     0.643304030487    -0.994541354139
    H           -1.673930333453    -1.013304554622     1.886926440320
    C           -1.858623309521     0.066581723515     0.057820450275
    H           -1.712887666772     1.131214924630    -1.783905254599
    H           -2.930122241589     0.105007156961     0.091836899320

  Mulliken Charges: (a.u.)
   Center  Symbol    Alpha    Beta     Spin     Total
       1     H     0.38621  0.38621  0.00000  0.22759
       2     O     4.18944  4.18944  0.00000 -0.37888
       3     C     2.86904  2.86904  0.00000  0.26192
       4     C     3.10798  3.10798  0.00000 -0.21596
       5     C     3.11914  3.11914  0.00000 -0.23829
       6     H     0.41640  0.41640  0.00000  0.16721
       7     C     3.06562  3.06562  0.00000 -0.13124
       8     H     0.42144  0.42144  0.00000  0.15712
       9     C     3.06849  3.06849  0.00000 -0.13698
      10     H     0.42177  0.42177  0.00000  0.15645
      11     C     3.08928  3.08928  0.00000 -0.17855
      12     H     0.42195  0.42195  0.00000  0.15611
      13     H     0.42325  0.42325  0.00000  0.15350

   Total alpha = 25.00000, Total beta = 25.00000, Total charge = -0.00000
