                              Psi4 1.0.54 Driver

  ==> Input File <==

--------------------------------------------------------------------------
set {
	reference rhf
	basis cc-pvtz
}

set_num_threads( 4 )
memory 2 gb

molecule MOL {
0 1

O	 0.395927	 1.296676	 -0.000076
C	 0.503051	 0.114301	 -0.000074
C	 -0.701422	 -0.805636	 -0.000109
C	 1.858118	 -0.556123	 0.000212
C	 -0.953753	 -1.496563	 -1.330910
H	 -0.557510	 -1.533946	 0.793799
H	 -1.563858	 -0.216367	 0.300567
H	 -0.105707	 -2.102640	 -1.620246
H	 -1.825190	 -2.136755	 -1.263036
H	 -1.120982	 -0.773394	 -2.117861
H	 1.961106	 -1.191101	 -0.872843
H	 2.636688	 0.191085	 -0.000109
H	 1.961070	 -1.190284	 0.873873

	symmetry c1
}
set optking {
	frozen_dihedral = ("
		6 3 2 1
	")
}

ee,wfn = optimize('scf', return_wfn=True)
oeprop( wfn, 'DIPOLE', 'QUADRUPOLE', 'MULLIKEN_CHARGES')
f=open( 'psi4out.xyz', 'w' )
f.write( "13  " )
f.write( str(ee) + "\n" )
f.write( MOL.save_string_xyz() )
f.close()
--------------------------------------------------------------------------

    Molecular point group: c1
  Charge       = 0
  Multiplicity = 1
  Basis Set: CC-PVTZ
  Basis Set:
  @DF-RHF Final Energy:  -231.08051011846115
    Total Energy =                       -231.0805101184612340
    Molecular point group: c1
  Basis Set: CC-PVTZ
  Basis Set:
  Basis Set: CC-PVTZ
  Basis Set:
  @DF-RHF Final Energy:  -231.08084692653915
    Total Energy =                       -231.0808469265389249
  Basis Set: CC-PVTZ
  Basis Set:
  Basis Set: CC-PVTZ
  Basis Set:
  @DF-RHF Final Energy:  -231.08103589080491
    Total Energy =                       -231.0810358908049125
  Basis Set: CC-PVTZ
  Basis Set:
  Basis Set: CC-PVTZ
  Basis Set:
  @DF-RHF Final Energy:  -231.08106470058993
    Total Energy =                       -231.0810647005901046
  Basis Set: CC-PVTZ
  Basis Set:
  Basis Set: CC-PVTZ
  Basis Set:
  @DF-RHF Final Energy:  -231.08106593927147
    Total Energy =                       -231.0810659392716957
  Basis Set: CC-PVTZ
  Basis Set:
  Charge       = 0
  Multiplicity = 1
  Basis Set: CC-PVTZ
  Basis Set:

    Orbital Energies (a.u.)
    -----------------------

    Doubly Occupied:

       1A    -20.538889     2A    -11.320382     3A    -11.232023
       4A    -11.228367     5A    -11.227230     6A     -1.398438
       7A     -1.067972     8A     -0.996620     9A     -0.887534
      10A     -0.734987    11A     -0.656302    12A     -0.649550
      13A     -0.612883    14A     -0.595923    15A     -0.562798
      16A     -0.542364    17A     -0.530225    18A     -0.503209
      19A     -0.487643    20A     -0.402512

  @DF-RHF Final Energy:  -231.08106626170641

   => Energetics <=

    Nuclear Repulsion Energy =            177.1742422767513574
    One-Electron Energy =                -664.1589169472094909
    Two-Electron Energy =                 255.9036084087515519
    DFT Exchange-Correlation Energy =       0.0000000000000000
    Empirical Dispersion Energy =           0.0000000000000000
    PCM Polarization Energy =               0.0000000000000000
    EFP Energy =                            0.0000000000000000
    Total Energy =                       -231.0810662617066100
    Molecular point group: c1
  Basis Set: CC-PVTZ
  Basis Set:

  -Total Gradient:
     Atom            X                  Y                   Z
    ------   -----------------  -----------------  -----------------
       1        0.000006288839     0.000025288165     0.000535289139
       2       -0.000061835642     0.000048599215    -0.000699477714
       3        0.000318503054    -0.000417396223    -0.000182437143
       4       -0.000002590765    -0.000002716532     0.000067326499
       5        0.000002587397    -0.000001112230    -0.000038936658
       6       -0.000253188344     0.000359473200     0.000352356715
       7        0.000002190245    -0.000008923418     0.000016899996
       8        0.000002521836     0.000009175846     0.000009392984
       9       -0.000013116976    -0.000004186398    -0.000002920003
      10        0.000000614432    -0.000011597073    -0.000006752904
      11       -0.000006170825     0.000007289639    -0.000023666406
      12       -0.000000960800     0.000003349154    -0.000002208274
      13        0.000005157550    -0.000007243344    -0.000024866232

  **** Optimization is complete! (in 6 steps) ****
    Final optimized geometry and variables:
    Molecular point group: c1

    Geometry (in Angstrom), charge = 0, multiplicity = 1:

    O            0.159313742264     1.582904915822     0.286181247340
    C            0.278792375421     0.401043013075     0.276410834542
    C           -0.933689541975    -0.509721691730     0.287523625299
    C            1.643736163166    -0.249188667743     0.262611754472
    C           -1.169149000946    -1.202787843921    -1.057676750903
    H           -0.809273433389    -1.255097267403     1.066985052158
    H           -1.787383649806     0.102248999017     0.542730606112
    H           -0.356443497380    -1.869082245858    -1.319306172141
    H           -2.076317936092    -1.792165767349    -1.018187166927
    H           -1.279184394504    -0.474684627971    -1.852399462633
    H            1.750840864143    -0.901003637981    -0.596163308456
    H            2.408352092200     0.511702208452     0.236952871899
    H            1.767905585531    -0.861313375346     1.149515210850

  Mulliken Charges: (a.u.)
   Center  Symbol    Alpha    Beta     Spin     Total
       1     O     4.17209  4.17209  0.00000 -0.34418
       2     C     2.85432  2.85432  0.00000  0.29136
       3     C     3.09578  3.09578  0.00000 -0.19156
       4     C     3.15610  3.15610  0.00000 -0.31221
       5     C     3.15439  3.15439  0.00000 -0.30879
       6     H     0.45146  0.45146  0.00000  0.09709
       7     H     0.43788  0.43788  0.00000  0.12425
       8     H     0.45353  0.45353  0.00000  0.09295
       9     H     0.44351  0.44351  0.00000  0.11299
      10     H     0.44562  0.44562  0.00000  0.10876
      11     H     0.45035  0.45035  0.00000  0.09930
      12     H     0.43468  0.43468  0.00000  0.13065
      13     H     0.45031  0.45031  0.00000  0.09939

   Total alpha = 20.00000, Total beta = 20.00000, Total charge =  0.00000

*** Psi4 exiting successfully. Buy a developer a beer!
