  ==> Input File <==

--------------------------------------------------------------------------
set {
	reference rhf
	basis 6-31G*
}

set_num_threads( 4 )
memory 2 gb

molecule MOL {
0 1

O	 0.901364	 0.308642	 -2.325676
C	 0.291375	 0.619289	 -1.337690
C	 -0.873752	 1.586297	 -1.434946
N	 0.623947	 0.147590	 -0.102813
H	 -0.706360	 2.472247	 -0.832322
H	 -0.967589	 1.875121	 -2.470717
H	 -1.801060	 1.127692	 -1.108813
C	 1.665360	 -0.855771	 0.000151
C	 -0.201663	 0.306222	 1.074238
H	 2.465253	 -0.618490	 -0.692587
H	 1.257730	 -1.821716	 -0.242189
H	 2.081488	 -0.891645	 1.004627
H	 0.435689	 0.368815	 1.948253
H	 -0.785263	 1.212011	 1.030741
H	 -0.878389	 -0.535091	 1.212247

	symmetry c1
}
set optking {
	frozen_dihedral = ("
		2 4 8 10
	")
}

ee = optimize('scf')
oeprop('DIPOLE', 'QUADRUPOLE', 'MULLIKEN_CHARGES')
f=open( 'psi4out.xyz', 'w' )
f.write( "15  " )
f.write( str(ee) + "\n" )
f.write( MOL.save_string_xyz() )
f.close()
--------------------------------------------------------------------------

    Molecular point group: c1
  Charge       = 0
  Multiplicity = 1
  Basis Set: 6-31G*
  Basis Set:
  @DF-RHF Final Energy:  -286.02888939441993
    Total Energy =                       -286.0288893944197639
    Molecular point group: c1
  Basis Set: 6-31G*
  Basis Set:
  Basis Set: 6-31G*
  Basis Set:
  @DF-RHF Final Energy:  -286.02950436542710
    Total Energy =                       -286.0295043654269875
  Basis Set: 6-31G*
  Basis Set:
  Basis Set: 6-31G*
  Basis Set:
  @DF-RHF Final Energy:  -286.02951894531537
    Total Energy =                       -286.0295189453153171
  Basis Set: 6-31G*
  Basis Set:
  Basis Set: 6-31G*
  Basis Set:
  @DF-RHF Final Energy:  -286.02961272421777
    Total Energy =                       -286.0296127242178272
  Basis Set: 6-31G*
  Basis Set:
  @DF-RHF Final Energy:  -286.02966400597620
    Total Energy =                       -286.0296640059762012
  Basis Set: 6-31G*
  Basis Set:
  @DF-RHF Final Energy:  -286.02966954966109
    Total Energy =                       -286.0296695496613211
  Basis Set: 6-31G*
  Basis Set:
  Basis Set: 6-31G*
  Basis Set:
  @DF-RHF Final Energy:  -286.02967310767463
    Total Energy =                       -286.0296731076746255
  Basis Set: 6-31G*
  Basis Set:
  Basis Set: 6-31G*
  Basis Set:
  @DF-RHF Final Energy:  -286.02967425949009
    Total Energy =                       -286.0296742594903208
  Basis Set: 6-31G*
  Basis Set:
  Charge       = 0
  Multiplicity = 1
  Basis Set: 6-31G*
  Basis Set:

    Orbital Energies (a.u.)
    -----------------------

    Doubly Occupied:

       1A    -20.515557     2A    -15.583255     3A    -11.340785
       4A    -11.266423     5A    -11.248021     6A    -11.228453
       7A     -1.385219     8A     -1.242867     9A     -1.014012
      10A     -0.972728    11A     -0.918144    12A     -0.737423
      13A     -0.680480    14A     -0.658635    15A     -0.651314
      16A     -0.588830    17A     -0.576400    18A     -0.568793
      19A     -0.562779    20A     -0.545955    21A     -0.529571
      22A     -0.501639    23A     -0.411169    24A     -0.367510

  @DF-RHF Final Energy:  -286.02967470042398

   => Energetics <=

    Nuclear Repulsion Energy =            252.5415676179102888
    One-Electron Energy =                -888.9505654207337102
    Two-Electron Energy =                 350.3793231023992121
    DFT Exchange-Correlation Energy =       0.0000000000000000
    Empirical Dispersion Energy =           0.0000000000000000
    PCM Polarization Energy =               0.0000000000000000
    EFP Energy =                            0.0000000000000000
    Total Energy =                       -286.0296747004242661
    Molecular point group: c1
  Basis Set: 6-31G*
  Basis Set:

  -Total Gradient:
     Atom            X                  Y                   Z
    ------   -----------------  -----------------  -----------------
       1       -0.000007760954    -0.000001180813     0.000019214533
       2       -0.000326219100    -0.000340645850    -0.000038280536
       3        0.000051408816     0.000066315955     0.000016102135
       4        0.000504196479     0.000549291810     0.000100023622
       5       -0.000019065551    -0.000005865097    -0.000011253104
       6       -0.000006008282    -0.000006972494    -0.000002821203
       7       -0.000002205307    -0.000023027392    -0.000005225904
       8       -0.000470756875    -0.000507410693    -0.000469305181
       9        0.000008436430    -0.000001126212     0.000020321883
      10        0.000262756818     0.000286359687     0.000371277294
      11       -0.000006007310     0.000000032113     0.000003125088
      12        0.000005858972     0.000002998977     0.000000344808
      13        0.000004547572     0.000008146140     0.000003580554
      14       -0.000008435008    -0.000020668622    -0.000003232771
      15        0.000009253301    -0.000006247508    -0.000003871218

  **** Optimization is complete! (in 9 steps) ****
    Final optimized geometry and variables:
    Molecular point group: c1

    Geometry (in Angstrom), charge = 0, multiplicity = 1:

    O            0.481269050454    -0.076199811646    -1.638504365113
    C           -0.111344248200     0.272077192425    -0.652968279532
    C           -1.265768187274     1.250220234339    -0.758973374568
    N            0.242870845647    -0.168350540437     0.588573029905
    H           -1.101635973134     2.130211461256    -0.147148281858
    H           -1.345472828313     1.545704675031    -1.794151006339
    H           -2.200202335150     0.794197582079    -0.449095926460
    C            1.270723145815    -1.190447795747     0.662306593915
    C           -0.608342177457    -0.042442151318     1.752530922170
    H            2.042342088126    -0.983238078067    -0.060435242909
    H            0.869872937027    -2.182080944608     0.467162618585
    H            1.703497226336    -1.181734065483     1.655078132288
    H            0.009529818749     0.010801271359     2.640344474474
    H           -1.198399727074     0.859488453804     1.711993298016
    H           -1.281967751200    -0.890807951566     1.861356189633

  Mulliken Charges: (a.u.)
   Center  Symbol    Alpha    Beta     Spin     Total
       1     O     4.30307  4.30307  0.00000 -0.60615
       2     C     2.62542  2.62542  0.00000  0.74917
       3     C     3.29823  3.29823  0.00000 -0.59646
       4     N     3.82219  3.82219  0.00000 -0.64438
       5     H     0.40651  0.40651  0.00000  0.18697
       6     H     0.39064  0.39064  0.00000  0.21872
       7     H     0.40756  0.40756  0.00000  0.18489
       8     C     3.14070  3.14070  0.00000 -0.28140
       9     C     3.14277  3.14277  0.00000 -0.28553
      10     H     0.39132  0.39132  0.00000  0.21737
      11     H     0.41757  0.41757  0.00000  0.16487
      12     H     0.41948  0.41948  0.00000  0.16105
      13     H     0.41001  0.41001  0.00000  0.17997
      14     H     0.40736  0.40736  0.00000  0.18528
      15     H     0.41718  0.41718  0.00000  0.16564

   Total alpha = 24.00000, Total beta = 24.00000, Total charge =  0.00000
