  ==> Input File <==

--------------------------------------------------------------------------
set {
	reference rhf
	basis 6-31G*
}

set_num_threads( 1 )
memory 2 gb

molecule MOL {
0 1

H	 3.463771	 0.168298	 -0.756243
C	 2.752674	 -0.045734	 0.033351
C	 1.322923	 0.120767	 -0.479465
H	 2.934561	 -1.059086	 0.377456
H	 2.958358	 0.631174	 0.856809
C	 0.306652	 -0.176050	 0.621399
H	 1.144658	 -0.551717	 -1.312180
H	 1.166477	 1.131798	 -0.836680
N	 -1.068537	 -0.011044	 0.085269
H	 0.372515	 -1.192590	 0.973735
H	 0.391664	 0.520566	 1.441230
O	 -1.265672	 0.903555	 -0.653663
O	 -1.891763	 -0.790196	 0.458425

	symmetry c1
}
set optking {
	frozen_dihedral = ("
		7 3 6 9
	")
}

ee = energy('scf')
oeprop('DIPOLE', 'QUADRUPOLE', 'MULLIKEN_CHARGES')
f=open( 'psi4out.xyz', 'w' )
f.write( "13  " )
f.write( str(ee) + "\n" )
f.write( MOL.save_string_xyz() )
f.close()
--------------------------------------------------------------------------

    Molecular point group: c1

    Geometry (in Angstrom), charge = 0, multiplicity = 1:

       Center              X                  Y                   Z               Mass
    ------------   -----------------  -----------------  -----------------  -----------------
           H          3.467695112404     0.167264782359    -0.766626008410     1.007825032070
           C          2.756598112404    -0.046767217641     0.022967991590    12.000000000000
           C          1.326847112404     0.119733782359    -0.489848008410    12.000000000000
           H          2.938485112404    -1.060119217641     0.367072991590     1.007825032070
           H          2.962282112404     0.630140782359     0.846425991590     1.007825032070
           C          0.310576112404    -0.177083217641     0.611015991590    12.000000000000
           H          1.148582112404    -0.552750217641    -1.322563008410     1.007825032070
           H          1.170401112404     1.130764782359    -0.847063008410     1.007825032070
           N         -1.064612887596    -0.012077217641     0.074885991590    14.003074004780
           H          0.376439112404    -1.193623217641     0.963351991590     1.007825032070
           H          0.395588112404     0.519532782359     1.430846991590     1.007825032070
           O         -1.261747887596     0.902521782359    -0.664046008410    15.994914619560
           O         -1.887838887596    -0.791229217641     0.448041991590    15.994914619560

  Charge       = 0
  Multiplicity = 1
  Basis Set: 6-31G*
  Basis Set:

    Orbital Energies (a.u.)
    -----------------------

    Doubly Occupied:

       1A    -20.602115     2A    -20.601674     3A    -15.848306
       4A    -11.299917     5A    -11.250289     6A    -11.236680
       7A     -1.631854     8A     -1.417599     9A     -1.134180
      10A     -1.026581    11A     -0.882821    12A     -0.828051
      13A     -0.761522    14A     -0.743605    15A     -0.725569
      16A     -0.663070    17A     -0.604624    18A     -0.583310
      19A     -0.549583    20A     -0.520446    21A     -0.510875
      22A     -0.484688    23A     -0.472668    24A     -0.449685

  @DF-RHF Final Energy:  -321.73461409085490

   => Energetics <=

    Nuclear Repulsion Energy =            247.8388316358245334
    One-Electron Energy =                -929.4873995649704739
    Two-Electron Energy =                 359.9139538382910359
    DFT Exchange-Correlation Energy =       0.0000000000000000
    Empirical Dispersion Energy =           0.0000000000000000
    PCM Polarization Energy =               0.0000000000000000
    EFP Energy =                            0.0000000000000000
    Total Energy =                       -321.7346140908548477

  Mulliken Charges: (a.u.)
   Center  Symbol    Alpha    Beta     Spin     Total
       1     H     0.40799  0.40799  0.00000  0.18403
       2     C     3.24850  3.24850  0.00000 -0.49700
       3     C     3.17095  3.17095  0.00000 -0.34191
       4     H     0.41663  0.41663  0.00000  0.16673
       5     H     0.41646  0.41646  0.00000  0.16708
       6     C     3.08973  3.08973  0.00000 -0.17945
       7     H     0.40644  0.40644  0.00000  0.18712
       8     H     0.39318  0.39318  0.00000  0.21363
       9     N     3.22124  3.22124  0.00000  0.55752
      10     H     0.38559  0.38559  0.00000  0.22881
      11     H     0.38555  0.38555  0.00000  0.22891
      12     O     4.22872  4.22872  0.00000 -0.45744
      13     O     4.22901  4.22901  0.00000 -0.45803

   Total alpha = 24.00000, Total beta = 24.00000, Total charge =  0.00000
