  ==> Input File <==

--------------------------------------------------------------------------
set {
	reference rhf
	basis 6-31G*
}

set_num_threads( 4 )
memory 2 gb

molecule MOL {
0 1

H	 2.305798	 -1.204656	 0.454230
N	 2.434251	 -0.367735	 -0.081097
C	 1.267428	 0.496480	 0.024474
H	 2.576254	 -0.651359	 -1.032048
C	 -0.016086	 -0.325158	 -0.029487
H	 1.288818	 1.183521	 -0.816092
H	 1.267576	 1.109062	 0.929528
C	 -1.282277	 0.529072	 0.046735
H	 -0.012495	 -0.908639	 -0.945788
H	 -0.015903	 -1.041248	 0.791956
C	 -2.563920	 -0.301775	 -0.006060
H	 -1.284084	 1.244622	 -0.773004
H	 -1.271387	 1.115393	 0.963286
H	 -2.621848	 -0.873522	 -0.927727
H	 -3.445135	 0.329952	 0.047812
H	 -2.609542	 -1.004582	 0.821105

	symmetry c1
}
set optking {
	frozen_dihedral = ("
		1 2 3 6
	")
}

ee = optimize('scf')
oeprop('DIPOLE', 'QUADRUPOLE', 'MULLIKEN_CHARGES')
f=open( 'psi4out.xyz', 'w' )
f.write( "16  " )
f.write( str(ee) + "\n" )
f.write( MOL.save_string_xyz() )
f.close()
--------------------------------------------------------------------------

    Molecular point group: c1
  Charge       = 0
  Multiplicity = 1
  Basis Set: 6-31G*
  Basis Set:
  @DF-RHF Final Energy:  -212.31409393347951
    Total Energy =                       -212.3140939334792847
    Molecular point group: c1
  Basis Set: 6-31G*
  Basis Set:
  Basis Set: 6-31G*
  Basis Set:
  @DF-RHF Final Energy:  -212.31564416405706
    Total Energy =                       -212.3156441640571188
  Basis Set: 6-31G*
  Basis Set:
  Basis Set: 6-31G*
  Basis Set:
  @DF-RHF Final Energy:  -212.31587519950284
    Total Energy =                       -212.3158751995028410
  Basis Set: 6-31G*
  Basis Set:
  Basis Set: 6-31G*
  Basis Set:
  @DF-RHF Final Energy:  -212.31587828447226
    Total Energy =                       -212.3158782844723760
  Basis Set: 6-31G*
  Basis Set:
  Charge       = 0
  Multiplicity = 1
  Basis Set: 6-31G*
  Basis Set:

    Orbital Energies (a.u.)
    -----------------------

    Doubly Occupied:

       1A    -15.532952     2A    -11.240158     3A    -11.218733
       4A    -11.214990     5A    -11.211356     6A     -1.177333
       7A     -1.062670     8A     -0.960098     9A     -0.848282
      10A     -0.797823    11A     -0.676332    12A     -0.627016
      13A     -0.597636    14A     -0.586820    15A     -0.556134
      16A     -0.525132    17A     -0.503557    18A     -0.487088
      19A     -0.472509    20A     -0.467054    21A     -0.377093

  @DF-RHF Final Energy:  -212.31587854899851

   => Energetics <=

    Nuclear Repulsion Energy =            186.0524385201301811
    One-Electron Energy =                -654.4550981762427000
    Two-Electron Energy =                 256.0867811071137794
    DFT Exchange-Correlation Energy =       0.0000000000000000
    Empirical Dispersion Energy =           0.0000000000000000
    PCM Polarization Energy =               0.0000000000000000
    EFP Energy =                            0.0000000000000000
    Total Energy =                       -212.3158785489987395
    Molecular point group: c1
  Basis Set: 6-31G*
  Basis Set:

  -Total Gradient:
     Atom            X                  Y                   Z
    ------   -----------------  -----------------  -----------------
       1       -0.001074507375    -0.001441785677    -0.002515245101
       2        0.000992638852     0.001381105868     0.002760489268
       3        0.001400470446     0.001950547025     0.001347542847
       4        0.000000234687     0.000002343779    -0.000011556569
       5        0.000055576783     0.000011908702     0.000001336153
       6       -0.001316239695    -0.001893004458    -0.001603175862
       7       -0.000004201890    -0.000000210154     0.000009205778
       8        0.000025914682    -0.000017193056    -0.000004768553
       9       -0.000009474442    -0.000010290076     0.000020593074
      10        0.000001692807     0.000005052991     0.000001378104
      11       -0.000048494604     0.000020349397    -0.000011643885
      12        0.000002201537     0.000003336322     0.000011440107
      13       -0.000007770936    -0.000008761918    -0.000000508539
      14        0.000002542022     0.000001255855     0.000002692424
      15       -0.000026297838    -0.000013959815    -0.000005362004
      16        0.000005714965     0.000009305213    -0.000002417241

  **** Optimization is complete! (in 5 steps) ****
    Final optimized geometry and variables:
    Molecular point group: c1

    Geometry (in Angstrom), charge = 0, multiplicity = 1:

    H            2.401494147670    -1.162627462474     0.474773249417
    N            2.497893983527    -0.311790512547    -0.047310247191
    C            1.274239902812     0.477249502772     0.028052993187
    H            2.669288794792    -0.590622142180    -0.994467421928
    C           -0.024804080101    -0.331743354344    -0.020864812932
    H            1.281964973219     1.175267524609    -0.803533077264
    H            1.299347125067     1.067890116848     0.938984929674
    C           -1.280723349786     0.537999045641     0.058034098382
    H           -0.044867980628    -0.919018198623    -0.938147498861
    H           -0.030116098218    -1.047128578229     0.801288260533
    C           -2.575002068179    -0.273724581578     0.015080646986
    H           -1.276362133229     1.252142159037    -0.762829639875
    H           -1.254402710039     1.125922972505     0.972982034515
    H           -2.647529000346    -0.847458148137    -0.904524824505
    H           -3.446171707594     0.371471031861     0.071798462274
    H           -2.626615640197    -0.972900234380     0.844867493591

  Mulliken Charges: (a.u.)
   Center  Symbol    Alpha    Beta     Spin     Total
       1     H     0.33529  0.33529  0.00000  0.32943
       2     N     3.91850  3.91850  0.00000 -0.83700
       3     C     3.05883  3.05883  0.00000 -0.11767
       4     H     0.33503  0.33503  0.00000  0.32994
       5     C     3.15984  3.15984  0.00000 -0.31969
       6     H     0.42146  0.42146  0.00000  0.15707
       7     H     0.41841  0.41841  0.00000  0.16317
       8     C     3.15542  3.15542  0.00000 -0.31084
       9     H     0.42662  0.42662  0.00000  0.14676
      10     H     0.42657  0.42657  0.00000  0.14685
      11     C     3.23872  3.23872  0.00000 -0.47743
      12     H     0.42235  0.42235  0.00000  0.15530
      13     H     0.42130  0.42130  0.00000  0.15740
      14     H     0.42166  0.42166  0.00000  0.15667
      15     H     0.41859  0.41859  0.00000  0.16283
      16     H     0.42139  0.42139  0.00000  0.15722

   Total alpha = 21.00000, Total beta = 21.00000, Total charge =  0.00000
