  ==> Input File <==

--------------------------------------------------------------------------
set {
	reference rhf
	basis 6-31G*
}

set_num_threads( 4 )
memory 2 gb

molecule MOL {
0 1

H	 1.652263	 0.935200	 1.175713
O	 0.859901	 0.410512	 1.235676
C	 0.489431	 0.077273	 0.000046
C	 -0.764129	 -0.759190	 0.000191
O	 1.101436	 0.419021	 -0.958715
C	 -2.038368	 0.075731	 -0.000248
H	 -0.717284	 -1.412404	 -0.866059
H	 -0.717458	 -1.411724	 0.866967
H	 -2.086483	 0.712501	 -0.875098
H	 -2.908485	 -0.571682	 -0.000042
H	 -2.086576	 0.713280	 0.874068

	symmetry c1
}
set optking {
	frozen_dihedral = ("
		2 3 4 7
	")
}

ee = optimize('scf')
oeprop('DIPOLE', 'QUADRUPOLE', 'MULLIKEN_CHARGES')
f=open( 'psi4out.xyz', 'w' )
f.write( "11  " )
f.write( str(ee) + "\n" )
f.write( MOL.save_string_xyz() )
f.close()
--------------------------------------------------------------------------

    Molecular point group: c1
  Charge       = 0
  Multiplicity = 1
  Basis Set: 6-31G*
  Basis Set:
  @DF-RHF Final Energy:  -266.84361609563894
    Total Energy =                       -266.8436160956387084
    Molecular point group: c1
  Basis Set: 6-31G*
  Basis Set:
  Basis Set: 6-31G*
  Basis Set:
  @DF-RHF Final Energy:  -266.84403378516629
    Total Energy =                       -266.8440337851664594
  Basis Set: 6-31G*
  Basis Set:
  Basis Set: 6-31G*
  Basis Set:
  @DF-RHF Final Energy:  -266.84406973505691
    Total Energy =                       -266.8440697350568485
  Basis Set: 6-31G*
  Basis Set:
  Basis Set: 6-31G*
  Basis Set:
  @DF-RHF Final Energy:  -266.84417802168014
    Total Energy =                       -266.8441780216800794
  Basis Set: 6-31G*
  Basis Set:
  Basis Set: 6-31G*
  Basis Set:
  @DF-RHF Final Energy:  -266.84420788513444
    Total Energy =                       -266.8442078851344377
  Basis Set: 6-31G*
  Basis Set:
  Charge       = 0
  Multiplicity = 1
  Basis Set: 6-31G*
  Basis Set:

    Orbital Energies (a.u.)
    -----------------------

    Doubly Occupied:

       1A    -20.614638     2A    -20.550103     3A    -11.380952
       4A    -11.242550     5A    -11.231303     6A     -1.475133
       7A     -1.365405     8A     -1.067812     9A     -0.913397
      10A     -0.814456    11A     -0.702462    12A     -0.686093
      13A     -0.640262    14A     -0.617610    15A     -0.592228
      16A     -0.542483    17A     -0.527160    18A     -0.513029
      19A     -0.475263    20A     -0.441022

  @DF-RHF Final Energy:  -266.84420824016240

   => Energetics <=

    Nuclear Repulsion Energy =            179.9382683954874835
    One-Electron Energy =                -720.7782289462846848
    Two-Electron Energy =                 273.9957523106347708
    DFT Exchange-Correlation Energy =       0.0000000000000000
    Empirical Dispersion Energy =           0.0000000000000000
    PCM Polarization Energy =               0.0000000000000000
    EFP Energy =                            0.0000000000000000
    Total Energy =                       -266.8442082401624020
    Molecular point group: c1
  Basis Set: 6-31G*
  Basis Set:

  -Total Gradient:
     Atom            X                  Y                   Z
    ------   -----------------  -----------------  -----------------
       1       -0.000016161337     0.000025696695     0.000000271453
       2        0.000288244049    -0.000398927411     0.000020173940
       3       -0.000290830751     0.000411687995    -0.000021468914
       4       -0.000264392703     0.000375996965    -0.000332380170
       5        0.000014273108    -0.000008463442     0.000035263812
       6        0.000000114269    -0.000016975924     0.000014662496
       7        0.000278016341    -0.000383236347     0.000282323990
       8       -0.000008041534    -0.000002900759    -0.000004004683
       9        0.000008504497    -0.000008468782     0.000007968609
      10       -0.000004898666    -0.000003736574    -0.000002222990
      11       -0.000004827275     0.000009327583    -0.000000587543

  **** Optimization is complete! (in 6 steps) ****
    Final optimized geometry and variables:
    Molecular point group: c1

    Geometry (in Angstrom), charge = 0, multiplicity = 1:

    H            1.694033307388     0.892096252183     1.082642623143
    O            0.935354138025     0.321467014218     1.159594549697
    C            0.530274867036     0.003844614188    -0.068961402640
    C           -0.706078465158    -0.856999159136    -0.064455090769
    O            1.087304075681     0.398814102995    -1.041403468385
    C           -1.971030119028     0.011560857065    -0.082154734248
    H           -0.667478078383    -1.484782325964    -0.945045679022
    H           -0.698561840814    -1.488780237799     0.814970377176
    H           -1.990091680085     0.645442077681    -0.961283790285
    H           -2.853781770761    -0.617281833231    -0.098430036857
    H           -2.023192313260     0.642633904717     0.798137953115

  Mulliken Charges: (a.u.)
   Center  Symbol    Alpha    Beta     Spin     Total
       1     H     0.26789  0.26789  0.00000  0.46421
       2     O     4.34719  4.34719  0.00000 -0.69438
       3     C     2.63291  2.63291  0.00000  0.73419
       4     C     3.19761  3.19761  0.00000 -0.39522
       5     O     4.27844  4.27844  0.00000 -0.55688
       6     C     3.25188  3.25188  0.00000 -0.50375
       7     H     0.39746  0.39746  0.00000  0.20507
       8     H     0.40120  0.40120  0.00000  0.19761
       9     H     0.40613  0.40613  0.00000  0.18774
      10     H     0.41017  0.41017  0.00000  0.17966
      11     H     0.40913  0.40913  0.00000  0.18174

   Total alpha = 20.00000, Total beta = 20.00000, Total charge =  0.00000
