  ==> Input File <==

--------------------------------------------------------------------------
set {
	reference rhf
	basis 6-31G*
}

set_num_threads( 4 )
memory 2 gb

molecule MOL {
0 1

O	 -0.682937	 1.318834	 -0.186099
C	 -0.860635	 0.152188	 -0.042321
C	 -2.173363	 -0.477127	 0.338347
O	 0.083258	 -0.765189	 -0.202595
H	 -2.477673	 -1.180929	 -0.427595
H	 -2.923125	 0.290956	 0.455536
H	 -2.058825	 -1.029004	 1.264191
C	 -0.314808	 -2.114970	 -0.431572
C	 -0.622179	 -2.363560	 -1.896622
H	 -1.165201	 -2.344837	 0.192234
H	 0.530155	 -2.705346	 -0.107545
H	 -0.847707	 -3.414242	 -2.051333
H	 -1.477794	 -1.781664	 -2.215506
H	 0.230323	 -2.103478	 -2.514695

	symmetry c1
}
set optking {
	frozen_dihedral = ("
		8 4 2 1
	")
}

ee = optimize('scf')
oeprop('DIPOLE', 'QUADRUPOLE', 'MULLIKEN_CHARGES')
f=open( 'psi4out.xyz', 'w' )
f.write( "14  " )
f.write( str(ee) + "\n" )
f.write( MOL.save_string_xyz() )
f.close()
--------------------------------------------------------------------------

    Molecular point group: c1
  Charge       = 0
  Multiplicity = 1
  Basis Set: 6-31G*
  Basis Set:
  @DF-RHF Final Energy:  -305.84706303549819
    Total Energy =                       -305.8470630354982518
    Molecular point group: c1
  Basis Set: 6-31G*
  Basis Set:
  Basis Set: 6-31G*
  Basis Set:
  @DF-RHF Final Energy:  -305.85470654398665
    Total Energy =                       -305.8547065439865378
  Basis Set: 6-31G*
  Basis Set:
  Basis Set: 6-31G*
  Basis Set:
  @DF-RHF Final Energy:  -305.85809475996257
    Total Energy =                       -305.8580947599624551
  Basis Set: 6-31G*
  Basis Set:
  Basis Set: 6-31G*
  Basis Set:
  @DF-RHF Final Energy:  -305.85906692556682
    Total Energy =                       -305.8590669255668217
  Basis Set: 6-31G*
  Basis Set:
  @DF-RHF Final Energy:  -305.85931617854772
    Total Energy =                       -305.8593161785478287
  Basis Set: 6-31G*
  Basis Set:
  @DF-RHF Final Energy:  -305.85955114264897
    Total Energy =                       -305.8595511426487974
  Basis Set: 6-31G*
  Basis Set:
  Basis Set: 6-31G*
  Basis Set:
  @DF-RHF Final Energy:  -305.85956368485893
    Total Energy =                       -305.8595636848588128
  Basis Set: 6-31G*
  Basis Set:
  Basis Set: 6-31G*
  Basis Set:
  @DF-RHF Final Energy:  -305.85956548885054
    Total Energy =                       -305.8595654888505351
  Basis Set: 6-31G*
  Basis Set:
  Charge       = 0
  Multiplicity = 1
  Basis Set: 6-31G*
  Basis Set:

    Orbital Energies (a.u.)
    -----------------------

    Doubly Occupied:

       1A    -20.599012     2A    -20.539718     3A    -11.376672
       4A    -11.300722     5A    -11.242955     6A    -11.232631
       7A     -1.461920     8A     -1.364670     9A     -1.049889
      10A     -1.018041    11A     -0.898808    12A     -0.773012
      13A     -0.698551    14A     -0.687497    15A     -0.663928
      16A     -0.616593    17A     -0.597289    18A     -0.583854
      19A     -0.556842    20A     -0.543170    21A     -0.526887
      22A     -0.499278    23A     -0.444215    24A     -0.433592

  @DF-RHF Final Energy:  -305.85956575252396

   => Energetics <=

    Nuclear Repulsion Energy =            248.0539608125232007
    One-Electron Energy =                -908.4075617564951699
    Two-Electron Energy =                 354.4940351914480061
    DFT Exchange-Correlation Energy =       0.0000000000000000
    Empirical Dispersion Energy =           0.0000000000000000
    PCM Polarization Energy =               0.0000000000000000
    EFP Energy =                            0.0000000000000000
    Total Energy =                       -305.8595657525239631
    Molecular point group: c1
  Basis Set: 6-31G*
  Basis Set:

  -Total Gradient:
     Atom            X                  Y                   Z
    ------   -----------------  -----------------  -----------------
       1       -0.000385410357    -0.000125046724    -0.001379704214
       2        0.000540703003     0.000329560911     0.001269518912
       3       -0.000013623503     0.000010300548    -0.000011607115
       4       -0.000126616372    -0.000413674447     0.001360750570
       5       -0.000001334029    -0.000004142124     0.000001346174
       6        0.000001591601    -0.000004283747    -0.000006441393
       7        0.000010307107    -0.000003757363     0.000003915924
       8       -0.000012697873     0.000200812707    -0.001231875211
       9        0.000011050854    -0.000030526169    -0.000030362461
      10       -0.000003642765    -0.000003561753     0.000006856439
      11        0.000000337721     0.000012533705     0.000004756302
      12       -0.000003811757     0.000018212779     0.000005650339
      13       -0.000010345388     0.000008625615    -0.000004135764
      14       -0.000006508242     0.000004946065     0.000011331495

  **** Optimization is complete! (in 9 steps) ****
    Final optimized geometry and variables:
    Molecular point group: c1

    Geometry (in Angstrom), charge = 0, multiplicity = 1:

    O            0.117080984727     1.996644742538     0.217551199366
    C           -0.146462016684     0.853562052832     0.375538192732
    C           -1.514108982060     0.394761747989     0.832140848575
    O            0.799692685940    -0.069162268648     0.186663720788
    H           -1.997645220305    -0.228973107260     0.089226874042
    H           -2.117124255010     1.273602304114     1.000892681311
    H           -1.441511948588    -0.174808924905     1.752129772822
    C            0.528955098413    -1.437615278049    -0.054471184415
    C            0.237367200112    -1.694395150988    -1.522985154097
    H           -0.275832613987    -1.791064993789     0.576703238734
    H            1.429409719046    -1.953335394425     0.245795807747
    H            0.111080399357    -2.758375341674    -1.696972730376
    H           -0.668099306161    -1.190509337081    -1.845328085777
    H            1.057525860016    -1.338346829254    -2.134756743929

  Mulliken Charges: (a.u.)
   Center  Symbol    Alpha    Beta     Spin     Total
       1     O     4.26421  4.26421  0.00000 -0.52842
       2     C     2.61463  2.61463  0.00000  0.77074
       3     C     3.31022  3.31022  0.00000 -0.62044
       4     O     4.30280  4.30280  0.00000 -0.60561
       5     H     0.40409  0.40409  0.00000  0.19182
       6     H     0.38732  0.38732  0.00000  0.22535
       7     H     0.40160  0.40160  0.00000  0.19681
       8     C     3.00782  3.00782  0.00000 -0.01564
       9     C     3.25092  3.25092  0.00000 -0.50184
      10     H     0.41790  0.41790  0.00000  0.16421
      11     H     0.40275  0.40275  0.00000  0.19449
      12     H     0.41588  0.41588  0.00000  0.16824
      13     H     0.41674  0.41674  0.00000  0.16653
      14     H     0.40312  0.40312  0.00000  0.19376

   Total alpha = 24.00000, Total beta = 24.00000, Total charge =  0.00000
