                              Psi4 1.0.54 Driver

  ==> Input File <==

--------------------------------------------------------------------------
set {
	reference rhf
	basis cc-pvtz
}

set_num_threads( 4 )
memory 2 gb

molecule MOL {
0 1

H	 -0.000105	 1.988529	 0.748933
O	 -0.000098	 1.879786	 -0.188206
C	 -0.000014	 0.545691	 -0.532416
C	 -1.286000	 -0.125171	 -0.046657
C	 1.286016	 -0.125031	 -0.046584
H	 0.000021	 0.481103	 -1.610604
F	 -1.787622	 0.567537	 0.946011
F	 -2.194956	 -0.197686	 -0.985941
F	 -1.053705	 -1.343112	 0.393835
F	 2.317750	 0.468717	 -0.594166
F	 1.336617	 -1.393765	 -0.365123
F	 1.414467	 -0.024806	 1.259108

	symmetry c1
}
set optking {
	frozen_dihedral = ("
		7 4 3 6
	")
}

ee,wfn = optimize('scf', return_wfn=True)
oeprop( wfn, 'DIPOLE', 'QUADRUPOLE', 'MULLIKEN_CHARGES')
f=open( 'psi4out.xyz', 'w' )
f.write( "12  " )
f.write( str(ee) + "\n" )
f.write( MOL.save_string_xyz() )
f.close()
--------------------------------------------------------------------------

    Molecular point group: c1
  Charge       = 0
  Multiplicity = 1
  Basis Set: CC-PVTZ
  Basis Set:
  @DF-RHF Final Energy:  -786.58376681991172
    Total Energy =                       -786.5837668199114887
    Molecular point group: c1
  Basis Set: CC-PVTZ
  Basis Set:
  Basis Set: CC-PVTZ
  Basis Set:
  @DF-RHF Final Energy:  -786.58488402200646
    Total Energy =                       -786.5848840220072589
  Basis Set: CC-PVTZ
  Basis Set:
  Basis Set: CC-PVTZ
  Basis Set:
  @DF-RHF Final Energy:  -786.58561008742606
    Total Energy =                       -786.5856100874264030
  Basis Set: CC-PVTZ
  Basis Set:
  Basis Set: CC-PVTZ
  Basis Set:
  @DF-RHF Final Energy:  -786.58572102466815
    Total Energy =                       -786.5857210246679188
  Basis Set: CC-PVTZ
  Basis Set:
  Basis Set: CC-PVTZ
  Basis Set:
  @DF-RHF Final Energy:  -786.58575279961019
    Total Energy =                       -786.5857527996092813
  Basis Set: CC-PVTZ
  Basis Set:
  Basis Set: CC-PVTZ
  Basis Set:
  @DF-RHF Final Energy:  -786.58575824486434
    Total Energy =                       -786.5857582448643370
  Basis Set: CC-PVTZ
  Basis Set:
  Charge       = 0
  Multiplicity = 1
  Basis Set: CC-PVTZ
  Basis Set:

    Orbital Energies (a.u.)
    -----------------------

    Doubly Occupied:

       1A    -26.360266     2A    -26.359244     3A    -26.357474
       4A    -26.355524     5A    -26.354470     6A    -26.352537
       7A    -20.607933     8A    -11.522840     9A    -11.517768
      10A    -11.351618    11A     -1.772830    12A     -1.766022
      13A     -1.668383    14A     -1.663872    15A     -1.663120
      16A     -1.660017    17A     -1.437970    18A     -1.100837
      19A     -1.001647    20A     -0.944402    21A     -0.872872
      22A     -0.867212    23A     -0.858934    24A     -0.853447
      25A     -0.841476    26A     -0.821989    27A     -0.743240
      28A     -0.736675    29A     -0.733179    30A     -0.730299
      31A     -0.694579    32A     -0.693082    33A     -0.688073
      34A     -0.683061    35A     -0.676814    36A     -0.668151
      37A     -0.664470    38A     -0.653817    39A     -0.623682
      40A     -0.554039    41A     -0.508922

  @DF-RHF Final Energy:  -786.58575888937798

   => Energetics <=

    Nuclear Repulsion Energy =            670.0427846575848889
    One-Electron Energy =               -2427.2835112030079472
    Two-Electron Energy =                 970.6549676560449598
    DFT Exchange-Correlation Energy =       0.0000000000000000
    Empirical Dispersion Energy =           0.0000000000000000
    PCM Polarization Energy =               0.0000000000000000
    EFP Energy =                            0.0000000000000000
    Total Energy =                       -786.5857588893780985
    Molecular point group: c1
  Basis Set: CC-PVTZ
  Basis Set:

  -Total Gradient:
     Atom            X                  Y                   Z
    ------   -----------------  -----------------  -----------------
       1        0.000004473355     0.000004150875    -0.000022450726
       2        0.000005791303    -0.000025811555     0.000035793531
       3        0.002015046798    -0.004516870824    -0.000517592202
       4        0.002529229046    -0.002110613810     0.003498406262
       5        0.000034265394    -0.000016559603    -0.000117123683
       6       -0.002273932879     0.004334762343    -0.000285633267
       7       -0.002260086186     0.002209005149    -0.002639691016
       8       -0.000070314841     0.000023104903    -0.000079593711
       9        0.000020239141     0.000105697378    -0.000007140892
      10       -0.000010612936    -0.000004165367     0.000020766460
      11       -0.000007118009     0.000028783332     0.000058129029
      12        0.000013019799    -0.000031482818     0.000056130209

  **** Optimization is complete! (in 7 steps) ****
    Final optimized geometry and variables:
    Molecular point group: c1

    Geometry (in Angstrom), charge = 0, multiplicity = 1:

    H           -0.050397226114     2.047211512408     0.647805669860
    O            0.035048245629     1.883545943585    -0.276514613380
    C            0.006514540467     0.533886701934    -0.554326070076
    C           -1.286343320397    -0.113588651544    -0.007128730520
    C            1.288195707098    -0.140242177655    -0.069365301555
    H           -0.029713776484     0.452092646916    -1.629351901659
    F           -1.770326540852     0.583489676948     0.996177421384
    F           -2.203703747342    -0.125430429857    -0.947604272551
    F           -1.119176718006    -1.345183156828     0.400802242244
    F            2.329335542238     0.505056678011    -0.530616170118
    F            1.372543011940    -1.380905765456    -0.480991140527
    F            1.360785940538    -0.132275139858     1.245547015441

  Mulliken Charges: (a.u.)
   Center  Symbol    Alpha    Beta     Spin     Total
       1     H     0.38083  0.38083  0.00000  0.23834
       2     O     4.18731  4.18731  0.00000 -0.37462
       3     C     3.01954  3.01954  0.00000 -0.03908
       4     C     2.67483  2.67483  0.00000  0.65034
       5     C     2.67968  2.67968  0.00000  0.64064
       6     H     0.42618  0.42618  0.00000  0.14764
       7     F     4.60912  4.60912  0.00000 -0.21824
       8     F     4.60518  4.60518  0.00000 -0.21036
       9     F     4.59994  4.59994  0.00000 -0.19987
      10     F     4.60063  4.60063  0.00000 -0.20127
      11     F     4.60467  4.60467  0.00000 -0.20933
      12     F     4.61209  4.61209  0.00000 -0.22418

   Total alpha = 41.00000, Total beta = 41.00000, Total charge = -0.00000

*** Psi4 exiting successfully. Buy a developer a beer!
