  ==> Input File <==

--------------------------------------------------------------------------
set {
	reference rhf
	basis 6-31G*
}

set_num_threads( 1 )
memory 2 gb

molecule MOL {
0 1

H	 2.594836	 -0.689124	 -0.379852
O	 1.654024	 -0.625927	 -0.460906
C	 1.135793	 0.118896	 0.612333
C	 0.031547	 1.023609	 0.088541
H	 1.915668	 0.729681	 1.063582
H	 0.754543	 -0.542641	 1.387006
C	 -1.134819	 0.293262	 -0.585751
H	 0.474374	 1.714721	 -0.623187
H	 -0.338529	 1.620940	 0.920081
C	 -1.917817	 -0.639439	 0.339494
H	 -0.758119	 -0.268455	 -1.433105
H	 -1.813832	 1.041889	 -0.986690
H	 -2.777680	 -1.057197	 -0.174994
H	 -1.310268	 -1.471279	 0.680599
H	 -2.283753	 -0.111424	 1.216626

	symmetry c1
}
set optking {
	frozen_dihedral = ("
		8 4 7 11,
		2 3 4 8
	")
}

ee = energy('scf')
oeprop('DIPOLE', 'QUADRUPOLE', 'MULLIKEN_CHARGES')
f=open( 'psi4out.xyz', 'w' )
f.write( "15  " )
f.write( str(ee) + "\n" )
f.write( MOL.save_string_xyz() )
f.close()
--------------------------------------------------------------------------

    Molecular point group: c1

    Geometry (in Angstrom), charge = 0, multiplicity = 1:

       Center              X                  Y                   Z               Mass
    ------------   -----------------  -----------------  -----------------  -----------------
           H          2.591299787550    -0.696130123634    -0.376698175024     1.007825032070
           O          1.650487787550    -0.632933123634    -0.457752175024    15.994914619560
           C          1.132256787550     0.111889876366     0.615486824976    12.000000000000
           C          0.028010787550     1.016602876366     0.091694824976    12.000000000000
           H          1.912131787550     0.722674876366     1.066735824976     1.007825032070
           H          0.751006787550    -0.549647123634     1.390159824976     1.007825032070
           C         -1.138355212450     0.286255876366    -0.582597175024    12.000000000000
           H          0.470837787550     1.707714876366    -0.620033175024     1.007825032070
           H         -0.342065212450     1.613933876366     0.923234824976     1.007825032070
           C         -1.921353212450    -0.646445123634     0.342647824976    12.000000000000
           H         -0.761655212450    -0.275461123634    -1.429951175024     1.007825032070
           H         -1.817368212450     1.034882876366    -0.983536175024     1.007825032070
           H         -2.781216212450    -1.064203123634    -0.171840175024     1.007825032070
           H         -1.313804212450    -1.478285123634     0.683752824976     1.007825032070
           H         -2.287289212450    -0.118430123634     1.219779824976     1.007825032070

  Charge       = 0
  Multiplicity = 1
  Basis Set: 6-31G*
  Basis Set:

    Orbital Energies (a.u.)
    -----------------------

    Doubly Occupied:

       1A    -20.552509     2A    -11.267536     3A    -11.210970
       4A    -11.207924     5A    -11.203061     6A     -1.359902
       7A     -1.062802     8A     -0.968854     9A     -0.868247
      10A     -0.775305    11A     -0.702499    12A     -0.646077
      13A     -0.609612    14A     -0.570576    15A     -0.562632
      16A     -0.530865    17A     -0.508094    18A     -0.478148
      19A     -0.465477    20A     -0.451497    21A     -0.426474

  @DF-RHF Final Energy:  -232.14215213394587

   => Energetics <=

    Nuclear Repulsion Energy =            191.8733112419164684
    One-Electron Energy =                -695.1728593370824001
    Two-Electron Energy =                 271.1573959612205726
    DFT Exchange-Correlation Energy =       0.0000000000000000
    Empirical Dispersion Energy =           0.0000000000000000
    PCM Polarization Energy =               0.0000000000000000
    EFP Energy =                            0.0000000000000000
    Total Energy =                       -232.1421521339453875

  Mulliken Charges: (a.u.)
   Center  Symbol    Alpha    Beta     Spin     Total
       1     H     0.27945  0.27945  0.00000  0.44109
       2     O     4.37072  4.37072  0.00000 -0.74143
       3     C     3.00145  3.00145  0.00000 -0.00290
       4     C     3.15719  3.15719  0.00000 -0.31439
       5     H     0.43007  0.43007  0.00000  0.13986
       6     H     0.42585  0.42585  0.00000  0.14830
       7     C     3.15413  3.15413  0.00000 -0.30826
       8     H     0.41838  0.41838  0.00000  0.16324
       9     H     0.42676  0.42676  0.00000  0.14648
      10     C     3.24369  3.24369  0.00000 -0.48739
      11     H     0.40756  0.40756  0.00000  0.18488
      12     H     0.42301  0.42301  0.00000  0.15397
      13     H     0.41924  0.41924  0.00000  0.16152
      14     H     0.41728  0.41728  0.00000  0.16543
      15     H     0.42521  0.42521  0.00000  0.14959

   Total alpha = 21.00000, Total beta = 21.00000, Total charge = -0.00000
