  ==> Input File <==

--------------------------------------------------------------------------
set {
	reference rhf
	basis cc-pvtz
}

set_num_threads( 4 )
memory 2 gb

molecule MOL {
0 1

O	 -2.529000	 -0.963000	 -0.426000
C	 -2.009000	 0.038000	 -0.052000
C	 -2.712000	 1.353000	 0.147000
O	 -0.720000	 0.128000	 0.245000
H	 -2.258000	 2.110000	 -0.482000
H	 -3.758000	 1.246000	 -0.099000
H	 -2.604000	 1.675000	 1.177000
C	 0.073000	 -1.047000	 0.100000
C	 1.502000	 -0.701000	 0.475000
H	 0.002000	 -1.395000	 -0.922000
H	 -0.327000	 -1.819000	 0.744000
C	 2.159000	 0.319000	 -0.457000
H	 2.075000	 -1.625000	 0.468000
H	 1.517000	 -0.331000	 1.497000
C	 3.604000	 0.626000	 -0.065000
H	 2.134000	 -0.061000	 -1.477000
H	 1.578000	 1.235000	 -0.454000
H	 4.048000	 1.349000	 -0.742000
H	 4.218000	 -0.270000	 -0.089000
H	 3.658000	 1.037000	 0.939000

	symmetry c1
}
ee = optimize('scf')
oeprop('DIPOLE', 'QUADRUPOLE', 'MULLIKEN_CHARGES')
f=open( 'psi4out.xyz', 'w' )
f.write( "20  " )
f.write( str(ee) + "\n" )
f.write( MOL.save_string_xyz() )
f.close()
--------------------------------------------------------------------------

    Molecular point group: c1
  Charge       = 0
  Multiplicity = 1
  Basis Set: CC-PVTZ
  Basis Set:
  @DF-RHF Final Energy:  -384.08743538714555
    Total Energy =                       -384.0874353871456606
    Molecular point group: c1
  Basis Set: CC-PVTZ
  Basis Set:
  Basis Set: CC-PVTZ
  Basis Set:
  @DF-RHF Final Energy:  -384.08756797870535
    Total Energy =                       -384.0875679787054651
  Basis Set: CC-PVTZ
  Basis Set:
  Basis Set: CC-PVTZ
  Basis Set:
  @DF-RHF Final Energy:  -384.08746602391545
    Total Energy =                       -384.0874660239156810
  Basis Set: CC-PVTZ
  Basis Set:
  Basis Set: CC-PVTZ
  Basis Set:
  @DF-RHF Final Energy:  -384.08757462377440
    Total Energy =                       -384.0875746237742305
  Basis Set: CC-PVTZ
  Basis Set:
  Charge       = 0
  Multiplicity = 1
  Basis Set: CC-PVTZ
  Basis Set:

    Orbital Energies (a.u.)
    -----------------------

    Doubly Occupied:

       1A    -20.594384     2A    -20.532696     3A    -11.366722
       4A    -11.280227     5A    -11.231705     6A    -11.223606
       7A    -11.218906     8A    -11.211657     9A     -1.471031
      10A     -1.365218    11A     -1.087229    12A     -1.029247
      13A     -0.982280    14A     -0.881294    15A     -0.812333
      16A     -0.776895    17A     -0.692546    18A     -0.686707
      19A     -0.670231    20A     -0.632628    21A     -0.601875
      22A     -0.594140    23A     -0.573018    24A     -0.551727
      25A     -0.546024    26A     -0.532919    27A     -0.513147
      28A     -0.484259    29A     -0.475489    30A     -0.474204
      31A     -0.451787    32A     -0.442098

  @DF-RHF Final Energy:  -384.08757482801877

   => Energetics <=

    Nuclear Repulsion Energy =            385.6321025356112386
    One-Electron Energy =               -1287.4629015781176804
    Two-Electron Energy =                 517.7432242144876682
    DFT Exchange-Correlation Energy =       0.0000000000000000
    Empirical Dispersion Energy =           0.0000000000000000
    PCM Polarization Energy =               0.0000000000000000
    EFP Energy =                            0.0000000000000000
    Total Energy =                       -384.0875748280187736
    Molecular point group: c1
  Basis Set: CC-PVTZ
  Basis Set:

  -Total Gradient:
     Atom            X                  Y                   Z
    ------   -----------------  -----------------  -----------------
       1       -0.000138904140    -0.000119004669     0.000067532418
       2        0.000099860314    -0.000091189301    -0.000263438085
       3       -0.000014921754     0.000054942681     0.000068347021
       4        0.000052705137     0.000010477420     0.000136161158
       5       -0.000004676462     0.000043411903     0.000008073952
       6        0.000013921606    -0.000003073217     0.000002056320
       7       -0.000018549785     0.000059301799     0.000029377406
       8        0.000075866533     0.000015905320    -0.000169879353
       9       -0.000041275567     0.000002927509     0.000021565840
      10       -0.000010916252    -0.000010894319     0.000014211298
      11       -0.000041881862    -0.000012661833     0.000033087386
      12       -0.000024617236     0.000024247138     0.000021007727
      13        0.000007008276    -0.000027411781     0.000041013774
      14        0.000004017654     0.000012523992     0.000018441770
      15        0.000031012287    -0.000007817151    -0.000020857794
      16       -0.000030491602     0.000003319296    -0.000012498543
      17       -0.000026242040     0.000056175925    -0.000005636763
      18        0.000017728567    -0.000003918073    -0.000004876052
      19        0.000043489120    -0.000013846115     0.000013631106
      20        0.000006867203     0.000006583474     0.000002679414

  **** Optimization is complete! (in 5 steps) ****
    Final optimized geometry and variables:
    Molecular point group: c1

    Geometry (in Angstrom), charge = 0, multiplicity = 1:

    O           -2.440701351601    -0.934797151827    -0.415053457048
    C           -1.922978097378     0.063265850767    -0.045005156948
    C           -2.632749090542     1.372204062825     0.158356845157
    O           -0.637375317632     0.157174218877     0.243149107806
    H           -2.187724505518     2.129143404903    -0.474664575443
    H           -3.677681463885     1.257276692532    -0.079438436231
    H           -2.516788763451     1.693160584017     1.185541342408
    C            0.162529270678    -1.009517215856     0.097798926461
    C            1.587208984065    -0.664189625653     0.477085558550
    H            0.096802235037    -1.356266664430    -0.924704137204
    H           -0.233803339098    -1.785899811846     0.736809701006
    C            2.256769623717     0.342732068588    -0.454344781271
    H            2.154715020226    -1.590833682174     0.479040344066
    H            1.598750781261    -0.289613408964     1.496103770543
    C            3.698144990417     0.643205190144    -0.057145367435
    H            2.235037672083    -0.042574350834    -1.470299634230
    H            1.683490860804     1.262594441292    -0.461300187297
    H            4.150201368102     1.356548593976    -0.736242213076
    H            4.305462651610    -0.255903431934    -0.069842274346
    H            3.749129307920     1.061068140685     0.942758435769

  Mulliken Charges: (a.u.)
   Center  Symbol    Alpha    Beta     Spin     Total
       1     O     4.19728  4.19728  0.00000 -0.39456
       2     C     2.80879  2.80879  0.00000  0.38242
       3     C     3.13846  3.13846  0.00000 -0.27692
       4     O     4.15346  4.15346  0.00000 -0.30691
       5     H     0.44610  0.44610  0.00000  0.10781
       6     H     0.43779  0.43779  0.00000  0.12442
       7     H     0.44571  0.44571  0.00000  0.10857
       8     C     2.99350  2.99350  0.00000  0.01300
       9     C     3.08423  3.08423  0.00000 -0.16847
      10     H     0.45101  0.45101  0.00000  0.09798
      11     H     0.44454  0.44454  0.00000  0.11092
      12     C     3.08619  3.08619  0.00000 -0.17238
      13     H     0.45165  0.45165  0.00000  0.09670
      14     H     0.45188  0.45188  0.00000  0.09624
      15     C     3.15016  3.15016  0.00000 -0.30033
      16     H     0.45498  0.45498  0.00000  0.09005
      17     H     0.44719  0.44719  0.00000  0.10562
      18     H     0.44735  0.44735  0.00000  0.10530
      19     H     0.45541  0.45541  0.00000  0.08917
      20     H     0.45431  0.45431  0.00000  0.09139

   Total alpha = 32.00000, Total beta = 32.00000, Total charge = -0.00000
