  ==> Input File <==

--------------------------------------------------------------------------
set {
	reference rhf
	basis 6-31G*
}

set_num_threads( 4 )
memory 2 gb

molecule MOL {
0 1

H	 3.729471	 -0.928294	 -0.070608
O	 2.826016	 -1.159218	 0.122261
C	 2.077727	 -0.067559	 -0.035091
C	 0.624473	 -0.343591	 0.253101
O	 2.542965	 0.974826	 -0.363729
C	 -0.265902	 0.883932	 0.072916
H	 0.324016	 -1.163849	 -0.390541
H	 0.565024	 -0.726111	 1.268924
C	 -1.728698	 0.646073	 0.462102
H	 -0.209144	 1.219470	 -0.958188
H	 0.135059	 1.692851	 0.673903
C	 -2.113018	 -0.822398	 0.664212
H	 -2.357949	 1.064223	 -0.320174
H	 -1.959932	 1.206880	 1.366637
C	 -3.603833	 -1.005447	 0.947833
H	 -1.842484	 -1.388904	 -0.224566
H	 -1.543365	 -1.250093	 1.485160
H	 -3.851469	 -2.052857	 1.088978
H	 -4.207910	 -0.629925	 0.126917
H	 -3.900161	 -0.471585	 1.846398

	symmetry c1
}
set optking {
	frozen_dihedral = ("
		12 9 6 10
	")
}

ee = optimize('scf')
oeprop('DIPOLE', 'QUADRUPOLE', 'MULLIKEN_CHARGES')
f=open( 'psi4out.xyz', 'w' )
f.write( "20  " )
f.write( str(ee) + "\n" )
f.write( MOL.save_string_xyz() )
f.close()
--------------------------------------------------------------------------

    Molecular point group: c1
  Charge       = 0
  Multiplicity = 1
  Basis Set: 6-31G*
  Basis Set:
  @DF-RHF Final Energy:  -383.93916315090405
    Total Energy =                       -383.9391631509047329
    Molecular point group: c1
  Basis Set: 6-31G*
  Basis Set:
  Basis Set: 6-31G*
  Basis Set:
  @DF-RHF Final Energy:  -383.93947954373328
    Total Energy =                       -383.9394795437337962
  Basis Set: 6-31G*
  Basis Set:
  Basis Set: 6-31G*
  Basis Set:
  @DF-RHF Final Energy:  -383.94112757200003
    Total Energy =                       -383.9411275720000845
  Basis Set: 6-31G*
  Basis Set:
  Basis Set: 6-31G*
  Basis Set:
  @DF-RHF Final Energy:  -383.94116138767799
    Total Energy =                       -383.9411613876778802
  Basis Set: 6-31G*
  Basis Set:
  @DF-RHF Final Energy:  -383.94123198568332
    Total Energy =                       -383.9412319856834301
  Basis Set: 6-31G*
  Basis Set:
  @DF-RHF Final Energy:  -383.94123785048032
    Total Energy =                       -383.9412378504800927
  Basis Set: 6-31G*
  Basis Set:
  Basis Set: 6-31G*
  Basis Set:
  @DF-RHF Final Energy:  -383.94124514384202
    Total Energy =                       -383.9412451438417975
  Basis Set: 6-31G*
  Basis Set:
  Basis Set: 6-31G*
  Basis Set:
  @DF-RHF Final Energy:  -383.94124902386284
    Total Energy =                       -383.9412490238626106
  Basis Set: 6-31G*
  Basis Set:
  Charge       = 0
  Multiplicity = 1
  Basis Set: 6-31G*
  Basis Set:

    Orbital Energies (a.u.)
    -----------------------

    Doubly Occupied:

       1A    -20.612388     2A    -20.551611     3A    -11.381100
       4A    -11.240535     5A    -11.222663     6A    -11.221496
       7A    -11.220317     8A    -11.212682     9A     -1.474525
      10A     -1.365579    11A     -1.093192    12A     -1.040771
      13A     -0.959953    14A     -0.870447    15A     -0.821794
      16A     -0.767907    17A     -0.699558    18A     -0.688524
      19A     -0.668829    20A     -0.637194    21A     -0.595454
      22A     -0.592376    23A     -0.580887    24A     -0.549439
      25A     -0.541181    26A     -0.519195    27A     -0.498128
      28A     -0.478882    29A     -0.470613    30A     -0.460370
      31A     -0.453139    32A     -0.444108

  @DF-RHF Final Energy:  -383.94124902421242

   => Energetics <=

    Nuclear Repulsion Energy =            376.7093585536123328
    One-Electron Energy =               -1269.4315356727595372
    Two-Electron Energy =                 508.7809280949344952
    DFT Exchange-Correlation Energy =       0.0000000000000000
    Empirical Dispersion Energy =           0.0000000000000000
    PCM Polarization Energy =               0.0000000000000000
    EFP Energy =                            0.0000000000000000
    Total Energy =                       -383.9412490242127092
    Molecular point group: c1
  Basis Set: 6-31G*
  Basis Set:

  -Total Gradient:
     Atom            X                  Y                   Z
    ------   -----------------  -----------------  -----------------
       1        0.000000705077    -0.000000583966     0.000000754921
       2        0.000002133130    -0.000001160041    -0.000003967083
       3       -0.000000672246    -0.000005728686    -0.000009010001
       4        0.000006756007     0.000008896772     0.000008670590
       5        0.000001120348     0.000001751901     0.000007294059
       6        0.000727864870    -0.004923795389    -0.000241257053
       7       -0.000008766569    -0.000001392645     0.000005923606
       8        0.000012747656     0.000007677886    -0.000002571468
       9       -0.001121795690     0.000717525410    -0.004218738192
      10       -0.000319599842     0.004051843275     0.001354097558
      11        0.000006939122    -0.000014085822    -0.000006379495
      12        0.000705721376     0.000168878919     0.003094345885
      13       -0.000005193225    -0.000010993621     0.000001617900
      14       -0.000002160876     0.000005542445     0.000000157923
      15        0.000002648347    -0.000005779843     0.000013154351
      16        0.000001293496    -0.000002434321    -0.000001316550
      17       -0.000009608469     0.000004724397    -0.000005491222
      18       -0.000002389623    -0.000000883942     0.000004455715
      19        0.000005088672    -0.000003143665    -0.000000828910
      20       -0.000002831564     0.000003140935    -0.000000912535

  **** Optimization is complete! (in 9 steps) ****
    Final optimized geometry and variables:
    Molecular point group: c1

    Geometry (in Angstrom), charge = 0, multiplicity = 1:

    H            3.716301218354    -0.691678030346    -0.359477510864
    O            2.831675228372    -0.954361636675    -0.124606020296
    C            2.027298883530     0.092609017042    -0.307961581692
    C            0.599157404233    -0.238787971966     0.043557279594
    O            2.432068612308     1.137833568006    -0.701238382257
    C           -0.344644116464     0.943557963194    -0.163418785336
    H            0.317712607864    -1.099700313970    -0.553481509691
    H            0.599091221409    -0.579186185249     1.074641837973
    C           -1.835593646600     0.705695610741     0.193192527193
    H           -0.261202323660     1.294642709785    -1.185701918981
    H            0.025738929399     1.770270461392     0.432707166269
    C           -2.295789299190    -0.745179527866     0.376479626179
    H           -2.452765957376     1.171921554363    -0.569250379194
    H           -2.060046539074     1.235343613793     1.115819504709
    C           -3.785311058826    -0.834031218603     0.708518166510
    H           -2.100413246204    -1.318806400584    -0.526856231190
    H           -1.727932475001    -1.219685093228     1.171585644350
    H           -4.096384646169    -1.865325463716     0.842766468100
    H           -4.390530072968    -0.406175155473    -0.085500958738
    H           -4.015430630786    -0.296914563013     1.624320901308

  Mulliken Charges: (a.u.)
   Center  Symbol    Alpha    Beta     Spin     Total
       1     H     0.26784  0.26784  0.00000  0.46433
       2     O     4.35186  4.35186  0.00000 -0.70371
       3     C     2.62178  2.62178  0.00000  0.75643
       4     C     3.21411  3.21411  0.00000 -0.42822
       5     O     4.27914  4.27914  0.00000 -0.55828
       6     C     3.15877  3.15877  0.00000 -0.31754
       7     H     0.39678  0.39678  0.00000  0.20643
       8     H     0.39805  0.39805  0.00000  0.20390
       9     C     3.15564  3.15564  0.00000 -0.31128
      10     H     0.40867  0.40867  0.00000  0.18266
      11     H     0.40868  0.40868  0.00000  0.18264
      12     C     3.15703  3.15703  0.00000 -0.31405
      13     H     0.41775  0.41775  0.00000  0.16449
      14     H     0.42028  0.42028  0.00000  0.15945
      15     C     3.23915  3.23915  0.00000 -0.47829
      16     H     0.42265  0.42265  0.00000  0.15471
      17     H     0.42203  0.42203  0.00000  0.15594
      18     H     0.41824  0.41824  0.00000  0.16353
      19     H     0.42062  0.42062  0.00000  0.15875
      20     H     0.42093  0.42093  0.00000  0.15813

   Total alpha = 32.00000, Total beta = 32.00000, Total charge =  0.00000
