  ==> Input File <==

--------------------------------------------------------------------------
set {
	reference rhf
	basis cc-pvtz
}

set_num_threads( 4 )
memory 2 gb

molecule MOL {
0 1

H	 -1.574538	 -1.525845	 1.476560
N	 -0.792691	 -0.909394	 1.411170
C	 -0.561396	 -0.500007	 0.035200
H	 -0.001318	 -1.397427	 1.775708
C	 0.575129	 0.507849	 -0.048832
H	 -1.473047	 -0.040708	 -0.332433
H	 -0.344764	 -1.339182	 -0.627574
C	 1.951750	 -0.141983	 0.035101
H	 0.478254	 1.061643	 -0.975981
H	 0.467676	 1.231891	 0.755499
H	 2.101550	 -0.848142	 -0.774949
H	 2.738260	 0.600794	 -0.026526
H	 2.078939	 -0.679792	 0.968824

	symmetry c1
}
set optking {
	frozen_dihedral = ("
		6 3 5 9
	")
}

ee = optimize('scf')
oeprop('DIPOLE', 'QUADRUPOLE', 'MULLIKEN_CHARGES')
f=open( 'psi4out.xyz', 'w' )
f.write( "13  " )
f.write( str(ee) + "\n" )
f.write( MOL.save_string_xyz() )
f.close()
--------------------------------------------------------------------------

    Molecular point group: c1
  Charge       = 0
  Multiplicity = 1
  Basis Set: CC-PVTZ
  Basis Set:
  @DF-RHF Final Energy:  -173.35048226848821
    Total Energy =                       -173.3504822684882924
    Molecular point group: c1
  Basis Set: CC-PVTZ
  Basis Set:
  Basis Set: CC-PVTZ
  Basis Set:
  @DF-RHF Final Energy:  -173.35069942696637
    Total Energy =                       -173.3506994269664574
  Basis Set: CC-PVTZ
  Basis Set:
  Basis Set: CC-PVTZ
  Basis Set:
  @DF-RHF Final Energy:  -173.35073963881405
    Total Energy =                       -173.3507396388140194
  Basis Set: CC-PVTZ
  Basis Set:
  Basis Set: CC-PVTZ
  Basis Set:
  @DF-RHF Final Energy:  -173.35074139930228
    Total Energy =                       -173.3507413993023647
  Basis Set: CC-PVTZ
  Basis Set:
  Charge       = 0
  Multiplicity = 1
  Basis Set: CC-PVTZ
  Basis Set:

    Orbital Energies (a.u.)
    -----------------------

    Doubly Occupied:

       1A    -15.527018     2A    -11.238523     3A    -11.210008
       4A    -11.207882     5A     -1.178612     6A     -1.033595
       7A     -0.907454     8A     -0.791915     9A     -0.668925
      10A     -0.638667    11A     -0.573982    12A     -0.566369
      13A     -0.560834    14A     -0.483396    15A     -0.478168
      16A     -0.469112    17A     -0.383916

  @DF-RHF Final Energy:  -173.35074179553550

   => Energetics <=

    Nuclear Repulsion Energy =            133.4744230181394187
    One-Electron Energy =                -497.8135761997473310
    Two-Electron Energy =                 190.9884113860724142
    DFT Exchange-Correlation Energy =       0.0000000000000000
    Empirical Dispersion Energy =           0.0000000000000000
    PCM Polarization Energy =               0.0000000000000000
    EFP Energy =                            0.0000000000000000
    Total Energy =                       -173.3507417955354981
    Molecular point group: c1
  Basis Set: CC-PVTZ
  Basis Set:

  -Total Gradient:
     Atom            X                  Y                   Z
    ------   -----------------  -----------------  -----------------
       1       -0.000021186679    -0.000028197354     0.000029963162
       2       -0.000035187673     0.000034330787    -0.000047935638
       3       -0.001108016225     0.001745987626     0.003843625942
       4        0.000032313841    -0.000007320648    -0.000004284823
       5        0.002264092560    -0.002897228636    -0.002401130018
       6        0.000608021845    -0.000988715261    -0.002839346590
       7       -0.000002615629    -0.000028714797    -0.000007852270
       8       -0.000038358831     0.000018857007    -0.000015984225
       9       -0.001694793826     0.002118059044     0.001413900051
      10        0.000000679045     0.000020905795     0.000021512707
      11       -0.000002914129     0.000001916243     0.000011671697
      12        0.000000778599     0.000015007222    -0.000002232492
      13       -0.000002812899    -0.000004887028    -0.000001907502

  **** Optimization is complete! (in 5 steps) ****
    Final optimized geometry and variables:
    Molecular point group: c1

    Geometry (in Angstrom), charge = 0, multiplicity = 1:

    H           -1.892830997400    -1.213603975495     1.099354227276
    N           -1.084987498812    -0.630861608696     1.038980886927
    C           -0.858432371744    -0.200518252313    -0.332186392842
    H           -0.315513217947    -1.166990856979     1.380516801977
    C            0.292290006848     0.795705516457    -0.434566926427
    H           -1.764955241680     0.268613367620    -0.696150495366
    H           -0.663011985708    -1.035278975659    -1.008697012190
    C            1.677522529398     0.163399165906    -0.344990040839
    H            0.196047867176     1.344857854344    -1.366129185267
    H            0.173331533908     1.526379400365     0.358766173189
    H            1.830013015248    -0.561274748397    -1.138152694689
    H            2.453610581493     0.915057899315    -0.430156538808
    H            1.825491568988    -0.344706467420     0.602022087863

  Mulliken Charges: (a.u.)
   Center  Symbol    Alpha    Beta     Spin     Total
       1     H     0.42898  0.42898  0.00000  0.14205
       2     N     3.68918  3.68918  0.00000 -0.37835
       3     C     3.03002  3.03002  0.00000 -0.06004
       4     H     0.43053  0.43053  0.00000  0.13893
       5     C     3.08551  3.08551  0.00000 -0.17103
       6     H     0.45273  0.45273  0.00000  0.09454
       7     H     0.46848  0.46848  0.00000  0.06304
       8     C     3.14971  3.14971  0.00000 -0.29942
       9     H     0.45351  0.45351  0.00000  0.09297
      10     H     0.45086  0.45086  0.00000  0.09828
      11     H     0.45572  0.45572  0.00000  0.08857
      12     H     0.44695  0.44695  0.00000  0.10610
      13     H     0.45782  0.45782  0.00000  0.08435

   Total alpha = 17.00000, Total beta = 17.00000, Total charge = -0.00000
