  ==> Input File <==

--------------------------------------------------------------------------
set {
	reference rhf
	basis 6-31G*
}

set_num_threads( 1 )
memory 2 gb

molecule MOL {
0 1

O	 -0.291628	 1.323815	 -0.000732
C	 -0.449655	 0.146360	 0.000961
C	 -1.783294	 -0.549321	 -0.000296
O	 0.550821	 -0.724572	 0.000672
H	 -1.863538	 -1.185371	 -0.874187
H	 -2.574672	 0.185258	 -0.002793
H	 -1.866414	 -1.182381	 0.875436
C	 1.447904	 -0.671125	 -1.094165
H	 0.926093	 -0.857132	 -2.021780
H	 2.178781	 -1.443944	 -0.914391
H	 1.928546	 0.295232	 -1.143954

	symmetry c1
}
set optking {
	frozen_dihedral = ("
		2 4 8 9
	")
}

ee = energy('scf')
oeprop('DIPOLE', 'QUADRUPOLE', 'MULLIKEN_CHARGES')
f=open( 'psi4out.xyz', 'w' )
f.write( "11  " )
f.write( str(ee) + "\n" )
f.write( MOL.save_string_xyz() )
f.close()
--------------------------------------------------------------------------

    Molecular point group: c1

    Geometry (in Angstrom), charge = 0, multiplicity = 1:

       Center              X                  Y                   Z               Mass
    ------------   -----------------  -----------------  -----------------  -----------------
           O         -0.203078479648     1.425457768845     0.232078881538    15.994914619560
           C         -0.361105479648     0.248002768845     0.233771881538    12.000000000000
           C         -1.694744479648    -0.447678231155     0.232514881538    12.000000000000
           O          0.639370520352    -0.622929231155     0.233482881538    15.994914619560
           H         -1.774988479648    -1.083728231155    -0.641376118462     1.007825032070
           H         -2.486122479648     0.286900768845     0.230017881538     1.007825032070
           H         -1.777864479648    -1.080738231155     1.108246881538     1.007825032070
           C          1.536453520352    -0.569482231155    -0.861354118462    12.000000000000
           H          1.014642520352    -0.755489231155    -1.788969118462     1.007825032070
           H          2.267330520352    -1.342301231155    -0.681580118462     1.007825032070
           H          2.017095520352     0.396874768845    -0.911143118462     1.007825032070

  Charge       = 0
  Multiplicity = 1
  Basis Set: 6-31G*
  Basis Set:

    Orbital Energies (a.u.)
    -----------------------

    Doubly Occupied:

       1A    -20.592261     2A    -20.553017     3A    -11.377383
       4A    -11.291056     5A    -11.235070     6A     -1.467187
       7A     -1.366653     8A     -1.031359     9A     -0.961348
      10A     -0.780176    11A     -0.695206    12A     -0.682586
      13A     -0.673277    14A     -0.605000    15A     -0.592463
      16A     -0.570741    17A     -0.540273    18A     -0.500747
      19A     -0.457183    20A     -0.440792

  @DF-RHF Final Energy:  -266.82097025043322

   => Energetics <=

    Nuclear Repulsion Energy =            183.0728877033838842
    One-Electron Energy =                -726.9600941349290224
    Two-Electron Energy =                 277.0662361811116057
    DFT Exchange-Correlation Energy =       0.0000000000000000
    Empirical Dispersion Energy =           0.0000000000000000
    PCM Polarization Energy =               0.0000000000000000
    EFP Energy =                            0.0000000000000000
    Total Energy =                       -266.8209702504335041

  Mulliken Charges: (a.u.)
   Center  Symbol    Alpha    Beta     Spin     Total
       1     O     4.26429  4.26429  0.00000 -0.52858
       2     C     2.62667  2.62667  0.00000  0.74666
       3     C     3.28337  3.28337  0.00000 -0.56673
       4     O     4.30347  4.30347  0.00000 -0.60693
       5     H     0.40525  0.40525  0.00000  0.18951
       6     H     0.39849  0.39849  0.00000  0.20302
       7     H     0.39843  0.39843  0.00000  0.20314
       8     C     3.09403  3.09403  0.00000 -0.18805
       9     H     0.41909  0.41909  0.00000  0.16182
      10     H     0.40402  0.40402  0.00000  0.19196
      11     H     0.40290  0.40290  0.00000  0.19420

   Total alpha = 20.00000, Total beta = 20.00000, Total charge =  0.00000
