                              Psi4 1.0.54 Driver

  ==> Input File <==

--------------------------------------------------------------------------
set {
	reference rhf
	basis cc-pvtz
}

set_num_threads( 4 )
memory 2 gb

molecule MOL {
0 1

O	 -2.440701	 -0.934798	 -0.415053
C	 -1.922978	 0.063265	 -0.045005
C	 -2.632749	 1.372204	 0.158357
O	 -0.637375	 0.157174	 0.243149
H	 -2.187724	 2.129143	 -0.474664
H	 -3.677681	 1.257276	 -0.079438
H	 -2.516788	 1.693160	 1.185542
C	 0.162530	 -1.009518	 0.097799
C	 1.587210	 -0.664190	 0.477086
H	 0.096803	 -1.356267	 -0.924704
H	 -0.233803	 -1.785900	 0.736810
C	 1.706456	 0.439632	 1.524522
H	 2.098796	 -0.359614	 -0.431897
H	 2.085040	 -1.562749	 0.828645
C	 3.155103	 0.778909	 1.859081
H	 1.201358	 1.330953	 1.161863
H	 1.187502	 0.136872	 2.426667
H	 3.210771	 1.566946	 2.600893
H	 3.693998	 1.114604	 0.979142
H	 3.677519	 -0.085347	 2.255516

	symmetry c1
}
set optking {
	frozen_dihedral = ("
		12 9 8 10
	")
}

ee,wfn = optimize('scf', return_wfn=True)
oeprop( wfn, 'DIPOLE', 'QUADRUPOLE', 'MULLIKEN_CHARGES')
f=open( 'psi4out.xyz', 'w' )
f.write( "20  " )
f.write( str(ee) + "\n" )
f.write( MOL.save_string_xyz() )
f.close()
--------------------------------------------------------------------------

    Molecular point group: c1
  Charge       = 0
  Multiplicity = 1
  Basis Set: CC-PVTZ
  Basis Set:
  @DF-RHF Final Energy:  -384.08176732534019
    Total Energy =                       -384.0817673253402518
    Molecular point group: c1
  Basis Set: CC-PVTZ
  Basis Set:
  Basis Set: CC-PVTZ
  Basis Set:
  @DF-RHF Final Energy:  -384.08228856730278
    Total Energy =                       -384.0822885673029532
  Basis Set: CC-PVTZ
  Basis Set:
  Basis Set: CC-PVTZ
  Basis Set:
  @DF-RHF Final Energy:  -384.08284740686400
    Total Energy =                       -384.0828474068639480
  Basis Set: CC-PVTZ
  Basis Set:
  Basis Set: CC-PVTZ
  Basis Set:
  @DF-RHF Final Energy:  -384.08263194867982
    Total Energy =                       -384.0826319486797047
  Basis Set: CC-PVTZ
  Basis Set:
  Basis Set: CC-PVTZ
  Basis Set:
  @DF-RHF Final Energy:  -384.08287172765210
    Total Energy =                       -384.0828717276517636
  Basis Set: CC-PVTZ
  Basis Set:
  Basis Set: CC-PVTZ
  Basis Set:
  @DF-RHF Final Energy:  -384.08287970830617
    Total Energy =                       -384.0828797083058816
  Basis Set: CC-PVTZ
  Basis Set:
  Charge       = 0
  Multiplicity = 1
  Basis Set: CC-PVTZ
  Basis Set:

    Orbital Energies (a.u.)
    -----------------------

    Doubly Occupied:

       1A    -20.593358     2A    -20.532344     3A    -11.366336
       4A    -11.281127     5A    -11.231526     6A    -11.224245
       7A    -11.217918     8A    -11.210823     9A     -1.470441
      10A     -1.364592    11A     -1.084542    12A     -1.028685
      13A     -0.981062    14A     -0.881601    15A     -0.817369
      16A     -0.765501    17A     -0.692671    18A     -0.691280
      19A     -0.669401    20A     -0.634983    21A     -0.597399
      22A     -0.594280    23A     -0.573844    24A     -0.548769
      25A     -0.546114    26A     -0.534554    27A     -0.510542
      28A     -0.484455    29A     -0.476376    30A     -0.469921
      31A     -0.450002    32A     -0.441809

  @DF-RHF Final Energy:  -384.08288007990410

   => Energetics <=

    Nuclear Repulsion Energy =            387.0315253714350661
    One-Electron Energy =               -1290.2930681730799733
    Two-Electron Energy =                 519.1786627217409205
    DFT Exchange-Correlation Energy =       0.0000000000000000
    Empirical Dispersion Energy =           0.0000000000000000
    PCM Polarization Energy =               0.0000000000000000
    EFP Energy =                            0.0000000000000000
    Total Energy =                       -384.0828800799040437
    Molecular point group: c1
  Basis Set: CC-PVTZ
  Basis Set:

  -Total Gradient:
     Atom            X                  Y                   Z
    ------   -----------------  -----------------  -----------------
       1       -0.000080198573    -0.000090478647    -0.000035832266
       2        0.000007736786     0.000042387758    -0.000018294329
       3        0.000038917447    -0.000011010772     0.000013725518
       4        0.000069280474     0.000021238523     0.000037887113
       5        0.000009639363     0.000013201536    -0.000014145638
       6       -0.000035975829    -0.000015225864    -0.000014882816
       7        0.000003944833     0.000019271232     0.000031917728
       8        0.001643381645    -0.006130685667     0.000636159115
       9       -0.000191031756    -0.003414965386     0.004189039424
      10       -0.001364562412     0.006113628197    -0.001627905583
      11       -0.000005590343    -0.000036436992     0.000006719111
      12       -0.000098011394     0.003496515156    -0.003226266620
      13        0.000029393445    -0.000004796348    -0.000016101075
      14       -0.000036767029     0.000003863698    -0.000004296126
      15       -0.000003300761    -0.000001215084    -0.000013493462
      16       -0.000002120585    -0.000000879846     0.000002763053
      17       -0.000022955991    -0.000005194285     0.000037388905
      18       -0.000006070515     0.000024030747     0.000021700235
      19        0.000020015636     0.000005074054    -0.000028633271
      20        0.000024275558    -0.000028322010     0.000022550983

  **** Optimization is complete! (in 7 steps) ****
    Final optimized geometry and variables:
    Molecular point group: c1

    Geometry (in Angstrom), charge = 0, multiplicity = 1:

    O           -2.221324927509    -1.079021458724    -1.009427311343
    C           -1.794903051973    -0.053960723758    -0.598274336153
    C           -2.610409418397     1.191718010701    -0.394551419201
    O           -0.532073199415     0.131091773146    -0.260614246233
    H           -2.200634340282     1.995843593775    -0.992177593366
    H           -3.633621723998     1.003937968804    -0.676661333231
    H           -2.559079360708     1.494303700882     0.643444118328
    C            0.360065598151    -0.970799900080    -0.406638397649
    C            1.764059750920    -0.540512226115     0.010304095271
    H            0.340159941329    -1.252642706632    -1.448835316132
    H           -0.006753089395    -1.792539334113     0.190658772812
    C            1.834210259103     0.501275965404     1.125366222056
    H            2.280054609350    -0.139410728372    -0.856995052807
    H            2.307643211012    -1.434256837075     0.299728536261
    C            3.270805531124     0.794731809133     1.545275438050
    H            1.358396248769     1.413908162524     0.793040887177
    H            1.269100518460     0.158126604096     1.987704842176
    H            3.302745448460     1.549573015057     2.322321185452
    H            3.857199565105     1.158629578858     0.707799655478
    H            3.760371144957    -0.094630081267     1.928070562259

  Mulliken Charges: (a.u.)
   Center  Symbol    Alpha    Beta     Spin     Total
       1     O     4.19805  4.19805  0.00000 -0.39610
       2     C     2.80896  2.80896  0.00000  0.38207
       3     C     3.13891  3.13891  0.00000 -0.27782
       4     O     4.15125  4.15125  0.00000 -0.30250
       5     H     0.44600  0.44600  0.00000  0.10799
       6     H     0.43733  0.43733  0.00000  0.12534
       7     H     0.44588  0.44588  0.00000  0.10825
       8     C     2.99100  2.99100  0.00000  0.01800
       9     C     3.09261  3.09261  0.00000 -0.18522
      10     H     0.44659  0.44659  0.00000  0.10682
      11     H     0.44970  0.44970  0.00000  0.10060
      12     C     3.07977  3.07977  0.00000 -0.15955
      13     H     0.45251  0.45251  0.00000  0.09498
      14     H     0.45140  0.45140  0.00000  0.09721
      15     C     3.15146  3.15146  0.00000 -0.30293
      16     H     0.44613  0.44613  0.00000  0.10775
      17     H     0.45451  0.45451  0.00000  0.09098
      18     H     0.44741  0.44741  0.00000  0.10519
      19     H     0.45504  0.45504  0.00000  0.08991
      20     H     0.45548  0.45548  0.00000  0.08904

   Total alpha = 32.00000, Total beta = 32.00000, Total charge =  0.00000

*** Psi4 exiting successfully. Buy a developer a beer!
