  ==> Input File <==

--------------------------------------------------------------------------
set {
	reference rhf
	basis 6-31G*
}

set_num_threads( 4 )
memory 2 gb

molecule MOL {
0 1

O	 -2.042549	 -1.228399	 -0.269030
C	 -1.653912	 -0.146171	 0.050137
C	 -0.332303	 0.024011	 0.778412
C	 -2.438579	 1.106236	 -0.272369
C	 0.845713	 -0.001731	 -0.208243
H	 -0.323783	 0.953829	 1.340327
H	 -0.235459	 -0.796807	 1.480410
C	 2.200309	 0.136118	 0.488247
H	 0.733710	 0.800019	 -0.936072
H	 0.811185	 -0.933796	 -0.764304
C	 2.093497	 0.792298	 1.864193
H	 2.656216	 -0.846330	 0.590075
H	 2.868009	 0.720377	 -0.140550
H	 1.458381	 0.212294	 2.527725
H	 1.670677	 1.789911	 1.790469
H	 3.068583	 0.879690	 2.332804
H	 -3.277823	 0.863061	 -0.908988
H	 -1.806773	 1.843019	 -0.759671
H	 -2.802853	 1.554979	 0.648059

	symmetry c1
}
set optking {
	frozen_dihedral = ("
		11 8 5 9
	")
}

ee = optimize('scf')
oeprop('DIPOLE', 'QUADRUPOLE', 'MULLIKEN_CHARGES')
f=open( 'psi4out.xyz', 'w' )
f.write( "19  " )
f.write( str(ee) + "\n" )
f.write( MOL.save_string_xyz() )
f.close()
--------------------------------------------------------------------------

    Molecular point group: c1
  Charge       = 0
  Multiplicity = 1
  Basis Set: 6-31G*
  Basis Set:
  @DF-RHF Final Energy:  -309.05459605083490
    Total Energy =                       -309.0545960508348458
    Molecular point group: c1
  Basis Set: 6-31G*
  Basis Set:
  Basis Set: 6-31G*
  Basis Set:
  @DF-RHF Final Energy:  -309.05522684138822
    Total Energy =                       -309.0552268413885031
  Basis Set: 6-31G*
  Basis Set:
  Basis Set: 6-31G*
  Basis Set:
  @DF-RHF Final Energy:  -309.05773014018411
    Total Energy =                       -309.0577301401843897
  Basis Set: 6-31G*
  Basis Set:
  Basis Set: 6-31G*
  Basis Set:
  @DF-RHF Final Energy:  -309.05790193528406
    Total Energy =                       -309.0579019352840078
  Basis Set: 6-31G*
  Basis Set:
  @DF-RHF Final Energy:  -309.05796596499619
    Total Energy =                       -309.0579659649961286
  @DF-RHF Final Energy:  -309.05804716167978
    Total Energy =                       -309.0580471616802356
  @DF-RHF Final Energy:  -309.05805430531512
    Total Energy =                       -309.0580543053150677
  Basis Set: 6-31G*
  Basis Set:
  @DF-RHF Final Energy:  -309.05805301906804
    Total Energy =                       -309.0580530190678701
  Basis Set: 6-31G*
  Basis Set:
  Basis Set: 6-31G*
  Basis Set:
  @DF-RHF Final Energy:  -309.05805276721327
    Total Energy =                       -309.0580527672132689
  Basis Set: 6-31G*
  Basis Set:
  Basis Set: 6-31G*
  Basis Set:
  @DF-RHF Final Energy:  -309.05805463566514
    Total Energy =                       -309.0580546356650871
  Basis Set: 6-31G*
  Basis Set:
  Charge       = 0
  Multiplicity = 1
  Basis Set: 6-31G*
  Basis Set:

    Orbital Energies (a.u.)
    -----------------------

    Doubly Occupied:

       1A    -20.547565     2A    -11.324681     3A    -11.230568
       4A    -11.229455     5A    -11.228268     6A    -11.225172
       7A    -11.216405     8A     -1.393378     9A     -1.088745
      10A     -1.026990    11A     -0.981544    12A     -0.903174
      13A     -0.795470    14A     -0.734188    15A     -0.659743
      16A     -0.652271    17A     -0.619859    18A     -0.604692
      19A     -0.590456    20A     -0.568706    21A     -0.553431
      22A     -0.543095    23A     -0.523032    24A     -0.500597
      25A     -0.480044    26A     -0.467717    27A     -0.459519
      28A     -0.397650

  @DF-RHF Final Energy:  -309.05805467345704

   => Energetics <=

    Nuclear Repulsion Energy =            304.8866933499789411
    One-Electron Energy =               -1022.7966671370554650
    Two-Electron Energy =                 408.8519191136193740
    DFT Exchange-Correlation Energy =       0.0000000000000000
    Empirical Dispersion Energy =           0.0000000000000000
    PCM Polarization Energy =               0.0000000000000000
    EFP Energy =                            0.0000000000000000
    Total Energy =                       -309.0580546734571499
    Molecular point group: c1
  Basis Set: 6-31G*
  Basis Set:

  -Total Gradient:
     Atom            X                  Y                   Z
    ------   -----------------  -----------------  -----------------
       1        0.000005497552    -0.000001293251    -0.000001934460
       2       -0.000005046494     0.000008352005    -0.000011482940
       3       -0.000001422539     0.000005832424     0.000000726905
       4       -0.000015347250    -0.000009213130     0.000016659312
       5       -0.003031784463     0.002598764108     0.005934219006
       6        0.000001393293    -0.000004192787     0.000000361521
       7       -0.000001681082    -0.000000377586     0.000004631195
       8        0.001464174983     0.004798016066    -0.003687581258
       9        0.002224934843    -0.003503819455    -0.004130602695
      10       -0.000001257452     0.000001491182     0.000003416880
      11       -0.000651797626    -0.003900789380     0.001881189801
      12        0.000001708375     0.000000558505    -0.000002345704
      13       -0.000000106019     0.000003740671     0.000000360652
      14       -0.000002861209     0.000001234099     0.000000470638
      15        0.000002080051    -0.000000272088     0.000000047937
      16       -0.000000332481    -0.000001866766     0.000000752878
      17        0.000001449112     0.000000452972    -0.000001542309
      18        0.000005964629    -0.000000043562    -0.000003909161
      19        0.000004433778     0.000003425975    -0.000003438197

  **** Optimization is complete! (in 11 steps) ****
    Final optimized geometry and variables:
    Molecular point group: c1

    Geometry (in Angstrom), charge = 0, multiplicity = 1:

    O           -1.837529858744    -1.351122833716    -0.694320929322
    C           -1.490608256486    -0.265476621502    -0.340741022603
    C           -0.208309231720    -0.074099154104     0.450626455759
    C           -2.292295537717     0.972694063112    -0.676514172252
    C            1.000210232370    -0.051599801734    -0.498009686623
    H           -0.259014184564     0.840269775608     1.031889369709
    H           -0.121236204844    -0.909375825293     1.136502002349
    C            2.390542799721     0.039426720405     0.173434769526
    H            0.896571823636     0.745786597479    -1.230713086908
    H            0.967301890650    -0.965041616120    -1.083402519564
    C            2.439764579269     0.697195224511     1.554431930945
    H            2.787769141844    -0.966840667219     0.276543654140
    H            3.066961746453     0.559339656118    -0.497751863932
    H            1.856506709770     0.146009607399     2.283645882837
    H            2.068583514000     1.718323884581     1.533109470061
    H            3.463235967422     0.731089499545     1.914200732066
    H           -3.092658913881     0.721119003686    -1.358338738460
    H           -1.657970368858     1.736231738938    -1.116971561207
    H           -2.713403396724     1.391515912803     0.233718217871

  Mulliken Charges: (a.u.)
   Center  Symbol    Alpha    Beta     Spin     Total
       1     O     4.26208  4.26208  0.00000 -0.52416
       2     C     2.73698  2.73698  0.00000  0.52604
       3     C     3.20211  3.20211  0.00000 -0.40422
       4     C     3.28950  3.28950  0.00000 -0.57900
       5     C     3.16717  3.16717  0.00000 -0.33434
       6     H     0.41422  0.41422  0.00000  0.17156
       7     H     0.40092  0.40092  0.00000  0.19817
       8     C     3.15336  3.15336  0.00000 -0.30673
       9     H     0.41962  0.41962  0.00000  0.16076
      10     H     0.40420  0.40420  0.00000  0.19160
      11     C     3.24428  3.24428  0.00000 -0.48855
      12     H     0.41753  0.41753  0.00000  0.16494
      13     H     0.41738  0.41738  0.00000  0.16523
      14     H     0.41864  0.41864  0.00000  0.16272
      15     H     0.42234  0.42234  0.00000  0.15533
      16     H     0.41624  0.41624  0.00000  0.16753
      17     H     0.39701  0.39701  0.00000  0.20598
      18     H     0.40970  0.40970  0.00000  0.18060
      19     H     0.40673  0.40673  0.00000  0.18654

   Total alpha = 28.00000, Total beta = 28.00000, Total charge =  0.00000
