                              Psi4 1.0.54 Driver

  ==> Input File <==

--------------------------------------------------------------------------
set {
	reference rhf
	basis cc-pvtz
}

set_num_threads( 4 )
memory 2 gb

molecule MOL {
0 1

H	 5.269878	 0.195679	 1.068175
C	 4.673900	 -0.208485	 0.258034
C	 3.190199	 -0.204714	 0.610086
H	 4.865136	 0.391893	 -0.624684
H	 5.027838	 -1.214511	 0.056939
C	 2.319208	 -0.778154	 -0.505491
H	 2.876954	 0.809861	 0.827925
H	 3.035335	 -0.782733	 1.518235
C	 1.743883	 -2.155739	 -0.192204
H	 1.505179	 -0.095813	 -0.716671
H	 2.911183	 -0.854569	 -1.412966
C	 0.643890	 -2.160549	 0.855878
H	 1.307242	 -2.585755	 -1.090089
H	 2.526803	 -2.844026	 0.112450
C	 0.301486	 -3.487956	 1.504045
O	 0.055059	 -1.169749	 1.147202
C	 -0.253894	 -4.527813	 0.524957
H	 -0.422436	 -3.283699	 2.281255
H	 1.198176	 -3.880533	 1.976302
C	 -0.677435	 -5.817115	 1.223515
H	 -1.107926	 -4.105457	 0.002616
H	 0.488265	 -4.761839	 -0.231635
C	 -1.239092	 -6.858106	 0.261224
H	 -1.421145	 -5.585818	 1.980133
H	 0.175370	 -6.235342	 1.751136
H	 -2.112561	 -6.479304	 -0.258625
H	 -0.504812	 -7.137202	 -0.487106
H	 -1.532715	 -7.758641	 0.787659

	symmetry c1
}
set optking {
	frozen_dihedral = ("
		10 6 3 2
	")
}

ee,wfn = optimize('scf', return_wfn=True)
oeprop( wfn, 'DIPOLE', 'QUADRUPOLE', 'MULLIKEN_CHARGES')
f=open( 'psi4out.xyz', 'w' )
f.write( "28  " )
f.write( str(ee) + "\n" )
f.write( MOL.save_string_xyz() )
f.close()
--------------------------------------------------------------------------

    Molecular point group: c1
  Charge       = 0
  Multiplicity = 1
  Basis Set: CC-PVTZ
  Basis Set:
  @DF-RHF Final Energy:  -426.31444836314211
    Total Energy =                       -426.3144483631419916
    Molecular point group: c1
  Basis Set: CC-PVTZ
  Basis Set:
  Basis Set: CC-PVTZ
  Basis Set:
  @DF-RHF Final Energy:  -426.31474998607007
    Total Energy =                       -426.3147499860701828
  Basis Set: CC-PVTZ
  Basis Set:
  Basis Set: CC-PVTZ
  Basis Set:
  @DF-RHF Final Energy:  -426.31476426538438
    Total Energy =                       -426.3147642653849516
  Basis Set: CC-PVTZ
  Basis Set:
  Basis Set: CC-PVTZ
  Basis Set:
  @DF-RHF Final Energy:  -426.31476779588615
    Total Energy =                       -426.3147677958863824
  Basis Set: CC-PVTZ
  Basis Set:
  Basis Set: CC-PVTZ
  Basis Set:
  @DF-RHF Final Energy:  -426.31482457565426
    Total Energy =                       -426.3148245756535744
  Basis Set: CC-PVTZ
  Basis Set:
  Basis Set: CC-PVTZ
  Basis Set:
  @DF-RHF Final Energy:  -426.31483526561078
    Total Energy =                       -426.3148352656103270
  Basis Set: CC-PVTZ
  Basis Set:
  Basis Set: CC-PVTZ
  Basis Set:
  @DF-RHF Final Energy:  -426.31483634193194
    Total Energy =                       -426.3148363419319367
  Basis Set: CC-PVTZ
  Basis Set:
  Charge       = 0
  Multiplicity = 1
  Basis Set: CC-PVTZ
  Basis Set:

    Orbital Energies (a.u.)
    -----------------------

    Doubly Occupied:

       1A    -20.536721     2A    -11.316032     3A    -11.229768
       4A    -11.228604     5A    -11.226828     6A    -11.223752
       7A    -11.214274     8A    -11.214195     9A    -11.211235
      10A    -11.206836    11A     -1.396449    12A     -1.095873
      13A     -1.077502    14A     -1.023081    15A     -0.991657
      16A     -0.908889    17A     -0.875505    18A     -0.809426
      19A     -0.800871    20A     -0.722805    21A     -0.667108
      22A     -0.651636    23A     -0.641242    24A     -0.621477
      25A     -0.601715    26A     -0.595544    27A     -0.577921
      28A     -0.573395    29A     -0.541649    30A     -0.536660
      31A     -0.522307    32A     -0.508866    33A     -0.503799
      34A     -0.485369    35A     -0.480440    36A     -0.476403
      37A     -0.470698    38A     -0.459798    39A     -0.457756
      40A     -0.394511

  @DF-RHF Final Energy:  -426.31483705748610

   => Energetics <=

    Nuclear Repulsion Energy =            533.0889385129501079
    One-Electron Energy =               -1634.6503492468023069
    Two-Electron Energy =                 675.2465736763663244
    DFT Exchange-Correlation Energy =       0.0000000000000000
    Empirical Dispersion Energy =           0.0000000000000000
    PCM Polarization Energy =               0.0000000000000000
    EFP Energy =                            0.0000000000000000
    Total Energy =                       -426.3148370574858745
    Molecular point group: c1
  Basis Set: CC-PVTZ
  Basis Set:

  -Total Gradient:
     Atom            X                  Y                   Z
    ------   -----------------  -----------------  -----------------
       1        0.000002302556    -0.000003991758     0.000005082570
       2       -0.000161516311     0.001357820767    -0.000640870033
       3        0.000538315267    -0.001664807004     0.000553024744
       4        0.000002401592     0.000007789893    -0.000000639435
       5        0.000000232955    -0.000003013399    -0.000008306780
       6       -0.001526261195    -0.000654390905     0.001551607764
       7        0.000005850336     0.000001747924    -0.000012020100
       8       -0.000006118772     0.000015419513     0.000005974241
       9        0.000005799818    -0.000011122661    -0.000008610336
      10        0.001177661315     0.000953083513    -0.001445352394
      11       -0.000002346087     0.000008186740    -0.000000863266
      12        0.000014326936     0.000003050068     0.000020518123
      13       -0.000014580156     0.000023035448    -0.000009789590
      14       -0.000007556354    -0.000026183068    -0.000016551399
      15       -0.000004889360     0.000002189245    -0.000002712978
      16       -0.000037586728    -0.000013444735    -0.000001733755
      17        0.000019621344    -0.000008653926     0.000005355192
      18       -0.000009195330    -0.000002579034    -0.000005729730
      19        0.000005491766     0.000014883631     0.000014316102
      20       -0.000001374116     0.000001839303     0.000000263300
      21       -0.000001030490     0.000001336457    -0.000003941313
      22        0.000000567086    -0.000002160775    -0.000000456825
      23        0.000001534368     0.000000545742    -0.000000308647
      24       -0.000001533330     0.000000725296     0.000001268134
      25        0.000001138791    -0.000000762642     0.000001731053
      26       -0.000002166462     0.000000674809    -0.000000795766
      27        0.000000763288    -0.000000327999    -0.000001422363
      28        0.000000147279    -0.000000890439     0.000000963488

  **** Optimization is complete! (in 8 steps) ****
    Final optimized geometry and variables:
    Molecular point group: c1

    Geometry (in Angstrom), charge = 0, multiplicity = 1:

    H            4.149015637714     3.041842989163     0.546402470580
    C            3.579866709253     2.610559963993    -0.269370534551
    C            2.087664541322     2.583771065160     0.050624019419
    H            3.775187219545     3.200578788055    -1.158411755680
    H            3.965644869576     1.611291176923    -0.448104424149
    C            1.236050019536     1.951076538620    -1.068031106281
    H            1.750938375255     3.597807843891     0.229449552606
    H            1.927872118499     2.055777333789     0.984309197614
    C            0.702564415133     0.561373804039    -0.738886650455
    H            0.407347158911     2.599110886409    -1.317331685612
    H            1.836449085736     1.871823609074    -1.968865827172
    C           -0.387268386264     0.544836230630     0.319016653913
    H            0.277503277627     0.104888956157    -1.629000765698
    H            1.505350232452    -0.100208553560    -0.424867980826
    C           -0.749353028557    -0.794583073329     0.931540131252
    O           -0.950194532252     1.538261048058     0.649485904450
    C           -1.353382010327    -1.787847921410    -0.066970262714
    H           -1.451081432349    -0.597122031722     1.730553415443
    H            0.146102357513    -1.225604784433     1.371378877936
    C           -1.802409049865    -3.084373455047     0.601551643660
    H           -2.203809785068    -1.325209749124    -0.560187466076
    H           -0.632547035327    -2.021122296710    -0.844062122880
    C           -2.407075027085    -4.081474046013    -0.380875242337
    H           -2.528082744764    -2.854420046632     1.375870483730
    H           -0.953896735128    -3.540873587793     1.103749881569
    H           -3.277817434245    -3.664388569855    -0.875357200391
    H           -1.692363235632    -4.358306541446    -1.148730350824
    H           -2.716958825684    -4.988699688627     0.124312471474

  Mulliken Charges: (a.u.)
   Center  Symbol    Alpha    Beta     Spin     Total
       1     H     0.44887  0.44887  0.00000  0.10227
       2     C     3.14733  3.14733  0.00000 -0.29467
       3     C     3.08669  3.08669  0.00000 -0.17338
       4     H     0.45415  0.45415  0.00000  0.09170
       5     H     0.45833  0.45833  0.00000  0.08335
       6     C     3.09373  3.09373  0.00000 -0.18746
       7     H     0.44511  0.44511  0.00000  0.10978
       8     H     0.45459  0.45459  0.00000  0.09081
       9     C     3.12985  3.12985  0.00000 -0.25970
      10     H     0.43948  0.43948  0.00000  0.12104
      11     H     0.44968  0.44968  0.00000  0.10065
      12     C     2.86660  2.86660  0.00000  0.26680
      13     H     0.43426  0.43426  0.00000  0.13149
      14     H     0.44195  0.44195  0.00000  0.11610
      15     C     3.09157  3.09157  0.00000 -0.18314
      16     O     4.17754  4.17754  0.00000 -0.35508
      17     C     3.10132  3.10132  0.00000 -0.20263
      18     H     0.43779  0.43779  0.00000  0.12443
      19     H     0.44960  0.44960  0.00000  0.10080
      20     C     3.08717  3.08717  0.00000 -0.17434
      21     H     0.44561  0.44561  0.00000  0.10879
      22     H     0.45068  0.45068  0.00000  0.09864
      23     C     3.14921  3.14921  0.00000 -0.29842
      24     H     0.44980  0.44980  0.00000  0.10040
      25     H     0.45366  0.45366  0.00000  0.09268
      26     H     0.45341  0.45341  0.00000  0.09317
      27     H     0.45522  0.45522  0.00000  0.08956
      28     H     0.44681  0.44681  0.00000  0.10639

   Total alpha = 40.00000, Total beta = 40.00000, Total charge = -0.00000

*** Psi4 exiting successfully. Buy a developer a beer!
