  ==> Input File <==

--------------------------------------------------------------------------
set {
	reference rhf
	basis 6-31G*
}

set_num_threads( 4 )
memory 2 gb

molecule MOL {
0 1

H	 -3.261111	 -0.295142	 1.469456
C	 -3.306842	 -0.277400	 0.373456
C	 -2.660244	 0.921717	 -0.272021
O	 -3.838538	 -1.161155	 -0.216482
C	 -1.220012	 1.144545	 0.209990
H	 -2.705793	 0.797307	 -1.347733
H	 -3.263782	 1.790044	 -0.010477
C	 -0.252658	 0.041456	 -0.226725
H	 -0.873521	 2.100229	 -0.171974
H	 -1.211708	 1.231594	 1.295398
C	 1.180775	 0.282413	 0.250794
H	 -0.266029	 -0.034465	 -1.312038
H	 -0.597733	 -0.921000	 0.146291
C	 2.148627	 -0.814315	 -0.201312
H	 1.516199	 1.249228	 -0.115937
H	 1.192670	 0.346017	 1.338083
C	 3.580890	 -0.659131	 0.322722
H	 2.166869	 -0.852443	 -1.289387
H	 1.762857	 -1.776509	 0.128956
C	 4.214864	 0.705004	 0.045532
H	 4.198327	 -1.428846	 -0.133632
H	 3.595929	 -0.854089	 1.393089
H	 4.198911	 0.934058	 -1.016800
H	 3.699079	 1.505995	 0.564523
H	 5.250687	 0.721337	 0.370798

	symmetry c1
}
set optking {
	frozen_dihedral = ("
		20 17 14 18
	")
}

ee = optimize('scf')
oeprop('DIPOLE', 'QUADRUPOLE', 'MULLIKEN_CHARGES')
f=open( 'psi4out.xyz', 'w' )
f.write( "25  " )
f.write( str(ee) + "\n" )
f.write( MOL.save_string_xyz() )
f.close()
--------------------------------------------------------------------------

    Molecular point group: c1
  Charge       = 0
  Multiplicity = 1
  Basis Set: 6-31G*
  Basis Set:
  @DF-RHF Final Energy:  -387.12134881144681
    Total Energy =                       -387.1213488114467509
    Molecular point group: c1
  Basis Set: 6-31G*
  Basis Set:
  Basis Set: 6-31G*
  Basis Set:
  @DF-RHF Final Energy:  -387.12102892325163
    Total Energy =                       -387.1210289232518562
  Basis Set: 6-31G*
  Basis Set:
  Basis Set: 6-31G*
  Basis Set:
  @DF-RHF Final Energy:  -387.11990398886553
    Total Energy =                       -387.1199039888653033
  Basis Set: 6-31G*
  Basis Set:
  Basis Set: 6-31G*
  Basis Set:
  @DF-RHF Final Energy:  -387.12136212326908
    Total Energy =                       -387.1213621232692503
  Basis Set: 6-31G*
  Basis Set:
  @DF-RHF Final Energy:  -387.12144451372166
    Total Energy =                       -387.1214445137213715
  Basis Set: 6-31G*
  Basis Set:
  @DF-RHF Final Energy:  -387.12150326397955
    Total Energy =                       -387.1215032639790934
  Basis Set: 6-31G*
  Basis Set:
  Basis Set: 6-31G*
  Basis Set:
  @DF-RHF Final Energy:  -387.12144138508592
    Total Energy =                       -387.1214413850864275
  Basis Set: 6-31G*
  Basis Set:
  Basis Set: 6-31G*
  Basis Set:
  @DF-RHF Final Energy:  -387.12151045770349
    Total Energy =                       -387.1215104577039483
  Basis Set: 6-31G*
  Basis Set:
  Charge       = 0
  Multiplicity = 1
  Basis Set: 6-31G*
  Basis Set:

    Orbital Energies (a.u.)
    -----------------------

    Doubly Occupied:

       1A    -20.562044     2A    -11.326204     3A    -11.235410
       4A    -11.234726     5A    -11.224068     6A    -11.220098
       7A    -11.218123     8A    -11.216992     9A    -11.210659
      10A     -1.401986    11A     -1.104095    12A     -1.069618
      13A     -1.013135    14A     -0.942373    15A     -0.876774
      16A     -0.821697    17A     -0.788029    18A     -0.778921
      19A     -0.664667    20A     -0.662121    21A     -0.634148
      22A     -0.625350    23A     -0.600990    24A     -0.594033
      25A     -0.575842    26A     -0.550198    27A     -0.536262
      28A     -0.524394    29A     -0.509607    30A     -0.494990
      31A     -0.491865    32A     -0.479590    33A     -0.461317
      34A     -0.459738    35A     -0.442137    36A     -0.409580

  @DF-RHF Final Energy:  -387.12151035262019

   => Energetics <=

    Nuclear Repulsion Energy =            439.6124848388066653
    One-Electron Energy =               -1395.5444279992311749
    Two-Electron Energy =                 568.8104328078045455
    DFT Exchange-Correlation Energy =       0.0000000000000000
    Empirical Dispersion Energy =           0.0000000000000000
    PCM Polarization Energy =               0.0000000000000000
    EFP Energy =                            0.0000000000000000
    Total Energy =                       -387.1215103526199073
    Molecular point group: c1
  Basis Set: 6-31G*
  Basis Set:

  -Total Gradient:
     Atom            X                  Y                   Z
    ------   -----------------  -----------------  -----------------
       1        0.000004365347    -0.000018185754     0.000000625307
       2       -0.000023102454     0.000018023793    -0.000011088021
       3        0.000031945258     0.000012935008    -0.000023460726
       4        0.000009968031    -0.000013103169     0.000013868460
       5        0.000000503707     0.000015184094    -0.000018662888
       6       -0.000004954613     0.000009745421    -0.000003905568
       7       -0.000002411278    -0.000005344055     0.000008415529
       8       -0.000008264818    -0.000024721179     0.000024411581
       9        0.000006831627    -0.000000540212     0.000004575765
      10       -0.000006890598     0.000004364380     0.000003507639
      11       -0.000007934345    -0.000008836340    -0.000008375624
      12       -0.000004757460    -0.000011153205     0.000005332733
      13       -0.000006227707     0.000003157982     0.000010378555
      14       -0.000524918040     0.003500183301     0.000581577112
      15       -0.000010119184    -0.000003224036     0.000005337973
      16        0.000005597758    -0.000011353005     0.000006603052
      17        0.001051006633    -0.001548713470    -0.002366796268
      18        0.000202244475    -0.002581777852     0.000077105415
      19        0.000000786133     0.000011198490     0.000013065056
      20       -0.000714651557     0.000662462539     0.001681507314
      21        0.000004076367    -0.000015092142    -0.000001942275
      22       -0.000002843169     0.000017411394    -0.000008822569
      23       -0.000007569132    -0.000011593887     0.000003968157
      24        0.000008958822     0.000010602876     0.000002097856
      25       -0.000001639797    -0.000011630973     0.000000676435

  **** Optimization is complete! (in 9 steps) ****
    Final optimized geometry and variables:
    Molecular point group: c1

    Geometry (in Angstrom), charge = 0, multiplicity = 1:

    H           -3.246090770137    -0.306229319499     1.457877343262
    C           -3.294949551451    -0.303554218939     0.361777046361
    C           -2.660213497955     0.892277638745    -0.301523748756
    O           -3.826025615734    -1.196946114693    -0.214114429968
    C           -1.218385179117     1.129972967007     0.168715730267
    H           -2.711481973574     0.754873619033    -1.375450379357
    H           -3.267827270392     1.759601571641    -0.046471146736
    C           -0.245976596092     0.029361237153    -0.263080361636
    H           -0.881058736002     2.084518601355    -0.224612053376
    H           -1.203729213825     1.227541838227     1.253019204087
    C            1.190388821289     0.289641491266     0.195195518312
    H           -0.269727557464    -0.060428075351    -1.347207259000
    H           -0.578685968763    -0.931164193774     0.125794028976
    C            2.162725262504    -0.799416782814    -0.262286069842
    H            1.510772750135     1.257401688257    -0.181607800931
    H            1.214371939572     0.360433160176     1.281969926289
    C            3.589211901794    -0.675571590998     0.287903793766
    H            2.196803294491    -0.832221681998    -1.350098213218
    H            1.769132480032    -1.767063406393     0.043489142250
    C            4.264283224965     0.673726659749     0.034963422125
    H            4.194874559787    -1.465973989528    -0.147545142634
    H            3.572636264482    -0.862884272546     1.359844381465
    H            4.263078604400     0.923910261533    -1.022926045266
    H            3.768734335679     1.479086653247     0.566298556706
    H            5.297835267621     0.652952674357     0.366445723543

  Mulliken Charges: (a.u.)
   Center  Symbol    Alpha    Beta     Spin     Total
       1     H     0.43262  0.43262  0.00000  0.13477
       2     C     2.83084  2.83084  0.00000  0.33832
       3     C     3.20816  3.20816  0.00000 -0.41632
       4     O     4.23775  4.23775  0.00000 -0.47550
       5     C     3.16658  3.16658  0.00000 -0.33315
       6     H     0.39969  0.39969  0.00000  0.20062
       7     H     0.40661  0.40661  0.00000  0.18678
       8     C     3.15485  3.15485  0.00000 -0.30970
       9     H     0.41285  0.41285  0.00000  0.17429
      10     H     0.41964  0.41964  0.00000  0.16073
      11     C     3.15484  3.15484  0.00000 -0.30967
      12     H     0.41795  0.41795  0.00000  0.16410
      13     H     0.41832  0.41832  0.00000  0.16336
      14     C     3.15327  3.15327  0.00000 -0.30654
      15     H     0.42010  0.42010  0.00000  0.15980
      16     H     0.42379  0.42379  0.00000  0.15242
      17     C     3.15189  3.15189  0.00000 -0.30378
      18     H     0.42277  0.42277  0.00000  0.15446
      19     H     0.42100  0.42100  0.00000  0.15800
      20     C     3.24225  3.24225  0.00000 -0.48450
      21     H     0.41986  0.41986  0.00000  0.16029
      22     H     0.42336  0.42336  0.00000  0.15328
      23     H     0.42229  0.42229  0.00000  0.15542
      24     H     0.42010  0.42010  0.00000  0.15981
      25     H     0.41864  0.41864  0.00000  0.16272

   Total alpha = 36.00000, Total beta = 36.00000, Total charge = -0.00000
