  ==> Input File <==

--------------------------------------------------------------------------
set {
	reference rhf
	basis cc-pvtz
}

set_num_threads( 4 )
memory 2 gb

molecule MOL {
0 1

H	 3.459101	 0.139266	 -0.762951
C	 2.749156	 -0.051729	 0.031265
C	 1.322304	 0.099773	 -0.484271
H	 2.929445	 -1.053887	 0.403481
H	 2.954281	 0.646699	 0.834672
C	 0.308557	 -0.162619	 0.622645
H	 1.143368	 -0.594400	 -1.295960
H	 1.169532	 1.100095	 -0.870217
N	 -1.069352	 -0.004081	 0.085342
H	 0.371632	 -1.172932	 0.991288
H	 0.400391	 0.548875	 1.426218
O	 -1.388334	 -0.714667	 -0.807908
O	 -1.745770	 0.841715	 0.567036

	symmetry c1
}
set optking {
	frozen_dihedral = ("
		12 9 6 3
	")
}

ee = optimize('scf')
oeprop('DIPOLE', 'QUADRUPOLE', 'MULLIKEN_CHARGES')
f=open( 'psi4out.xyz', 'w' )
f.write( "13  " )
f.write( str(ee) + "\n" )
f.write( MOL.save_string_xyz() )
f.close()
--------------------------------------------------------------------------

    Molecular point group: c1
  Charge       = 0
  Multiplicity = 1
  Basis Set: CC-PVTZ
  Basis Set:
  @DF-RHF Final Energy:  -321.86104892163576
    Total Energy =                       -321.8610489216356996
    Molecular point group: c1
  Basis Set: CC-PVTZ
  Basis Set:
  Basis Set: CC-PVTZ
  Basis Set:
  @DF-RHF Final Energy:  -321.85692452505691
    Total Energy =                       -321.8569245250565132
  Basis Set: CC-PVTZ
  Basis Set:
  Basis Set: CC-PVTZ
  Basis Set:
  @DF-RHF Final Energy:  -321.86110417361010
    Total Energy =                       -321.8611041736099310
  Basis Set: CC-PVTZ
  Basis Set:
  Basis Set: CC-PVTZ
  Basis Set:
  @DF-RHF Final Energy:  -321.86125438992633
    Total Energy =                       -321.8612543899262164
  Basis Set: CC-PVTZ
  Basis Set:
  Basis Set: CC-PVTZ
  Basis Set:
  @DF-RHF Final Energy:  -321.86125658069778
    Total Energy =                       -321.8612565806973862
  Basis Set: CC-PVTZ
  Basis Set:
  Charge       = 0
  Multiplicity = 1
  Basis Set: CC-PVTZ
  Basis Set:

    Orbital Energies (a.u.)
    -----------------------

    Doubly Occupied:

       1A    -20.592515     2A    -20.588999     3A    -15.837414
       4A    -11.297740     5A    -11.251931     6A    -11.236438
       7A     -1.636445     8A     -1.420653     9A     -1.133305
      10A     -1.027572    11A     -0.884357    12A     -0.832297
      13A     -0.762705    14A     -0.741301    15A     -0.728897
      16A     -0.669662    17A     -0.604697    18A     -0.585581
      19A     -0.551296    20A     -0.521704    21A     -0.511965
      22A     -0.487659    23A     -0.474682    24A     -0.453806

  @DF-RHF Final Energy:  -321.86125738929928

   => Energetics <=

    Nuclear Repulsion Energy =            247.8464603142771807
    One-Electron Energy =                -929.7481929520354242
    Two-Electron Energy =                 360.0404752484591882
    DFT Exchange-Correlation Energy =       0.0000000000000000
    Empirical Dispersion Energy =           0.0000000000000000
    PCM Polarization Energy =               0.0000000000000000
    EFP Energy =                            0.0000000000000000
    Total Energy =                       -321.8612573892989985
    Molecular point group: c1
  Basis Set: CC-PVTZ
  Basis Set:

  -Total Gradient:
     Atom            X                  Y                   Z
    ------   -----------------  -----------------  -----------------
       1        0.000008671465     0.000000996339     0.000001630118
       2       -0.000004752880     0.000013207615    -0.000004886876
       3       -0.000001323103    -0.000361442835    -0.000090781946
       4       -0.000002356587     0.000000618231    -0.000003624297
       5        0.000001830231    -0.000004316169     0.000001025130
       6        0.000052383092     0.000602380596     0.000001853941
       7       -0.000007615733    -0.000004697898     0.000006995372
       8        0.000007091994     0.000000239441    -0.000005288320
       9       -0.000218649909    -0.000680904290     0.000357870699
      10        0.000003700666    -0.000004782287     0.000005724842
      11       -0.000007859071     0.000006948267    -0.000011334515
      12        0.000195753381     0.000380739260    -0.000296519007
      13       -0.000026873545     0.000051013732     0.000037334857

  **** Optimization is complete! (in 6 steps) ****
    Final optimized geometry and variables:
    Molecular point group: c1

    Geometry (in Angstrom), charge = 0, multiplicity = 1:

    H            3.476817617303     0.130979502658    -0.758024002099
    C            2.758584259077    -0.052377727547     0.030494886422
    C            1.336969588835     0.092654124810    -0.502242502436
    H            2.935114578825    -1.051404406169     0.413408613709
    H            2.956957516482     0.652463757584     0.830028421162
    C            0.316562808751    -0.158931680262     0.597672618040
    H            1.164529500170    -0.603897391829    -1.310333829357
    H            1.191056186859     1.091306718347    -0.898823469299
    N           -1.072850778042     0.000966171006     0.084599757826
    H            0.371667986251    -1.175042385091     0.959915805044
    H            0.410387069390     0.533495120473     1.416028124424
    O           -1.406158601459    -0.712737458419    -0.801688574324
    O           -1.752757010028     0.827507439906     0.592055705344

  Mulliken Charges: (a.u.)
   Center  Symbol    Alpha    Beta     Spin     Total
       1     H     0.44157  0.44157  0.00000  0.11686
       2     C     3.15133  3.15133  0.00000 -0.30265
       3     C     3.09617  3.09617  0.00000 -0.19234
       4     H     0.45206  0.45206  0.00000  0.09588
       5     H     0.45197  0.45197  0.00000  0.09606
       6     C     3.04011  3.04011  0.00000 -0.08023
       7     H     0.43359  0.43359  0.00000  0.13282
       8     H     0.44282  0.44282  0.00000  0.11435
       9     N     3.27683  3.27683  0.00000  0.44634
      10     H     0.43716  0.43716  0.00000  0.12569
      11     H     0.43267  0.43267  0.00000  0.13467
      12     O     4.17463  4.17463  0.00000 -0.34925
      13     O     4.16909  4.16909  0.00000 -0.33818

   Total alpha = 24.00000, Total beta = 24.00000, Total charge = -0.00000
