  ==> Input File <==

--------------------------------------------------------------------------
set {
	reference rhf
	basis cc-pvtz
}

set_num_threads( 4 )
memory 2 gb

molecule MOL {
0 1

H	 -2.246501	 -0.975351	 -1.009207
N	 -1.530434	 -0.280714	 -1.026526
C	 -0.561396	 -0.500007	 0.035200
H	 -1.977688	 0.606220	 -0.923337
C	 0.575129	 0.507849	 -0.048832
H	 -0.159713	 -1.500931	 -0.083210
H	 -1.004635	 -0.456762	 1.031234
C	 1.951750	 -0.141983	 0.035101
H	 0.478254	 1.061643	 -0.975981
H	 0.467676	 1.231891	 0.755499
H	 2.101550	 -0.848142	 -0.774949
H	 2.738260	 0.600794	 -0.026526
H	 2.078939	 -0.679792	 0.968824

	symmetry c1
}
set optking {
	frozen_dihedral = ("
		6 3 5 9
	")
}

ee = optimize('scf')
oeprop('DIPOLE', 'QUADRUPOLE', 'MULLIKEN_CHARGES')
f=open( 'psi4out.xyz', 'w' )
f.write( "13  " )
f.write( str(ee) + "\n" )
f.write( MOL.save_string_xyz() )
f.close()
--------------------------------------------------------------------------

    Molecular point group: c1
  Charge       = 0
  Multiplicity = 1
  Basis Set: CC-PVTZ
  Basis Set:
  @DF-RHF Final Energy:  -173.34681122483818
    Total Energy =                       -173.3468112248382340
    Molecular point group: c1
  Basis Set: CC-PVTZ
  Basis Set:
  Basis Set: CC-PVTZ
  Basis Set:
  @DF-RHF Final Energy:  -173.34709746241296
    Total Energy =                       -173.3470974624129894
  Basis Set: CC-PVTZ
  Basis Set:
  Basis Set: CC-PVTZ
  Basis Set:
  @DF-RHF Final Energy:  -173.34717537977662
    Total Energy =                       -173.3471753797767292
  Basis Set: CC-PVTZ
  Basis Set:
  Basis Set: CC-PVTZ
  Basis Set:
  @DF-RHF Final Energy:  -173.34717666916370
    Total Energy =                       -173.3471766691637583
  Basis Set: CC-PVTZ
  Basis Set:
  Charge       = 0
  Multiplicity = 1
  Basis Set: CC-PVTZ
  Basis Set:

    Orbital Energies (a.u.)
    -----------------------

    Doubly Occupied:

       1A    -15.527592     2A    -11.238311     3A    -11.210269
       4A    -11.206367     5A     -1.177874     6A     -1.033960
       7A     -0.898745     8A     -0.801427     9A     -0.653631
      10A     -0.641131    11A     -0.596836    12A     -0.567427
      13A     -0.533997    14A     -0.489273    15A     -0.475252
      16A     -0.468537    17A     -0.382889

  @DF-RHF Final Energy:  -173.34717695293037

   => Energetics <=

    Nuclear Repulsion Energy =            131.8673839002250077
    One-Electron Energy =                -494.6220872616117958
    Two-Electron Energy =                 189.4075264084564765
    DFT Exchange-Correlation Energy =       0.0000000000000000
    Empirical Dispersion Energy =           0.0000000000000000
    PCM Polarization Energy =               0.0000000000000000
    EFP Energy =                            0.0000000000000000
    Total Energy =                       -173.3471769529302833
    Molecular point group: c1
  Basis Set: CC-PVTZ
  Basis Set:

  -Total Gradient:
     Atom            X                  Y                   Z
    ------   -----------------  -----------------  -----------------
       1       -0.000033503573    -0.000017116386    -0.000012999123
       2        0.000045667832    -0.000022776254     0.000014465837
       3       -0.000858948545     0.000757052491    -0.003485068640
       4        0.000004813815     0.000007902025     0.000019133833
       5        0.002270712110    -0.002653217928    -0.001033596648
       6        0.000387800181    -0.000193938642     0.003062438706
       7       -0.000020117250     0.000009004689     0.000008372513
       8       -0.000009304239     0.000000633505    -0.000000319240
       9       -0.001763948381     0.002107962103     0.001411147360
      10       -0.000004170546    -0.000013515792     0.000007469569
      11       -0.000011133422     0.000014577500     0.000008849039
      12        0.000000328646     0.000003020134     0.000003902081
      13       -0.000008196627     0.000000412554    -0.000003795286

  **** Optimization is complete! (in 5 steps) ****
    Final optimized geometry and variables:
    Molecular point group: c1

    Geometry (in Angstrom), charge = 0, multiplicity = 1:

    H           -2.369513602341    -0.844353147710    -0.706847137226
    N           -1.630899865404    -0.175162616215    -0.765061856664
    C           -0.643998903090    -0.398795904531     0.280872540534
    H           -2.047977124024     0.727696780666    -0.670090628549
    C            0.507463027452     0.615693454240     0.199750211653
    H           -0.253279834624    -1.403698727809     0.168650199524
    H           -1.079807363760    -0.364077128574     1.279560029649
    C            1.889286258469    -0.019422115535     0.301538042461
    H            0.415893532071     1.165759210125    -0.729729104954
    H            0.397359176452     1.351328457418     0.991111723549
    H            2.059321029884    -0.709809760477    -0.517272401424
    H            2.669896604178     0.732056057037     0.272548415009
    H            1.998703031029    -0.572437161017     1.229051732864

  Mulliken Charges: (a.u.)
   Center  Symbol    Alpha    Beta     Spin     Total
       1     H     0.43043  0.43043  0.00000  0.13914
       2     N     3.68615  3.68615  0.00000 -0.37230
       3     C     3.02558  3.02558  0.00000 -0.05116
       4     H     0.43091  0.43091  0.00000  0.13818
       5     C     3.08373  3.08373  0.00000 -0.16747
       6     H     0.45968  0.45968  0.00000  0.08064
       7     H     0.46765  0.46765  0.00000  0.06470
       8     C     3.14924  3.14924  0.00000 -0.29847
       9     H     0.45169  0.45169  0.00000  0.09661
      10     H     0.45593  0.45593  0.00000  0.08814
      11     H     0.45239  0.45239  0.00000  0.09522
      12     H     0.45037  0.45037  0.00000  0.09925
      13     H     0.45624  0.45624  0.00000  0.08751

   Total alpha = 17.00000, Total beta = 17.00000, Total charge = -0.00000
