  ==> Input File <==

--------------------------------------------------------------------------
set {
	reference rhf
	basis 6-31G*
}

set_num_threads( 4 )
memory 2 gb

molecule MOL {
0 1

H	 -0.577014	 2.451761	 -1.751143
C	 0.169366	 2.238812	 -0.975725
C	 0.065331	 0.871482	 -0.349150
O	 0.982522	 3.056370	 -0.689204
C	 -1.339775	 0.583656	 0.198860
H	 0.817474	 0.793039	 0.427408
H	 0.304780	 0.143433	 -1.122952
C	 -1.808407	 -0.848507	 -0.061364
H	 -2.036183	 1.280685	 -0.256307
H	 -1.360094	 0.788874	 1.267089
H	 -1.828843	 -1.063152	 -1.125336
H	 -2.808409	 -1.004529	 0.329750
H	 -1.153967	 -1.577789	 0.406873

	symmetry c1
}
set optking {
	frozen_dihedral = ("
		6 3 5 9
	")
}

ee = optimize('scf')
oeprop('DIPOLE', 'QUADRUPOLE', 'MULLIKEN_CHARGES')
f=open( 'psi4out.xyz', 'w' )
f.write( "13  " )
f.write( str(ee) + "\n" )
f.write( MOL.save_string_xyz() )
f.close()
--------------------------------------------------------------------------

    Molecular point group: c1
  Charge       = 0
  Multiplicity = 1
  Basis Set: 6-31G*
  Basis Set:
  @DF-RHF Final Energy:  -230.98133982720137
    Total Energy =                       -230.9813398272011966
    Molecular point group: c1
  Basis Set: 6-31G*
  Basis Set:
  Basis Set: 6-31G*
  Basis Set:
  @DF-RHF Final Energy:  -230.98165640689703
    Total Energy =                       -230.9816564068968319
  Basis Set: 6-31G*
  Basis Set:
  Basis Set: 6-31G*
  Basis Set:
  @DF-RHF Final Energy:  -230.98131888458570
    Total Energy =                       -230.9813188845857894
  Basis Set: 6-31G*
  Basis Set:
  Basis Set: 6-31G*
  Basis Set:
  @DF-RHF Final Energy:  -230.98171629331665
    Total Energy =                       -230.9817162933167936
  Basis Set: 6-31G*
  Basis Set:
  Basis Set: 6-31G*
  Basis Set:
  @DF-RHF Final Energy:  -230.98172692731441
    Total Energy =                       -230.9817269273143552
  Basis Set: 6-31G*
  Basis Set:
  Basis Set: 6-31G*
  Basis Set:
  @DF-RHF Final Energy:  -230.98172979054053
    Total Energy =                       -230.9817297905404985
  Basis Set: 6-31G*
  Basis Set:
  Basis Set: 6-31G*
  Basis Set:
  @DF-RHF Final Energy:  -230.98173092759245
    Total Energy =                       -230.9817309275925084
  Basis Set: 6-31G*
  Basis Set:
  Charge       = 0
  Multiplicity = 1
  Basis Set: 6-31G*
  Basis Set:

    Orbital Energies (a.u.)
    -----------------------

    Doubly Occupied:

       1A    -20.563036     2A    -11.327183     3A    -11.239133
       4A    -11.235849     5A    -11.224550     6A     -1.403180
       7A     -1.085274     8A     -0.976762     9A     -0.842058
      10A     -0.794165    11A     -0.675440    12A     -0.644422
      13A     -0.620558    14A     -0.589255    15A     -0.570244
      16A     -0.525768    17A     -0.514681    18A     -0.489611
      19A     -0.483619    20A     -0.410679

  @DF-RHF Final Energy:  -230.98173105719940

   => Energetics <=

    Nuclear Repulsion Energy =            170.2671957239452354
    One-Electron Energy =                -650.0669220111560662
    Two-Electron Energy =                 248.8179952300113200
    DFT Exchange-Correlation Energy =       0.0000000000000000
    Empirical Dispersion Energy =           0.0000000000000000
    PCM Polarization Energy =               0.0000000000000000
    EFP Energy =                            0.0000000000000000
    Total Energy =                       -230.9817310571995108
    Molecular point group: c1
  Basis Set: 6-31G*
  Basis Set:

  -Total Gradient:
     Atom            X                  Y                   Z
    ------   -----------------  -----------------  -----------------
       1       -0.000001088511    -0.000002694158     0.000006422361
       2        0.000010714090     0.000007876511    -0.000007945357
       3        0.000643337953    -0.004037161832    -0.000283736634
       4        0.000005793464    -0.000010381462    -0.000003962347
       5       -0.000814514346    -0.002040898750    -0.003257399761
       6       -0.000417200205     0.003679266334     0.000768275059
       7        0.000015007690     0.000002755022    -0.000003380081
       8       -0.000003847837     0.000003560204     0.000002416506
       9        0.000564417858     0.002409833645     0.002778202078
      10       -0.000003325822    -0.000003708001     0.000003177431
      11       -0.000000135251    -0.000002718879    -0.000001899564
      12        0.000003296388    -0.000002288232    -0.000001232905
      13       -0.000002455474    -0.000003440399     0.000001063214

  **** Optimization is complete! (in 8 steps) ****
    Final optimized geometry and variables:
    Molecular point group: c1

    Geometry (in Angstrom), charge = 0, multiplicity = 1:

    H           -0.163639993183     1.315035242254    -1.367485357010
    C            0.570657006006     1.073240266801    -0.589356811630
    C            0.449652491551    -0.312440400097    -0.003763882653
    O            1.384497340967     1.875713280303    -0.265743212960
    C           -0.969750599166    -0.592258237786     0.533060337415
    H            1.195687957604    -0.390047453493     0.777252801166
    H            0.699264711066    -1.018374326305    -0.793895882586
    C           -1.427988310978    -2.033449573027     0.322144024931
    H           -1.682247035526     0.095276610517     0.081976682215
    H           -0.988396505688    -0.359003461794     1.593252655441
    H           -1.480756815722    -2.277108190572    -0.734914971864
    H           -2.411043255803    -2.196878818370     0.751269230040
    H           -0.741030529317    -2.732691130873     0.789497140949

  Mulliken Charges: (a.u.)
   Center  Symbol    Alpha    Beta     Spin     Total
       1     H     0.43215  0.43215  0.00000  0.13570
       2     C     2.83273  2.83273  0.00000  0.33453
       3     C     3.20823  3.20823  0.00000 -0.41646
       4     O     4.23666  4.23666  0.00000 -0.47331
       5     C     3.16641  3.16641  0.00000 -0.33281
       6     H     0.39728  0.39728  0.00000  0.20545
       7     H     0.40768  0.40768  0.00000  0.18464
       8     C     3.24023  3.24023  0.00000 -0.48045
       9     H     0.41680  0.41680  0.00000  0.16640
      10     H     0.40977  0.40977  0.00000  0.18046
      11     H     0.41973  0.41973  0.00000  0.16053
      12     H     0.41525  0.41525  0.00000  0.16950
      13     H     0.41709  0.41709  0.00000  0.16582

   Total alpha = 20.00000, Total beta = 20.00000, Total charge =  0.00000
