                              Psi4 1.0.54 Driver

  ==> Input File <==

--------------------------------------------------------------------------
set {
	reference rhf
	basis cc-pvtz
}

set_num_threads( 4 )
memory 2 gb

molecule MOL {
0 1

H	 -1.870890	 -1.580225	 0.090499
O	 -2.321472	 -0.864941	 -0.318626
C	 -2.021813	 0.336996	 0.342658
C	 -0.669613	 0.837286	 -0.127252
H	 -2.780861	 1.084746	 0.127159
H	 -2.006390	 0.184138	 1.420053
C	 0.490865	 -0.082543	 0.241244
H	 -0.708709	 0.967192	 -1.204587
H	 -0.507562	 1.822272	 0.303070
C	 1.839800	 0.429565	 -0.255472
H	 0.305636	 -1.070211	 -0.165276
H	 0.527397	 -0.195943	 1.322876
C	 3.001144	 -0.485193	 0.119072
H	 1.804373	 0.541073	 -1.335756
H	 2.020437	 1.423114	 0.146921
H	 2.866892	 -1.477297	 -0.298806
H	 3.943543	 -0.095749	 -0.249061
H	 3.085064	 -0.590459	 1.195790

	symmetry c1
}
set optking {
	frozen_dihedral = ("
		1 2 3 4
	")
}

ee,wfn = optimize('scf', return_wfn=True)
oeprop( wfn, 'DIPOLE', 'QUADRUPOLE', 'MULLIKEN_CHARGES')
f=open( 'psi4out.xyz', 'w' )
f.write( "18  " )
f.write( str(ee) + "\n" )
f.write( MOL.save_string_xyz() )
f.close()
--------------------------------------------------------------------------

    Molecular point group: c1
  Charge       = 0
  Multiplicity = 1
  Basis Set: CC-PVTZ
  Basis Set:
  @DF-RHF Final Energy:  -271.28447748047813
    Total Energy =                       -271.2844774804784151
    Molecular point group: c1
  Basis Set: CC-PVTZ
  Basis Set:
  Basis Set: CC-PVTZ
  Basis Set:
  @DF-RHF Final Energy:  -271.28573523841669
    Total Energy =                       -271.2857352384164642
  Basis Set: CC-PVTZ
  Basis Set:
  Basis Set: CC-PVTZ
  Basis Set:
  @DF-RHF Final Energy:  -271.28615178308871
    Total Energy =                       -271.2861517830887124
  Basis Set: CC-PVTZ
  Basis Set:
  Basis Set: CC-PVTZ
  Basis Set:
  @DF-RHF Final Energy:  -271.28616249788331
    Total Energy =                       -271.2861624978836517
  Basis Set: CC-PVTZ
  Basis Set:
  Basis Set: CC-PVTZ
  Basis Set:
  @DF-RHF Final Energy:  -271.28616474175874
    Total Energy =                       -271.2861647417587960
  Basis Set: CC-PVTZ
  Basis Set:
  Charge       = 0
  Multiplicity = 1
  Basis Set: CC-PVTZ
  Basis Set:

    Orbital Energies (a.u.)
    -----------------------

    Doubly Occupied:

       1A    -20.545706     2A    -11.265579     3A    -11.216669
       4A    -11.216045     5A    -11.212880     6A    -11.209071
       7A     -1.363519     8A     -1.082790     9A     -1.013108
      10A     -0.921695    11A     -0.828864    12A     -0.791690
      13A     -0.699544    14A     -0.647565    15A     -0.620928
      16A     -0.600112    17A     -0.576894    18A     -0.565524
      19A     -0.524695    20A     -0.512480    21A     -0.491458
      22A     -0.475562    23A     -0.468449    24A     -0.457516
      25A     -0.427698

  @DF-RHF Final Energy:  -271.28616501281942

   => Energetics <=

    Nuclear Repulsion Energy =            249.0141848085835079
    One-Electron Energy =                -861.1286165304269389
    Two-Electron Energy =                 340.8282667090240352
    DFT Exchange-Correlation Energy =       0.0000000000000000
    Empirical Dispersion Energy =           0.0000000000000000
    PCM Polarization Energy =               0.0000000000000000
    EFP Energy =                            0.0000000000000000
    Total Energy =                       -271.2861650128193673
    Molecular point group: c1
  Basis Set: CC-PVTZ
  Basis Set:

  -Total Gradient:
     Atom            X                  Y                   Z
    ------   -----------------  -----------------  -----------------
       1       -0.000396945390    -0.000015845773     0.000325786618
       2        0.000450694495     0.000136747210    -0.000510801528
       3        0.000105793702    -0.000261327091     0.000456454677
       4       -0.000173318499     0.000130445961    -0.000284582213
       5        0.000013728054    -0.000004303614    -0.000000668644
       6        0.000001888626     0.000003459143     0.000000166340
       7       -0.000004917276    -0.000023705158     0.000000646009
       8        0.000019266268     0.000014528732    -0.000012363589
       9       -0.000011886675    -0.000005648263    -0.000000620405
      10        0.000001757325     0.000022114340     0.000013564038
      11       -0.000003871126     0.000008399145     0.000008355896
      12        0.000008456514     0.000000674081     0.000010383593
      13       -0.000012768907    -0.000010861367    -0.000006246283
      14       -0.000000301731     0.000002247051     0.000004343186
      15        0.000005568721    -0.000002500748     0.000001373052
      16        0.000001490651     0.000000137267     0.000003593330
      17       -0.000003674016     0.000000325707    -0.000004771385
      18       -0.000000960742     0.000005113376    -0.000004612694

  **** Optimization is complete! (in 6 steps) ****
    Final optimized geometry and variables:
    Molecular point group: c1

    Geometry (in Angstrom), charge = 0, multiplicity = 1:

    H           -1.978962481381    -1.615257855152     0.157436896542
    O           -2.413624873241    -0.894852142761    -0.258819088263
    C           -2.025404519393     0.317070815085     0.333825629991
    C           -0.677221455890     0.820575387574    -0.158755097102
    H           -2.793937761196     1.034460034443     0.078549023595
    H           -2.018502992509     0.225317862210     1.417849351843
    C            0.499816472670    -0.075057790227     0.217570300793
    H           -0.723770481938     0.929271742330    -1.238054306001
    H           -0.519969833783     1.814997532613     0.252484272443
    C            1.844917906030     0.465735128936    -0.259668152054
    H            0.352352926769    -1.065688544572    -0.203941010694
    H            0.528381383067    -0.198330144955     1.298764285878
    C            3.018765604869    -0.434282162674     0.110823561403
    H            1.815392375166     0.594062050822    -1.337945933683
    H            2.002819406386     1.455197106617     0.160520874934
    H            2.907144902231    -1.421933423694    -0.324179628055
    H            3.956578362095    -0.021923090177    -0.243071203448
    H            3.095881492292    -0.554783655654     1.186394028270

  Mulliken Charges: (a.u.)
   Center  Symbol    Alpha    Beta     Spin     Total
       1     H     0.39197  0.39197  0.00000  0.21607
       2     O     4.20621  4.20621  0.00000 -0.41242
       3     C     2.98233  2.98233  0.00000  0.03533
       4     C     3.08481  3.08481  0.00000 -0.16961
       5     H     0.44867  0.44867  0.00000  0.10265
       6     H     0.46907  0.46907  0.00000  0.06186
       7     C     3.09867  3.09867  0.00000 -0.19734
       8     H     0.45156  0.45156  0.00000  0.09687
       9     H     0.45623  0.45623  0.00000  0.08754
      10     C     3.08337  3.08337  0.00000 -0.16674
      11     H     0.45623  0.45623  0.00000  0.08754
      12     H     0.45542  0.45542  0.00000  0.08916
      13     C     3.14985  3.14985  0.00000 -0.29971
      14     H     0.45272  0.45272  0.00000  0.09455
      15     H     0.45445  0.45445  0.00000  0.09111
      16     H     0.45507  0.45507  0.00000  0.08985
      17     H     0.44782  0.44782  0.00000  0.10436
      18     H     0.45553  0.45553  0.00000  0.08894

   Total alpha = 25.00000, Total beta = 25.00000, Total charge =  0.00000

*** Psi4 exiting successfully. Buy a developer a beer!
