                              Psi4 1.0.54 Driver

  ==> Input File <==

--------------------------------------------------------------------------
set {
	reference rhf
	basis cc-pvtz
}

set_num_threads( 4 )
memory 2 gb

molecule MOL {
0 1

H	 -2.975914	 0.561055	 3.359374
O	 -2.269648	 0.007731	 3.081496
C	 -1.665645	 0.536812	 1.930986
C	 -0.534228	 -0.381216	 1.514762
H	 -2.390982	 0.620218	 1.124324
H	 -1.279377	 1.534634	 2.128414
C	 0.196029	 0.106276	 0.266738
H	 -0.941278	 -1.372958	 1.344535
H	 0.160781	 -0.467944	 2.343832
C	 1.330220	 -0.826136	 -0.155230
H	 -0.517290	 0.211392	 -0.544953
H	 0.601617	 1.099234	 0.448712
C	 2.719700	 -0.407669	 0.328325
H	 1.339388	 -0.911200	 -1.239363
H	 1.119001	 -1.821953	 0.224128
C	 3.241564	 0.893452	 -0.276737
H	 3.418299	 -1.204729	 0.093035
H	 2.711776	 -0.323368	 1.411960
H	 3.254204	 0.841071	 -1.360784
H	 2.634460	 1.745075	 0.005842
H	 4.254264	 1.092401	 0.054971

	symmetry c1
}
set optking {
	frozen_dihedral = ("
		4 7 10 14
	")
}

ee,wfn = optimize('scf', return_wfn=True)
oeprop( wfn, 'DIPOLE', 'QUADRUPOLE', 'MULLIKEN_CHARGES')
f=open( 'psi4out.xyz', 'w' )
f.write( "21  " )
f.write( str(ee) + "\n" )
f.write( MOL.save_string_xyz() )
f.close()
--------------------------------------------------------------------------

    Molecular point group: c1
  Charge       = 0
  Multiplicity = 1
  Basis Set: CC-PVTZ
  Basis Set:
  @DF-RHF Final Energy:  -310.32855327471361
    Total Energy =                       -310.3285532747137268
    Molecular point group: c1
  Basis Set: CC-PVTZ
  Basis Set:
  Basis Set: CC-PVTZ
  Basis Set:
  @DF-RHF Final Energy:  -310.32853094073039
    Total Energy =                       -310.3285309407307295
  Basis Set: CC-PVTZ
  Basis Set:
  Basis Set: CC-PVTZ
  Basis Set:
  @DF-RHF Final Energy:  -310.32907571146319
    Total Energy =                       -310.3290757114634744
  Basis Set: CC-PVTZ
  Basis Set:
  Basis Set: CC-PVTZ
  Basis Set:
  @DF-RHF Final Energy:  -310.32912132145054
    Total Energy =                       -310.3291213214508275
  Basis Set: CC-PVTZ
  Basis Set:
  Basis Set: CC-PVTZ
  Basis Set:
  @DF-RHF Final Energy:  -310.32913164946518
    Total Energy =                       -310.3291316494651255
  Basis Set: CC-PVTZ
  Basis Set:
  Basis Set: CC-PVTZ
  Basis Set:
  @DF-RHF Final Energy:  -310.32913282380264
    Total Energy =                       -310.3291328238026949
  Basis Set: CC-PVTZ
  Basis Set:
  Charge       = 0
  Multiplicity = 1
  Basis Set: CC-PVTZ
  Basis Set:

    Orbital Energies (a.u.)
    -----------------------

    Doubly Occupied:

       1A    -20.545468     2A    -11.264906     3A    -11.213204
       4A    -11.213047     5A    -11.211029     6A    -11.209153
       7A    -11.205925     8A     -1.363300     9A     -1.086340
      10A     -1.033338    11A     -0.955061    12A     -0.875417
      13A     -0.813957    14A     -0.775083    15A     -0.695179
      16A     -0.660477    17A     -0.625326    18A     -0.612447
      19A     -0.575535    20A     -0.573464    21A     -0.547164
      22A     -0.524045    23A     -0.498369    24A     -0.494791
      25A     -0.482797    26A     -0.456047    27A     -0.451646
      28A     -0.446432    29A     -0.437442

  @DF-RHF Final Energy:  -310.32913297950370

   => Energetics <=

    Nuclear Repulsion Energy =            314.9943611347717933
    One-Electron Energy =               -1044.9542078668796421
    Two-Electron Energy =                 419.6307137526037536
    DFT Exchange-Correlation Energy =       0.0000000000000000
    Empirical Dispersion Energy =           0.0000000000000000
    PCM Polarization Energy =               0.0000000000000000
    EFP Energy =                            0.0000000000000000
    Total Energy =                       -310.3291329795040951
    Molecular point group: c1
  Basis Set: CC-PVTZ
  Basis Set:

  -Total Gradient:
     Atom            X                  Y                   Z
    ------   -----------------  -----------------  -----------------
       1       -0.000002774493     0.000001276851    -0.000001352894
       2        0.000002376059    -0.000001991809    -0.000001557401
       3       -0.000006043665    -0.000003236417     0.000001133361
       4       -0.001317374546    -0.001108500725    -0.001260253706
       5       -0.000003971506     0.000000845949     0.000000099765
       6        0.000004522522     0.000000654060    -0.000000506186
       7        0.001425661695     0.000978781575     0.001766712796
       8       -0.000000383331    -0.000003501408     0.000001049443
       9        0.000002118464     0.000002277143    -0.000000793011
      10        0.001605907586     0.002527845313    -0.000600729827
      11        0.000001040117    -0.000000350575     0.000006429551
      12       -0.000004885262     0.000000960071     0.000002333262
      13        0.000002880163    -0.000002601994    -0.000024475954
      14       -0.001709912545    -0.002383839613     0.000093303585
      15        0.000009261697    -0.000004395850     0.000002572092
      16       -0.000012243938    -0.000005906123     0.000021591273
      17       -0.000003441311     0.000004157044     0.000001614300
      18        0.000004069887     0.000012723017    -0.000022764958
      19       -0.000008281568    -0.000014532866     0.000012478204
      20       -0.000000137683     0.000000195382    -0.000002209237
      21        0.000011611657    -0.000000859025     0.000005325542

  **** Optimization is complete! (in 7 steps) ****
    Final optimized geometry and variables:
    Molecular point group: c1

    Geometry (in Angstrom), charge = 0, multiplicity = 1:

    H           -3.325987582305     0.370419438247     2.458806241614
    O           -2.625398994654    -0.162363814064     2.131042048344
    C           -2.036319228128     0.448168139451     1.013599860775
    C           -0.915206222631    -0.439772026960     0.513513787571
    H           -2.773118579916     0.592842354186     0.226051369289
    H           -1.643347312775     1.427701684586     1.277920762541
    C           -0.217881010720     0.123986718964    -0.722573639242
    H           -1.325062694285    -1.418765880077     0.288314970147
    H           -0.202044441526    -0.578928869774     1.320255930916
    C            0.961840494149    -0.743031681588    -1.196659358622
    H           -0.948431867463     0.206816699665    -1.521676733750
    H            0.119005993127     1.136065457380    -0.521995719773
    C            2.334906549928    -0.294760958608    -0.691290509797
    H            0.972145677070    -0.792440892373    -2.281205567070
    H            0.789526145154    -1.763629273965    -0.868283686752
    C            2.866243670266     0.969404348022    -1.362112058077
    H            3.046252763581    -1.098172087192    -0.855298821268
    H            2.292470395410    -0.145013285415     0.384275612406
    H            2.970018910720     0.823781719801    -2.432353995838
    H            2.210552162746     1.818511165862    -1.208437526826
    H            3.840912831654     1.235671306869    -0.969146089349

  Mulliken Charges: (a.u.)
   Center  Symbol    Alpha    Beta     Spin     Total
       1     H     0.39741  0.39741  0.00000  0.20518
       2     O     4.19486  4.19486  0.00000 -0.38972
       3     C     2.96402  2.96402  0.00000  0.07196
       4     C     3.08335  3.08335  0.00000 -0.16669
       5     H     0.47471  0.47471  0.00000  0.05058
       6     H     0.47455  0.47455  0.00000  0.05091
       7     C     3.10954  3.10954  0.00000 -0.21908
       8     H     0.45019  0.45019  0.00000  0.09961
       9     H     0.45087  0.45087  0.00000  0.09825
      10     C     3.10359  3.10359  0.00000 -0.20718
      11     H     0.44851  0.44851  0.00000  0.10299
      12     H     0.45412  0.45412  0.00000  0.09177
      13     C     3.08921  3.08921  0.00000 -0.17843
      14     H     0.44669  0.44669  0.00000  0.10661
      15     H     0.44917  0.44917  0.00000  0.10166
      16     C     3.14893  3.14893  0.00000 -0.29787
      17     H     0.44846  0.44846  0.00000  0.10308
      18     H     0.45369  0.45369  0.00000  0.09262
      19     H     0.45494  0.45494  0.00000  0.09012
      20     H     0.45530  0.45530  0.00000  0.08939
      21     H     0.44788  0.44788  0.00000  0.10423

   Total alpha = 29.00000, Total beta = 29.00000, Total charge = -0.00000

*** Psi4 exiting successfully. Buy a developer a beer!
