  ==> Input File <==

--------------------------------------------------------------------------
set {
	reference rhf
	basis cc-pvtz
}

set_num_threads( 4 )
memory 2 gb

molecule MOL {
0 1

H	 2.190573	 -0.629143	 -0.208718
O	 1.355408	 -0.529451	 0.208662
C	 0.700177	 0.619554	 -0.266242
C	 -0.713111	 0.588314	 0.266177
H	 0.678680	 0.627133	 -1.351786
H	 1.199747	 1.521489	 0.077736
O	 -1.421673	 -0.521378	 -0.196983
H	 -1.244794	 1.469161	 -0.069059
H	 -0.685100	 0.604721	 1.352683
H	 -1.945637	 -0.857836	 0.508908

	symmetry c1
}
set optking {
	frozen_dihedral = ("
		10 7 4 3
	")
}

ee = optimize('scf')
oeprop('DIPOLE', 'QUADRUPOLE', 'MULLIKEN_CHARGES')
f=open( 'psi4out.xyz', 'w' )
f.write( "10  " )
f.write( str(ee) + "\n" )
f.write( MOL.save_string_xyz() )
f.close()
--------------------------------------------------------------------------

    Molecular point group: c1
  Charge       = 0
  Multiplicity = 1
  Basis Set: CC-PVTZ
  Basis Set:
  @DF-RHF Final Energy:  -229.02241717855873
    Total Energy =                       -229.0224171785586691
    Molecular point group: c1
  Basis Set: CC-PVTZ
  Basis Set:
  Basis Set: CC-PVTZ
  Basis Set:
  @DF-RHF Final Energy:  -229.02388987886710
    Total Energy =                       -229.0238898788670383
  Basis Set: CC-PVTZ
  Basis Set:
  Basis Set: CC-PVTZ
  Basis Set:
  @DF-RHF Final Energy:  -229.02405073661149
    Total Energy =                       -229.0240507366115423
  Basis Set: CC-PVTZ
  Basis Set:
  Basis Set: CC-PVTZ
  Basis Set:
  @DF-RHF Final Energy:  -229.02407766319033
    Total Energy =                       -229.0240776631902122
  Basis Set: CC-PVTZ
  Basis Set:
  Basis Set: CC-PVTZ
  Basis Set:
  @DF-RHF Final Energy:  -229.02408132237872
    Total Energy =                       -229.0240813223787200
  Basis Set: CC-PVTZ
  Basis Set:
  Basis Set: CC-PVTZ
  Basis Set:
  @DF-RHF Final Energy:  -229.02408304500048
    Total Energy =                       -229.0240830450003955
  Basis Set: CC-PVTZ
  Basis Set:
  Charge       = 0
  Multiplicity = 1
  Basis Set: CC-PVTZ
  Basis Set:

    Orbital Energies (a.u.)
    -----------------------

    Doubly Occupied:

       1A    -20.547050     2A    -20.544976     3A    -11.268216
       4A    -11.267362     5A     -1.375088     6A     -1.354984
       7A     -1.003688     8A     -0.833230     9A     -0.721611
      10A     -0.706546    11A     -0.619382    12A     -0.597536
      13A     -0.593604    14A     -0.528655    15A     -0.476898
      16A     -0.448122    17A     -0.440111

  @DF-RHF Final Energy:  -229.02408340865401

   => Energetics <=

    Nuclear Repulsion Energy =            133.4937329129253953
    One-Electron Energy =                -578.3815168891793519
    Two-Electron Energy =                 215.8637005676000342
    DFT Exchange-Correlation Energy =       0.0000000000000000
    Empirical Dispersion Energy =           0.0000000000000000
    PCM Polarization Energy =               0.0000000000000000
    EFP Energy =                            0.0000000000000000
    Total Energy =                       -229.0240834086539223
    Molecular point group: c1
  Basis Set: CC-PVTZ
  Basis Set:

  -Total Gradient:
     Atom            X                  Y                   Z
    ------   -----------------  -----------------  -----------------
       1        0.000006997924     0.000007821117    -0.000004325183
       2       -0.000004660784    -0.000029353914     0.000031022436
       3       -0.000023618858     0.000067968286    -0.000071946096
       4        0.000027984252     0.000039543323     0.000076152930
       5       -0.000001607831    -0.000006611161     0.000006906322
       6        0.000006542706    -0.000016798020     0.000002658533
       7        0.000024328384    -0.000069663438    -0.000028138969
       8       -0.000000006025    -0.000020059879    -0.000000160549
       9        0.000001615595    -0.000007300110    -0.000006311654
      10       -0.000037575364     0.000034453796    -0.000005857770

  **** Optimization is complete! (in 7 steps) ****
    Final optimized geometry and variables:
    Molecular point group: c1

    Geometry (in Angstrom), charge = 0, multiplicity = 1:

    H            2.212896439289    -0.640360670901    -0.208660141707
    O            1.422386639696    -0.491214075082     0.275366128260
    C            0.697424952595     0.563390652634    -0.292312029190
    C           -0.701427382355     0.560389618271     0.272058173250
    H            0.638558560733     0.462787294981    -1.371875790699
    H            1.165864874132     1.518417398322    -0.063743637914
    O           -1.433561712127    -0.504926328071    -0.267851727171
    H           -1.182177317547     1.502919270229     0.023748826963
    H           -0.639730250316     0.488276576566     1.352709930062
    H           -1.970399551788    -0.903227953656     0.389721007802

  Mulliken Charges: (a.u.)
   Center  Symbol    Alpha    Beta     Spin     Total
       1     H     0.39370  0.39370  0.00000  0.21260
       2     O     4.19826  4.19826  0.00000 -0.39652
       3     C     2.95861  2.95861  0.00000  0.08277
       4     C     2.96421  2.96421  0.00000  0.07159
       5     H     0.47136  0.47136  0.00000  0.05727
       6     H     0.47823  0.47823  0.00000  0.04354
       7     O     4.20159  4.20159  0.00000 -0.40317
       8     H     0.47378  0.47378  0.00000  0.05244
       9     H     0.46994  0.46994  0.00000  0.06013
      10     H     0.39032  0.39032  0.00000  0.21935

   Total alpha = 17.00000, Total beta = 17.00000, Total charge =  0.00000
