  ==> Input File <==

--------------------------------------------------------------------------
set {
	reference rhf
	basis 6-31G*
}

set_num_threads( 1 )
memory 2 gb

molecule MOL {
0 1

H	 -4.208896	 0.121468	 -0.719659
C	 -3.391192	 -0.114969	 -0.066882
C	 -2.234704	 -0.477729	 -0.571800
H	 -3.544699	 -0.047007	 0.993649
O	 -1.180634	 -0.819263	 0.215062
H	 -2.058395	 -0.545052	 -1.630846
C	 0.051604	 -1.018856	 -0.387932
C	 1.043764	 0.054862	 -0.001873
H	 -0.017620	 -1.041351	 -1.469781
H	 0.437898	 -1.966374	 -0.042284
F	 2.212596	 -0.199467	 -0.571921
F	 0.652529	 1.252447	 -0.405055
F	 1.230877	 0.110694	 1.300533

	symmetry c1
}
set optking {
	frozen_dihedral = ("
		11 8 7 9,
		6 3 2 1,
		6 3 5 7
	")
}

ee = energy('scf')
oeprop('DIPOLE', 'QUADRUPOLE', 'MULLIKEN_CHARGES')
f=open( 'psi4out.xyz', 'w' )
f.write( "13  " )
f.write( str(ee) + "\n" )
f.write( MOL.save_string_xyz() )
f.close()
--------------------------------------------------------------------------

    Molecular point group: c1

    Geometry (in Angstrom), charge = 0, multiplicity = 1:

       Center              X                  Y                   Z               Mass
    ------------   -----------------  -----------------  -----------------  -----------------
           H         -4.170030570796     0.226062225977    -0.674857894356     1.007825032070
           C         -3.352326570796    -0.010374774023    -0.022080894356    12.000000000000
           C         -2.195838570796    -0.373134774023    -0.526998894356    12.000000000000
           H         -3.505833570796     0.057587225977     1.038450105644     1.007825032070
           O         -1.141768570796    -0.714668774023     0.259863105644    15.994914619560
           H         -2.019529570796    -0.440457774023    -1.586044894356     1.007825032070
           C          0.090469429204    -0.914261774023    -0.343130894356    12.000000000000
           C          1.082629429204     0.159456225977     0.042928105644    12.000000000000
           H          0.021245429204    -0.936756774023    -1.424979894356     1.007825032070
           H          0.476763429204    -1.861779774023     0.002517105644     1.007825032070
           F          2.251461429204    -0.094872774023    -0.527119894356    18.998403224000
           F          0.691394429204     1.357041225977    -0.360253894356    18.998403224000
           F          1.269742429204     0.215288225977     1.345334105644    18.998403224000

  Charge       = 0
  Multiplicity = 1
  Basis Set: 6-31G*
  Basis Set:

    Orbital Energies (a.u.)
    -----------------------

    Doubly Occupied:

       1A    -26.344057     2A    -26.339758     3A    -26.339535
       4A    -20.608807     5A    -11.502825     6A    -11.318748
       7A    -11.301787     8A    -11.216935     9A     -1.739926
      10A     -1.638480    11A     -1.635846    12A     -1.438585
      13A     -1.085418    14A     -1.016347    15A     -0.923848
      16A     -0.836408    17A     -0.829269    18A     -0.813140
      19A     -0.799928    20A     -0.719547    21A     -0.711297
      22A     -0.695934    23A     -0.676708    24A     -0.658802
      25A     -0.652939    26A     -0.641180    27A     -0.637322
      28A     -0.578156    29A     -0.563272    30A     -0.525256
      31A     -0.518073    32A     -0.352092

  @DF-RHF Final Energy:  -527.53448146557889

   => Energetics <=

    Nuclear Repulsion Energy =            409.5287911655885296
    One-Electron Energy =               -1542.8061092397838365
    Two-Electron Energy =                 605.7428366086168126
    DFT Exchange-Correlation Energy =       0.0000000000000000
    Empirical Dispersion Energy =           0.0000000000000000
    PCM Polarization Energy =               0.0000000000000000
    EFP Energy =                            0.0000000000000000
    Total Energy =                       -527.5344814655785513

  Mulliken Charges: (a.u.)
   Center  Symbol    Alpha    Beta     Spin     Total
       1     H     0.40716  0.40716  0.00000  0.18569
       2     C     3.23579  3.23579  0.00000 -0.47158
       3     C     2.89609  2.89609  0.00000  0.20783
       4     H     0.40097  0.40097  0.00000  0.19806
       5     O     4.30214  4.30214  0.00000 -0.60428
       6     H     0.40742  0.40742  0.00000  0.18515
       7     C     3.05649  3.05649  0.00000 -0.11298
       8     C     2.45465  2.45465  0.00000  1.09069
       9     H     0.40663  0.40663  0.00000  0.18673
      10     H     0.39568  0.39568  0.00000  0.20863
      11     F     4.68281  4.68281  0.00000 -0.36563
      12     F     4.67921  4.67921  0.00000 -0.35841
      13     F     4.67496  4.67496  0.00000 -0.34991

   Total alpha = 32.00000, Total beta = 32.00000, Total charge = -0.00000
