  ==> Input File <==

--------------------------------------------------------------------------
set {
	reference rhf
	basis cc-pvtz
}

set_num_threads( 4 )
memory 2 gb

molecule MOL {
0 1

H	 2.194984	 -0.895416	 -0.559596
O	 2.063695	 -0.083403	 -0.105237
C	 0.742924	 0.005675	 0.350750
H	 0.731380	 0.039219	 1.440080
C	 -0.064076	 -1.193495	 -0.124425
C	 -0.047832	 1.190568	 -0.194462
H	 0.194729	 -1.376165	 -1.161308
H	 0.163013	 -2.094508	 0.429933
C	 -1.533112	 -0.752002	 0.006102
H	 0.148003	 1.266545	 -1.259275
H	 0.226235	 2.136493	 0.259722
C	 -1.506634	 0.799189	 0.067162
H	 -2.124360	 -1.110499	 -0.826089
H	 -1.983103	 -1.158030	 0.903403
H	 -2.183808	 1.252169	 -0.644677
H	 -1.813926	 1.138698	 1.049457

	symmetry c1
}
set optking {
	frozen_dihedral = ("
		1 2 3 6
	")
}

ee = optimize('scf')
oeprop('DIPOLE', 'QUADRUPOLE', 'MULLIKEN_CHARGES')
f=open( 'psi4out.xyz', 'w' )
f.write( "16  " )
f.write( str(ee) + "\n" )
f.write( MOL.save_string_xyz() )
f.close()
--------------------------------------------------------------------------

    Molecular point group: c1
  Charge       = 0
  Multiplicity = 1
  Basis Set: CC-PVTZ
  Basis Set:
  @DF-RHF Final Energy:  -270.11319427710146
    Total Energy =                       -270.1131942771016270
    Molecular point group: c1
  Basis Set: CC-PVTZ
  Basis Set:
  Basis Set: CC-PVTZ
  Basis Set:
  @DF-RHF Final Energy:  -270.11452540530769
    Total Energy =                       -270.1145254053076314
  Basis Set: CC-PVTZ
  Basis Set:
  Basis Set: CC-PVTZ
  Basis Set:
  @DF-RHF Final Energy:  -270.11470463390640
    Total Energy =                       -270.1147046339065128
  Basis Set: CC-PVTZ
  Basis Set:
  Basis Set: CC-PVTZ
  Basis Set:
  @DF-RHF Final Energy:  -270.11470947184864
    Total Energy =                       -270.1147094718483572
  Basis Set: CC-PVTZ
  Basis Set:
  Charge       = 0
  Multiplicity = 1
  Basis Set: CC-PVTZ
  Basis Set:

    Orbital Energies (a.u.)
    -----------------------

    Doubly Occupied:

       1A    -20.543352     2A    -11.267292     3A    -11.218740
       4A    -11.218134     5A    -11.214997     6A    -11.206977
       7A     -1.363887     8A     -1.117245     9A     -0.969986
      10A     -0.950086    11A     -0.800569    12A     -0.782899
      13A     -0.683409    14A     -0.667120    15A     -0.610837
      16A     -0.602570    17A     -0.577110    18A     -0.533703
      19A     -0.503341    20A     -0.485000    21A     -0.473512
      22A     -0.459313    23A     -0.449133    24A     -0.421636

  @DF-RHF Final Energy:  -270.11470993775151

   => Energetics <=

    Nuclear Repulsion Energy =            255.5821951280061057
    One-Electron Energy =                -873.1521107115866016
    Two-Electron Energy =                 347.4552056458292100
    DFT Exchange-Correlation Energy =       0.0000000000000000
    Empirical Dispersion Energy =           0.0000000000000000
    PCM Polarization Energy =               0.0000000000000000
    EFP Energy =                            0.0000000000000000
    Total Energy =                       -270.1147099377512859
    Molecular point group: c1
  Basis Set: CC-PVTZ
  Basis Set:

  -Total Gradient:
     Atom            X                  Y                   Z
    ------   -----------------  -----------------  -----------------
       1       -0.000039120500     0.000035899108    -0.000077002916
       2        0.000002581611    -0.000066535647     0.000079344060
       3        0.000031427022     0.000092835841     0.000078145965
       4        0.000004150582     0.000000680040     0.000006776867
       5        0.000029481618     0.000038725296    -0.000035198516
       6       -0.000003504855    -0.000050948332    -0.000082651821
       7       -0.000005419490    -0.000018201492     0.000000855720
       8        0.000003183224     0.000026478149    -0.000002199911
       9       -0.000020795385     0.000009959390     0.000008402261
      10        0.000021870643    -0.000005650422    -0.000004995881
      11        0.000014667467    -0.000010332948     0.000002095781
      12       -0.000002829960    -0.000025121235     0.000018681640
      13       -0.000014372405    -0.000002124454    -0.000010257797
      14       -0.000014301501     0.000000202960    -0.000006664743
      15        0.000002805591    -0.000018225275     0.000011405355
      16       -0.000009823663    -0.000007640977     0.000013263935

  **** Optimization is complete! (in 5 steps) ****
    Final optimized geometry and variables:
    Molecular point group: c1

    Geometry (in Angstrom), charge = 0, multiplicity = 1:

    H            2.282779150473    -0.788812483263    -0.539809379625
    O            2.087271569516    -0.009889168985    -0.054456304675
    C            0.743180578896    -0.001568946530     0.344489624489
    H            0.723039178151     0.034878354667     1.431247155492
    C           -0.081233494991    -1.195044817853    -0.128736882691
    C           -0.035343898678     1.186996105553    -0.202862166563
    H            0.151999463104    -1.381082837167    -1.174447693806
    H            0.136113165021    -2.102898109809     0.420884437341
    C           -1.543948909086    -0.736693810160     0.016084845529
    H            0.153085675358     1.257163500498    -1.269685391288
    H            0.261135486423     2.126969480790     0.244283772527
    C           -1.496000183260     0.814270261552     0.073176805307
    H           -2.147541082938    -1.091428372602    -0.808811669986
    H           -1.986257208097    -1.137618591245     0.919136815554
    H           -2.175799642883     1.272392511936    -0.632715405692
    H           -1.789772417930     1.158211133802     1.057869377170

  Mulliken Charges: (a.u.)
   Center  Symbol    Alpha    Beta     Spin     Total
       1     H     0.39109  0.39109  0.00000  0.21782
       2     O     4.20857  4.20857  0.00000 -0.41713
       3     C     2.92422  2.92422  0.00000  0.15157
       4     H     0.45699  0.45699  0.00000  0.08602
       5     C     3.11861  3.11861  0.00000 -0.23721
       6     C     3.08989  3.08989  0.00000 -0.17977
       7     H     0.45817  0.45817  0.00000  0.08366
       8     H     0.44102  0.44102  0.00000  0.11796
       9     C     3.10925  3.10925  0.00000 -0.21850
      10     H     0.45865  0.45865  0.00000  0.08269
      11     H     0.44423  0.44423  0.00000  0.11154
      12     C     3.11471  3.11471  0.00000 -0.22943
      13     H     0.44504  0.44504  0.00000  0.10992
      14     H     0.44670  0.44670  0.00000  0.10659
      15     H     0.44333  0.44333  0.00000  0.11334
      16     H     0.44953  0.44953  0.00000  0.10094

   Total alpha = 24.00000, Total beta = 24.00000, Total charge =  0.00000
