                              Psi4 1.0.54 Driver

  ==> Input File <==

--------------------------------------------------------------------------
set {
	reference rhf
	basis cc-pvtz
}

set_num_threads( 4 )
memory 2 gb

molecule MOL {
0 1

H	 -2.171709	 0.882708	 0.500286
C	 -2.016894	 0.001719	 -0.114152
O	 -0.775228	 0.000056	 -0.739966
H	 -2.760846	 0.003757	 -0.898169
H	 -2.174774	 -0.879864	 0.498643
C	 -0.578762	 -0.761361	 -1.915094
C	 0.878346	 -0.502087	 -2.281833
C	 -0.790393	 -2.252805	 -1.647802
C	 -1.492763	 -0.280426	 -3.043765
H	 1.528044	 -0.817753	 -1.475389
H	 1.038630	 0.555479	 -2.449068
H	 1.154428	 -1.040844	 -3.180437
H	 -0.189230	 -2.572764	 -0.805247
H	 -0.497498	 -2.832334	 -2.515125
H	 -1.826599	 -2.485954	 -1.436897
H	 -1.386329	 0.788516	 -3.184215
H	 -1.230342	 -0.773900	 -3.971933
H	 -2.534825	 -0.497250	 -2.844612

	symmetry c1
}
set optking {
	frozen_dihedral = ("
		6 3 2 5
	")
}

ee,wfn = optimize('scf', return_wfn=True)
oeprop( wfn, 'DIPOLE', 'QUADRUPOLE', 'MULLIKEN_CHARGES')
f=open( 'psi4out.xyz', 'w' )
f.write( "18  " )
f.write( str(ee) + "\n" )
f.write( MOL.save_string_xyz() )
f.close()
--------------------------------------------------------------------------

    Molecular point group: c1
  Charge       = 0
  Multiplicity = 1
  Basis Set: CC-PVTZ
  Basis Set:
  @DF-RHF Final Energy:  -271.27339480962456
    Total Energy =                       -271.2733948096243921
    Molecular point group: c1
  Basis Set: CC-PVTZ
  Basis Set:
  Basis Set: CC-PVTZ
  Basis Set:
  @DF-RHF Final Energy:  -271.27516971868425
    Total Energy =                       -271.2751697186843103
  Basis Set: CC-PVTZ
  Basis Set:
  Basis Set: CC-PVTZ
  Basis Set:
  @DF-RHF Final Energy:  -271.27638485223190
    Total Energy =                       -271.2763848522317858
  Basis Set: CC-PVTZ
  Basis Set:
  Basis Set: CC-PVTZ
  Basis Set:
  @DF-RHF Final Energy:  -271.27641359406442
    Total Energy =                       -271.2764135940645929
  Basis Set: CC-PVTZ
  Basis Set:
  Basis Set: CC-PVTZ
  Basis Set:
  @DF-RHF Final Energy:  -271.27641836466950
    Total Energy =                       -271.2764183646696665
  Basis Set: CC-PVTZ
  Basis Set:
  Basis Set: CC-PVTZ
  Basis Set:
  @DF-RHF Final Energy:  -271.27642205724948
    Total Energy =                       -271.2764220572494196
  Basis Set: CC-PVTZ
  Basis Set:
  Basis Set: CC-PVTZ
  Basis Set:
  @DF-RHF Final Energy:  -271.27642369771871
    Total Energy =                       -271.2764236977185419
  Basis Set: CC-PVTZ
  Basis Set:
  Charge       = 0
  Multiplicity = 1
  Basis Set: CC-PVTZ
  Basis Set:

    Orbital Energies (a.u.)
    -----------------------

    Doubly Occupied:

       1A    -20.540139     2A    -11.280184     3A    -11.258323
       4A    -11.207920     5A    -11.206281     6A    -11.201828
       7A     -1.373251     8A     -1.074505     9A     -0.947074
      10A     -0.940552    11A     -0.913270    12A     -0.753552
      13A     -0.656565    14A     -0.646866    15A     -0.639850
      16A     -0.592595    17A     -0.574431    18A     -0.553288
      19A     -0.535519    20A     -0.525148    21A     -0.515261
      22A     -0.490037    23A     -0.487692    24A     -0.440755
      25A     -0.406574

  @DF-RHF Final Energy:  -271.27642403459606

   => Energetics <=

    Nuclear Repulsion Energy =            272.6988972885586691
    One-Electron Energy =                -908.4277242268610735
    Two-Electron Energy =                 364.4524029037067976
    DFT Exchange-Correlation Energy =       0.0000000000000000
    Empirical Dispersion Energy =           0.0000000000000000
    PCM Polarization Energy =               0.0000000000000000
    EFP Energy =                            0.0000000000000000
    Total Energy =                       -271.2764240345956068
    Molecular point group: c1
  Basis Set: CC-PVTZ
  Basis Set:

  -Total Gradient:
     Atom            X                  Y                   Z
    ------   -----------------  -----------------  -----------------
       1        0.000011265671    -0.000010529081    -0.000010370964
       2       -0.000918239328    -0.000739638408    -0.001448596562
       3        0.000842606869    -0.000755857825     0.001263265477
       4        0.000027233627     0.000010775056     0.000036356992
       5        0.000520743074     0.000835604003     0.000847737232
       6       -0.000507096158     0.000693161188    -0.000647822296
       7       -0.000028445155    -0.000007262305     0.000010336069
       8        0.000026144995    -0.000029668759    -0.000025323517
       9        0.000025271945    -0.000008654937    -0.000001920610
      10       -0.000017614491     0.000001133012    -0.000009179112
      11       -0.000007947597    -0.000011901803     0.000007801511
      12       -0.000010540386     0.000009686152     0.000012959659
      13       -0.000002013875     0.000015350639    -0.000023944277
      14       -0.000009127078    -0.000014240834     0.000004147079
      15        0.000016448808     0.000018959928    -0.000000022268
      16        0.000007175258     0.000008645680    -0.000006653795
      17        0.000013920412    -0.000007274178     0.000002316724
      18        0.000010213409    -0.000008287527    -0.000011087341

  **** Optimization is complete! (in 8 steps) ****
    Final optimized geometry and variables:
    Molecular point group: c1

    Geometry (in Angstrom), charge = 0, multiplicity = 1:

    H           -1.186740048765     1.678084335063     2.028175421744
    C           -1.119451659893     0.729672888088     1.513137480860
    O            0.045299332537     0.761647483866     0.752658753704
    H           -2.014335767977     0.609386094176     0.913232294260
    H           -1.092251345772    -0.056123933761     2.261975814252
    C            0.216092794326    -0.156218302676    -0.309395727488
    C            1.657013950377     0.058968147196    -0.758609085772
    C            0.026619079820    -1.597471369133     0.165827160504
    C           -0.738444656392     0.165762264423    -1.461094710076
    H            2.338393277361    -0.152367769027     0.055680668673
    H            1.803097792152     1.087989736589    -1.061565253834
    H            1.903710752971    -0.586018415214    -1.593597160187
    H            0.673608653879    -1.805501548718     1.009634377247
    H            0.273610197996    -2.289235901097    -0.630464346483
    H           -0.996169094571    -1.793762012821     0.463604154087
    H           -0.628694266789     1.201660390275    -1.757533566407
    H           -0.517364037135    -0.460374421794    -2.317490665685
    H           -1.773856182147    -0.004668934752    -1.194481952271

  Mulliken Charges: (a.u.)
   Center  Symbol    Alpha    Beta     Spin     Total
       1     H     0.44278  0.44278  0.00000  0.11444
       2     C     3.04514  3.04514  0.00000 -0.09028
       3     O     4.19093  4.19093  0.00000 -0.38186
       4     H     0.46955  0.46955  0.00000  0.06091
       5     H     0.46556  0.46556  0.00000  0.06887
       6     C     2.87599  2.87599  0.00000  0.24802
       7     C     3.14179  3.14179  0.00000 -0.28357
       8     C     3.16631  3.16631  0.00000 -0.33261
       9     C     3.15958  3.15958  0.00000 -0.31915
      10     H     0.44946  0.44946  0.00000  0.10109
      11     H     0.44835  0.44835  0.00000  0.10331
      12     H     0.45929  0.45929  0.00000  0.08142
      13     H     0.44526  0.44526  0.00000  0.10948
      14     H     0.44671  0.44671  0.00000  0.10658
      15     H     0.44826  0.44826  0.00000  0.10348
      16     H     0.44627  0.44627  0.00000  0.10746
      17     H     0.44983  0.44983  0.00000  0.10033
      18     H     0.44896  0.44896  0.00000  0.10209

   Total alpha = 25.00000, Total beta = 25.00000, Total charge =  0.00000

*** Psi4 exiting successfully. Buy a developer a beer!
