                              Psi4 1.0.54 Driver

  ==> Input File <==

--------------------------------------------------------------------------
set {
	reference rhf
	basis cc-pvtz
}

set_num_threads( 4 )
memory 2 gb

molecule MOL {
0 1

O	 -2.374409	 1.338660	 -0.336961
C	 -2.104891	 0.204655	 -0.107126
C	 -0.881910	 -0.448129	 -0.720509
C	 -2.949910	 -0.638219	 0.818225
C	 -1.155916	 -0.881662	 -2.166127
H	 -0.638324	 -1.316072	 -0.120965
H	 -0.038183	 0.233232	 -0.693377
C	 0.054048	 -1.557306	 -2.807998
H	 -2.007358	 -1.550445	 -2.164482
H	 -1.438366	 -0.016407	 -2.760984
C	 -0.143408	 -1.958892	 -4.270752
H	 0.320958	 -2.436900	 -2.227437
H	 0.903796	 -0.882961	 -2.746432
C	 -1.182312	 -3.054665	 -4.496229
H	 0.810559	 -2.297457	 -4.662706
H	 -0.413285	 -1.080143	 -4.850665
H	 -0.940430	 -3.943958	 -3.923308
H	 -1.220600	 -3.336805	 -5.542031
H	 -2.177297	 -2.737312	 -4.208876
H	 -3.440322	 -1.417144	 0.243099
H	 -3.694377	 -0.025850	 1.303346
H	 -2.331085	 -1.129829	 1.560495

	symmetry c1
}
set optking {
	frozen_dihedral = ("
		6 3 2 1
	")
}

ee,wfn = optimize('scf', return_wfn=True)
oeprop( wfn, 'DIPOLE', 'QUADRUPOLE', 'MULLIKEN_CHARGES')
f=open( 'psi4out.xyz', 'w' )
f.write( "22  " )
f.write( str(ee) + "\n" )
f.write( MOL.save_string_xyz() )
f.close()
--------------------------------------------------------------------------

    Molecular point group: c1
  Charge       = 0
  Multiplicity = 1
  Basis Set: CC-PVTZ
  Basis Set:
  @DF-RHF Final Energy:  -348.22231939838821
    Total Energy =                       -348.2223193983880947
    Molecular point group: c1
  Basis Set: CC-PVTZ
  Basis Set:
  Basis Set: CC-PVTZ
  Basis Set:
  @DF-RHF Final Energy:  -348.22149562486720
    Total Energy =                       -348.2214956248668614
  Basis Set: CC-PVTZ
  Basis Set:
  Basis Set: CC-PVTZ
  Basis Set:
  @DF-RHF Final Energy:  -348.22295137334555
    Total Energy =                       -348.2229513733449835
  Basis Set: CC-PVTZ
  Basis Set:
  Basis Set: CC-PVTZ
  Basis Set:
  @DF-RHF Final Energy:  -348.22334718491186
    Total Energy =                       -348.2233471849121997
  Basis Set: CC-PVTZ
  Basis Set:
  Basis Set: CC-PVTZ
  Basis Set:
  @DF-RHF Final Energy:  -348.22331137653526
    Total Energy =                       -348.2233113765349231
  Basis Set: CC-PVTZ
  Basis Set:
  Basis Set: CC-PVTZ
  Basis Set:
  @DF-RHF Final Energy:  -348.22342255527383
    Total Energy =                       -348.2234225552734870
  Basis Set: CC-PVTZ
  Basis Set:
  Basis Set: CC-PVTZ
  Basis Set:
  @DF-RHF Final Energy:  -348.22343845235292
    Total Energy =                       -348.2234384523529229
  Basis Set: CC-PVTZ
  Basis Set:
  Charge       = 0
  Multiplicity = 1
  Basis Set: CC-PVTZ
  Basis Set:

    Orbital Energies (a.u.)
    -----------------------

    Doubly Occupied:

       1A    -20.536631     2A    -11.319370     3A    -11.227750
       4A    -11.227063     5A    -11.226608     6A    -11.220162
       7A    -11.218603     8A    -11.210949     9A     -1.396916
      10A     -1.096847    11A     -1.045651    12A     -1.000937
      13A     -0.939022    14A     -0.858574    15A     -0.786838
      16A     -0.734278    17A     -0.662067    18A     -0.649866
      19A     -0.628415    20A     -0.618862    21A     -0.600492
      22A     -0.587477    23A     -0.556045    24A     -0.549352
      25A     -0.533927    26A     -0.521532    27A     -0.501295
      28A     -0.488162    29A     -0.469649    30A     -0.465719
      31A     -0.462705    32A     -0.398458

  @DF-RHF Final Energy:  -348.22343930770887

   => Energetics <=

    Nuclear Repulsion Energy =            373.6680575744647967
    One-Electron Energy =               -1212.3025489693102372
    Two-Electron Energy =                 490.4110520871364542
    DFT Exchange-Correlation Energy =       0.0000000000000000
    Empirical Dispersion Energy =           0.0000000000000000
    PCM Polarization Energy =               0.0000000000000000
    EFP Energy =                            0.0000000000000000
    Total Energy =                       -348.2234393077089862
    Molecular point group: c1
  Basis Set: CC-PVTZ
  Basis Set:

  -Total Gradient:
     Atom            X                  Y                   Z
    ------   -----------------  -----------------  -----------------
       1       -0.000139327081    -0.000086197649    -0.000214051006
       2        0.000161312101     0.000071757246     0.000281952200
       3        0.000126820852     0.000142162910     0.000029936444
       4       -0.000039382142     0.000052810066     0.000005939606
       5        0.000000616738     0.000017040196     0.000026749525
       6       -0.000144371439    -0.000140169371    -0.000156009431
       7       -0.000008446635    -0.000012250997     0.000001859518
       8        0.000017647204    -0.000010348263    -0.000020055755
       9       -0.000004539115     0.000013071090     0.000004031504
      10       -0.000000564385    -0.000013235161     0.000019790702
      11        0.000019648851     0.000007186529     0.000004148718
      12        0.000004978317     0.000007182629    -0.000013214304
      13        0.000001856428    -0.000016747757    -0.000012316510
      14       -0.000013809393    -0.000004834229     0.000015622227
      15       -0.000007426664     0.000010122984     0.000009284246
      16        0.000007093540    -0.000005615764     0.000008052040
      17       -0.000004327416     0.000002463973    -0.000006543669
      18        0.000001750482     0.000009741864     0.000012067565
      19        0.000008327717    -0.000007366763    -0.000004001911
      20        0.000006116496     0.000010033268     0.000010973140
      21        0.000016945728    -0.000035150875     0.000004945724
      22       -0.000010920187    -0.000011655930    -0.000009160576

  **** Optimization is complete! (in 8 steps) ****
    Final optimized geometry and variables:
    Molecular point group: c1

    Geometry (in Angstrom), charge = 0, multiplicity = 1:

    O           -1.018927675739     2.245581964228     1.343338302942
    C           -0.755050985931     1.124609954827     1.634955124248
    C            0.464111555117     0.434331327467     1.054334266746
    C           -1.624459621849     0.324299691685     2.574466831437
    C            0.199122054357    -0.029471566459    -0.383145431705
    H            0.747328437124    -0.413702075453     1.668324019828
    H            1.279313472612     1.147133840374     1.062524787283
    C            1.414026569730    -0.714978791857    -1.004862462184
    H           -0.652063109723    -0.702884426647    -0.391305014049
    H           -0.079747192514     0.833075503489    -0.978209859917
    C            1.236662240617    -1.118157227200    -2.469618668487
    H            1.671127523090    -1.595043088797    -0.419741348201
    H            2.264201414469    -0.042876641868    -0.932430584750
    C            0.195156223789    -2.208264009204    -2.710282904033
    H            2.194521836010    -1.462919314113    -2.846244448899
    H            0.980550599491    -0.238727247249    -3.053919689400
    H            0.420942791811    -3.097922112465    -2.130898673864
    H            0.173501839243    -2.493402103760    -3.755663095363
    H           -0.803072414353    -1.883099016717    -2.442991410210
    H           -1.887127658677    -0.628806794591     2.128462950201
    H           -2.518190029886     0.877658012619     2.818302706112
    H           -1.069738966348     0.110243138573     3.482365210291

  Mulliken Charges: (a.u.)
   Center  Symbol    Alpha    Beta     Spin     Total
       1     O     4.17803  4.17803  0.00000 -0.35607
       2     C     2.85816  2.85816  0.00000  0.28368
       3     C     3.09849  3.09849  0.00000 -0.19699
       4     C     3.15480  3.15480  0.00000 -0.30960
       5     C     3.10119  3.10119  0.00000 -0.20239
       6     H     0.44907  0.44907  0.00000  0.10187
       7     H     0.43920  0.43920  0.00000  0.12160
       8     C     3.09704  3.09704  0.00000 -0.19408
       9     H     0.45108  0.45108  0.00000  0.09784
      10     H     0.43995  0.43995  0.00000  0.12010
      11     C     3.09047  3.09047  0.00000 -0.18094
      12     H     0.45348  0.45348  0.00000  0.09303
      13     H     0.44694  0.44694  0.00000  0.10612
      14     C     3.15306  3.15306  0.00000 -0.30612
      15     H     0.44757  0.44757  0.00000  0.10487
      16     H     0.45223  0.45223  0.00000  0.09554
      17     H     0.45518  0.45518  0.00000  0.08965
      18     H     0.44504  0.44504  0.00000  0.10992
      19     H     0.45361  0.45361  0.00000  0.09278
      20     H     0.45088  0.45088  0.00000  0.09825
      21     H     0.43617  0.43617  0.00000  0.12767
      22     H     0.44835  0.44835  0.00000  0.10329

   Total alpha = 32.00000, Total beta = 32.00000, Total charge = -0.00000

*** Psi4 exiting successfully. Buy a developer a beer!
