  ==> Input File <==

--------------------------------------------------------------------------
set {
	reference rhf
	basis cc-pvtz
}

set_num_threads( 4 )
memory 2 gb

molecule MOL {
0 1

H	 -2.266619	 1.169943	 0.000098
O	 -1.438073	 1.611259	 0.000041
C	 -0.408657	 0.734701	 0.000005
C	 0.466736	 0.799380	 1.068140
C	 -0.226046	 -0.193332	 -1.018583
H	 0.291587	 1.529314	 1.833941
C	 1.539195	 -0.064680	 1.132947
C	 0.859864	 -1.048920	 -0.927504
C	 -1.182239	 -0.262652	 -2.183526
H	 2.214633	 -0.008635	 1.965186
C	 1.742234	 -0.995957	 0.132983
H	 1.014846	 -1.771900	 -1.706766
H	 -1.209560	 0.670816	 -2.738693
H	 -0.886267	 -1.038769	 -2.874528
H	 -2.195165	 -0.486637	 -1.860823
H	 2.574317	 -1.671305	 0.176720

	symmetry c1
}
set optking {
	frozen_dihedral = ("
		4 3 2 1
	")
}

ee = optimize('scf')
oeprop('DIPOLE', 'QUADRUPOLE', 'MULLIKEN_CHARGES')
f=open( 'psi4out.xyz', 'w' )
f.write( "16  " )
f.write( str(ee) + "\n" )
f.write( MOL.save_string_xyz() )
f.close()
--------------------------------------------------------------------------

    Molecular point group: c1
  Charge       = 0
  Multiplicity = 1
  Basis Set: CC-PVTZ
  Basis Set:
  @DF-RHF Final Energy:  -344.71636007395864
    Total Energy =                       -344.7163600739584126
    Molecular point group: c1
  Basis Set: CC-PVTZ
  Basis Set:
  Basis Set: CC-PVTZ
  Basis Set:
  @DF-RHF Final Energy:  -344.71684296282172
    Total Energy =                       -344.7168429628215449
  Basis Set: CC-PVTZ
  Basis Set:
  Basis Set: CC-PVTZ
  Basis Set:
  @DF-RHF Final Energy:  -344.71690559301095
    Total Energy =                       -344.7169055930110062
  Basis Set: CC-PVTZ
  Basis Set:
  Basis Set: CC-PVTZ
  Basis Set:
  @DF-RHF Final Energy:  -344.71691825403491
    Total Energy =                       -344.7169182540348515
  Basis Set: CC-PVTZ
  Basis Set:
  Basis Set: CC-PVTZ
  Basis Set:
  @DF-RHF Final Energy:  -344.71692064609675
    Total Energy =                       -344.7169206460966393
  Basis Set: CC-PVTZ
  Basis Set:
  Charge       = 0
  Multiplicity = 1
  Basis Set: CC-PVTZ
  Basis Set:

    Orbital Energies (a.u.)
    -----------------------

    Doubly Occupied:

       1A    -20.572680     2A    -11.284465     3A    -11.234112
       4A    -11.227126     5A    -11.226916     6A    -11.223930
       7A    -11.221675     8A    -11.221064     9A     -1.399780
      10A     -1.153708    11A     -1.049629    12A     -1.007452
      13A     -0.938761    14A     -0.829545    15A     -0.815270
      16A     -0.731081    17A     -0.675059    18A     -0.653977
      19A     -0.624863    20A     -0.596021    21A     -0.574585
      22A     -0.571644    23A     -0.550141    24A     -0.528304
      25A     -0.503735    26A     -0.488046    27A     -0.469828
      28A     -0.333333    29A     -0.319679

  @DF-RHF Final Energy:  -344.71692099814845

   => Energetics <=

    Nuclear Repulsion Energy =            350.6343445078832701
    One-Electron Energy =               -1162.6497141075899435
    Two-Electron Energy =                 467.2984486015582206
    DFT Exchange-Correlation Energy =       0.0000000000000000
    Empirical Dispersion Energy =           0.0000000000000000
    PCM Polarization Energy =               0.0000000000000000
    EFP Energy =                            0.0000000000000000
    Total Energy =                       -344.7169209981484528
    Molecular point group: c1
  Basis Set: CC-PVTZ
  Basis Set:

  -Total Gradient:
     Atom            X                  Y                   Z
    ------   -----------------  -----------------  -----------------
       1       -0.000023101004     0.000072732702     0.001689456201
       2       -0.000351706878    -0.000426619691    -0.001808083082
       3        0.001100366841     0.001105896940    -0.000509961902
       4       -0.000746728421    -0.000721690353     0.000647470685
       5        0.000002605960    -0.000008563604    -0.000023092574
       6        0.000002448481    -0.000011743461    -0.000012392154
       7        0.000026107473    -0.000042558286    -0.000019296153
       8       -0.000048352270     0.000043922860    -0.000024365774
       9       -0.000005394397    -0.000010732258     0.000032521447
      10        0.000006993410    -0.000001570301     0.000005991226
      11        0.000025505330     0.000009759257     0.000042648539
      12        0.000001702510    -0.000007461571    -0.000005681550
      13        0.000011009714    -0.000002601393    -0.000004176863
      14        0.000004447904    -0.000001063531    -0.000014183160
      15        0.000003412775     0.000002096886     0.000004064300
      16       -0.000009317426     0.000000195803    -0.000000919184

  **** Optimization is complete! (in 6 steps) ****
    Final optimized geometry and variables:
    Molecular point group: c1

    Geometry (in Angstrom), charge = 0, multiplicity = 1:

    H           -2.356348932910     1.079261304986     0.206702487741
    O           -1.525093429389     1.520113908934     0.203148652774
    C           -0.497149406725     0.621992105771     0.253807428507
    C            0.376601503435     0.690734959683     1.318399761017
    C           -0.321496768492    -0.310509876539    -0.761800033116
    H            0.205240914777     1.427262052755     2.078863840073
    C            1.453548807837    -0.172753234211     1.385853870820
    C            0.758451857806    -1.171689089130    -0.668195931970
    C           -1.279215413671    -0.368490626607    -1.923709348243
    H            2.133958691855    -0.113229209023     2.213605000224
    C            1.644282040971    -1.109974039670     0.391920746351
    H            0.912793765436    -1.899416610340    -1.442960573692
    H           -1.380314676455     0.601815276539    -2.393725596041
    H           -0.936845424343    -1.074609175793    -2.667448756464
    H           -2.271297110920    -0.681143628380    -1.610593552010
    H            2.475803644028    -1.786609321867     0.435775764894

  Mulliken Charges: (a.u.)
   Center  Symbol    Alpha    Beta     Spin     Total
       1     H     0.38667  0.38667  0.00000  0.22666
       2     O     4.18734  4.18734  0.00000 -0.37468
       3     C     2.88291  2.88291  0.00000  0.23419
       4     C     3.10815  3.10815  0.00000 -0.21630
       5     C     2.99967  2.99967  0.00000  0.00066
       6     H     0.41755  0.41755  0.00000  0.16490
       7     C     3.07372  3.07372  0.00000 -0.14744
       8     C     3.09145  3.09145  0.00000 -0.18290
       9     C     3.15317  3.15317  0.00000 -0.30634
      10     H     0.42219  0.42219  0.00000  0.15562
      11     C     3.08173  3.08173  0.00000 -0.16346
      12     H     0.42490  0.42490  0.00000  0.15021
      13     H     0.43974  0.43974  0.00000  0.12052
      14     H     0.44985  0.44985  0.00000  0.10030
      15     H     0.45675  0.45675  0.00000  0.08650
      16     H     0.42422  0.42422  0.00000  0.15155

   Total alpha = 29.00000, Total beta = 29.00000, Total charge = -0.00000
