  ==> Input File <==

--------------------------------------------------------------------------
set {
	reference rhf
	basis cc-pvtz
}

set_num_threads( 4 )
memory 2 gb

molecule MOL {
0 1

H	 0.524469	 1.865500	 0.430598
O	 0.057669	 1.301365	 -0.158528
C	 0.004145	 -0.005141	 0.363049
C	 1.199168	 -0.827145	 -0.096690
C	 -1.316386	 -0.602081	 -0.083515
H	 0.012026	 0.043363	 1.450619
H	 1.216685	 -0.896776	 -1.178167
H	 2.129940	 -0.372354	 0.228035
H	 1.160783	 -1.829622	 0.314294
H	 -1.357882	 -0.655920	 -1.165207
H	 -2.140147	 0.011735	 0.257253
H	 -1.440790	 -1.601175	 0.317669

	symmetry c1
}
set optking {
	frozen_dihedral = ("
		1 2 3 4
	")
}

ee = optimize('scf')
oeprop('DIPOLE', 'QUADRUPOLE', 'MULLIKEN_CHARGES')
f=open( 'psi4out.xyz', 'w' )
f.write( "12  " )
f.write( str(ee) + "\n" )
f.write( MOL.save_string_xyz() )
f.close()
--------------------------------------------------------------------------

    Molecular point group: c1
  Charge       = 0
  Multiplicity = 1
  Basis Set: CC-PVTZ
  Basis Set:
  @DF-RHF Final Energy:  -193.19494213372204
    Total Energy =                       -193.1949421337221224
    Molecular point group: c1
  Basis Set: CC-PVTZ
  Basis Set:
  Basis Set: CC-PVTZ
  Basis Set:
  @DF-RHF Final Energy:  -193.19502156418670
    Total Energy =                       -193.1950215641868738
  Basis Set: CC-PVTZ
  Basis Set:
  Basis Set: CC-PVTZ
  Basis Set:
  @DF-RHF Final Energy:  -193.19503813934708
    Total Energy =                       -193.1950381393470479
  Basis Set: CC-PVTZ
  Basis Set:
  Charge       = 0
  Multiplicity = 1
  Basis Set: CC-PVTZ
  Basis Set:

    Orbital Energies (a.u.)
    -----------------------

    Doubly Occupied:

       1A    -20.543585     2A    -11.274523     3A    -11.206695
       4A    -11.204681     5A     -1.363583     6A     -1.042846
       7A     -0.937029     8A     -0.800842     9A     -0.712048
      10A     -0.614432    11A     -0.601871    12A     -0.554070
      13A     -0.538368    14A     -0.526569    15A     -0.507791
      16A     -0.466169    17A     -0.432983

  @DF-RHF Final Energy:  -193.19503834501782

   => Energetics <=

    Nuclear Repulsion Energy =            135.5941707090301236
    One-Electron Energy =                -530.9222437191892823
    Two-Electron Energy =                 202.1330346651413379
    DFT Exchange-Correlation Energy =       0.0000000000000000
    Empirical Dispersion Energy =           0.0000000000000000
    PCM Polarization Energy =               0.0000000000000000
    EFP Energy =                            0.0000000000000000
    Total Energy =                       -193.1950383450178492
    Molecular point group: c1
  Basis Set: CC-PVTZ
  Basis Set:

  -Total Gradient:
     Atom            X                  Y                   Z
    ------   -----------------  -----------------  -----------------
       1       -0.001500826057     0.000409349412     0.000792787142
       2        0.001619664691    -0.000627429527    -0.001294026639
       3        0.000454683111     0.000630430317     0.001339302298
       4       -0.000577760287    -0.000358459203    -0.000849479887
       5        0.000006359839    -0.000017961333     0.000012940176
       6       -0.000010545385    -0.000020253222    -0.000004028990
       7        0.000003961719     0.000001755962     0.000001111957
       8       -0.000021977633     0.000007814198     0.000002540591
       9        0.000008150587    -0.000027515943    -0.000004513911
      10        0.000006610688     0.000004053406    -0.000000091205
      11        0.000007755464     0.000003490433     0.000004110583
      12        0.000003923262    -0.000005274502    -0.000000652115

  **** Optimization is complete! (in 4 steps) ****
    Final optimized geometry and variables:
    Molecular point group: c1

    Geometry (in Angstrom), charge = 0, multiplicity = 1:

    H            0.545345716201     1.866543779762     0.408687425502
    O            0.075333786887     1.298991322636    -0.172606062974
    C            0.004508066980    -0.004452841258     0.362164273836
    C            1.198349164974    -0.828925404466    -0.095884947624
    C           -1.313687055810    -0.608218571872    -0.087149310821
    H            0.008075073762     0.050701792551     1.448252452057
    H            1.213594524696    -0.893681742145    -1.177484996041
    H            2.127565642977    -0.372284570957     0.226595192519
    H            1.157403761146    -1.833594694890     0.310581797692
    H           -1.359721311401    -0.638361006511    -1.169703026325
    H           -2.143606634251    -0.011925194797     0.269752420624
    H           -1.424626913701    -1.618486969938     0.289831805132

  Mulliken Charges: (a.u.)
   Center  Symbol    Alpha    Beta     Spin     Total
       1     H     0.39307  0.39307  0.00000  0.21387
       2     O     4.20856  4.20856  0.00000 -0.41713
       3     C     2.92516  2.92516  0.00000  0.14969
       4     C     3.13946  3.13946  0.00000 -0.27892
       5     C     3.13936  3.13936  0.00000 -0.27872
       6     H     0.46695  0.46695  0.00000  0.06609
       7     H     0.45218  0.45218  0.00000  0.09564
       8     H     0.45611  0.45611  0.00000  0.08778
       9     H     0.45852  0.45852  0.00000  0.08296
      10     H     0.45201  0.45201  0.00000  0.09599
      11     H     0.44925  0.44925  0.00000  0.10149
      12     H     0.45937  0.45937  0.00000  0.08126

   Total alpha = 17.00000, Total beta = 17.00000, Total charge = -0.00000
