  ==> Input File <==

--------------------------------------------------------------------------
set {
	reference rhf
	basis 6-31G*
}

set_num_threads( 4 )
memory 2 gb

molecule MOL {
0 1

H	 0.874401	 3.067252	 -2.011106
O	 1.581037	 2.669676	 -1.520903
C	 1.141151	 1.626604	 -0.789003
C	 2.078621	 0.947645	 -0.016922
C	 -0.180516	 1.224960	 -0.785571
H	 3.099687	 1.279148	 -0.036617
C	 1.690113	 -0.128432	 0.753912
H	 -0.923742	 1.729685	 -1.370715
C	 -0.536158	 0.140425	 0.000000
H	 2.420442	 -0.646867	 1.346957
C	 0.367817	 -0.551465	 0.774380
N	 -1.935604	 -0.280333	 0.000000
H	 0.051256	 -1.384384	 1.367204
O	 -2.161694	 -1.452901	 0.000000
O	 -2.770341	 0.571417	 0.000000

	symmetry c1
}
set optking {
	frozen_dihedral = ("
		11 9 12 14
	")
}

ee = optimize('scf')
oeprop('DIPOLE', 'QUADRUPOLE', 'MULLIKEN_CHARGES')
f=open( 'psi4out.xyz', 'w' )
f.write( "15  " )
f.write( str(ee) + "\n" )
f.write( MOL.save_string_xyz() )
f.close()
--------------------------------------------------------------------------

    Molecular point group: c1
  Charge       = 0
  Multiplicity = 1
  Basis Set: 6-31G*
  Basis Set:
  @DF-RHF Final Energy:  -509.02427966966206
    Total Energy =                       -509.0242796696620644
    Molecular point group: c1
  Basis Set: 6-31G*
  Basis Set:
  Basis Set: 6-31G*
  Basis Set:
  @DF-RHF Final Energy:  -509.01802083777733
    Total Energy =                       -509.0180208377773852
  Basis Set: 6-31G*
  Basis Set:
  Basis Set: 6-31G*
  Basis Set:
  @DF-RHF Final Energy:  -509.02448125302277
    Total Energy =                       -509.0244812530224863
  Basis Set: 6-31G*
  Basis Set:
  Basis Set: 6-31G*
  Basis Set:
  @DF-RHF Final Energy:  -509.02468921719225
    Total Energy =                       -509.0246892171921900
  Basis Set: 6-31G*
  Basis Set:
  Charge       = 0
  Multiplicity = 1
  Basis Set: 6-31G*
  Basis Set:

    Orbital Energies (a.u.)
    -----------------------

    Doubly Occupied:

       1A    -20.616768     2A    -20.607347     3A    -20.606739
       4A    -15.858983     5A    -11.331963     6A    -11.313133
       7A    -11.268234     8A    -11.267845     9A    -11.264157
      10A    -11.258717    11A     -1.639108    12A     -1.437610
      13A     -1.422958    14A     -1.201823    15A     -1.095801
      16A     -1.047743    17A     -0.966194    18A     -0.881330
      19A     -0.829279    20A     -0.789935    21A     -0.758103
      22A     -0.734931    23A     -0.720760    24A     -0.710168
      25A     -0.671368    26A     -0.635561    27A     -0.616908
      28A     -0.593987    29A     -0.561345    30A     -0.547002
      31A     -0.523426    32A     -0.490975    33A     -0.489533
      34A     -0.454025    35A     -0.375800    36A     -0.343268

  @DF-RHF Final Energy:  -509.02468976148532

   => Energetics <=

    Nuclear Repulsion Energy =            503.3399532392515994
    One-Electron Energy =               -1692.8636278651974862
    Two-Electron Energy =                 680.4989848644605672
    DFT Exchange-Correlation Energy =       0.0000000000000000
    Empirical Dispersion Energy =           0.0000000000000000
    PCM Polarization Energy =               0.0000000000000000
    EFP Energy =                            0.0000000000000000
    Total Energy =                       -509.0246897614853197
    Molecular point group: c1
  Basis Set: 6-31G*
  Basis Set:

  -Total Gradient:
     Atom            X                  Y                   Z
    ------   -----------------  -----------------  -----------------
       1        0.000003806020    -0.000006600013    -0.000020125049
       2       -0.000016968753     0.000030604715     0.000019974069
       3       -0.000007339794    -0.000030526061     0.000015541182
       4        0.000006658734    -0.000029178026    -0.000053594788
       5       -0.000015448452    -0.000029701713     0.000010586819
       6       -0.000002484625     0.000001718758     0.000009540510
       7       -0.000019645071     0.000014045233     0.000040443054
       8       -0.000007449494     0.000005589309    -0.000006408062
       9        0.000936777470    -0.004000409673    -0.006488984457
      10       -0.000002115580    -0.000005736828    -0.000003376464
      11       -0.000696396593     0.002736833745     0.003234050641
      12       -0.000397645536     0.001544987728     0.008090090954
      13        0.000009694774     0.000005431455    -0.000009704508
      14        0.000034642299    -0.000295220087    -0.004867025371
      15        0.000173914621     0.000058161456     0.000028991470

  **** Optimization is complete! (in 5 steps) ****
    Final optimized geometry and variables:
    Molecular point group: c1

    Geometry (in Angstrom), charge = 0, multiplicity = 1:

    H            1.014607652372     2.583160326362    -1.818878458207
    O            1.722842233740     2.177535676726    -1.337742650372
    C            1.283917829404     1.134814082867    -0.606198244937
    C            2.220899249208     0.459460079961     0.170089466288
    C           -0.039189316940     0.734891430118    -0.598740974639
    H            3.240258493411     0.796352023605     0.155418306325
    C            1.833488782229    -0.615206175931     0.943307103952
    H           -0.789654873182     1.254845270413    -1.163188068842
    C           -0.383467820962    -0.365559005082     0.165653986410
    H            2.561818001808    -1.123027131320     1.547936341207
    C            0.514358594923    -1.050117431752     0.950454353746
    N           -1.785392130343    -0.765426987479     0.196084458633
    H            0.198108242631    -1.891299196488     1.534129277848
    O           -2.020672352555    -1.934273450060     0.234219069728
    O           -2.605152498334     0.100986369235     0.147095247839

  Mulliken Charges: (a.u.)
   Center  Symbol    Alpha    Beta     Spin     Total
       1     H     0.26733  0.26733  0.00000  0.46535
       2     O     4.37497  4.37497  0.00000 -0.74994
       3     C     2.79319  2.79319  0.00000  0.41362
       4     C     3.11110  3.11110  0.00000 -0.22221
       5     C     3.13449  3.13449  0.00000 -0.26898
       6     H     0.38137  0.38137  0.00000  0.23727
       7     C     3.09915  3.09915  0.00000 -0.19830
       8     H     0.37381  0.37381  0.00000  0.25237
       9     C     2.89987  2.89987  0.00000  0.20026
      10     H     0.38655  0.38655  0.00000  0.22689
      11     C     3.09934  3.09934  0.00000 -0.19869
      12     N     3.25400  3.25400  0.00000  0.49200
      13     H     0.37088  0.37088  0.00000  0.25825
      14     O     4.22479  4.22479  0.00000 -0.44957
      15     O     4.22916  4.22916  0.00000 -0.45831

   Total alpha = 36.00000, Total beta = 36.00000, Total charge = -0.00000
