                              Psi4 1.0.54 Driver

  ==> Input File <==

--------------------------------------------------------------------------
set {
	reference rhf
	basis cc-pvtz
}

set_num_threads( 4 )
memory 2 gb

molecule MOL {
0 1

H	 -3.034039	 -0.667848	 0.004703
O	 -2.240597	 -1.171748	 0.000934
C	 -1.159675	 -0.364500	 0.000370
C	 -1.252481	 0.996936	 0.206021
C	 0.074599	 -0.956553	 -0.218935
H	 -2.208487	 1.458254	 0.374239
C	 -0.097162	 1.759272	 0.188471
H	 0.111898	 -2.016912	 -0.377623
C	 1.225897	 -0.195190	 -0.233750
H	 -0.165663	 2.819248	 0.345089
C	 1.131419	 1.177819	 -0.029037
C	 2.570761	 -0.842355	 -0.448602
H	 2.017356	 1.783959	 -0.042143
H	 3.178293	 -0.259434	 -1.129725
H	 2.468021	 -1.839202	 -0.855402
H	 3.111731	 -0.919223	 0.488460

	symmetry c1
}
set optking {
	frozen_dihedral = ("
		5 3 2 1
	")
}

ee,wfn = optimize('scf', return_wfn=True)
oeprop( wfn, 'DIPOLE', 'QUADRUPOLE', 'MULLIKEN_CHARGES')
f=open( 'psi4out.xyz', 'w' )
f.write( "16  " )
f.write( str(ee) + "\n" )
f.write( MOL.save_string_xyz() )
f.close()
--------------------------------------------------------------------------

    Molecular point group: c1
  Charge       = 0
  Multiplicity = 1
  Basis Set: CC-PVTZ
  Basis Set:
  @DF-RHF Final Energy:  -344.72067251763178
    Total Energy =                       -344.7206725176322379
    Molecular point group: c1
  Basis Set: CC-PVTZ
  Basis Set:
  Basis Set: CC-PVTZ
  Basis Set:
  @DF-RHF Final Energy:  -344.72067526661851
    Total Energy =                       -344.7206752666184002
  Basis Set: CC-PVTZ
  Basis Set:
  Charge       = 0
  Multiplicity = 1
  Basis Set: CC-PVTZ
  Basis Set:

    Orbital Energies (a.u.)
    -----------------------

    Doubly Occupied:

       1A    -20.582685     2A    -11.295012     3A    -11.240572
       4A    -11.232776     5A    -11.219738     6A    -11.218908
       7A    -11.213924     8A    -11.212885     9A     -1.413332
      10A     -1.154089    11A     -1.046244    12A     -1.008592
      13A     -0.938663    14A     -0.828454    15A     -0.826397
      16A     -0.717553    17A     -0.684535    18A     -0.657513
      19A     -0.611021    20A     -0.596089    21A     -0.574220
      22A     -0.571510    23A     -0.569066    24A     -0.534100
      25A     -0.507160    26A     -0.484524    27A     -0.472679
      28A     -0.333457    29A     -0.310530

  @DF-RHF Final Energy:  -344.72067591042827

   => Energetics <=

    Nuclear Repulsion Energy =            346.4043778453003029
    One-Electron Energy =               -1154.1376599600841928
    Two-Electron Energy =                 463.0126062043553929
    DFT Exchange-Correlation Energy =       0.0000000000000000
    Empirical Dispersion Energy =           0.0000000000000000
    PCM Polarization Energy =               0.0000000000000000
    EFP Energy =                            0.0000000000000000
    Total Energy =                       -344.7206759104284401
    Molecular point group: c1
  Basis Set: CC-PVTZ
  Basis Set:

  -Total Gradient:
     Atom            X                  Y                   Z
    ------   -----------------  -----------------  -----------------
       1       -0.000012423470    -0.000001498830    -0.001057883205
       2       -0.000010221568     0.000071812890     0.000982511435
       3        0.000059738272    -0.000163833866     0.000846782634
       4       -0.000011899022    -0.000017403412    -0.000053387143
       5       -0.000024840945     0.000123721691    -0.000727562875
       6        0.000003496025    -0.000001437891     0.000010617162
       7        0.000034042031    -0.000007742038     0.000028875434
       8       -0.000004073585     0.000001439971    -0.000009763533
       9       -0.000024793488    -0.000026825963    -0.000055478782
      10       -0.000004968131     0.000002458056    -0.000005402735
      11       -0.000012235996     0.000026050209     0.000019069786
      12        0.000007068270    -0.000003472114     0.000021731846
      13       -0.000001497656    -0.000002802793    -0.000003130268
      14       -0.000004851718     0.000002729685     0.000002049090
      15       -0.000001930581     0.000002135704     0.000000256969
      16        0.000009391556    -0.000005331303     0.000000714186

  **** Optimization is complete! (in 3 steps) ****
    Final optimized geometry and variables:
    Molecular point group: c1

    Geometry (in Angstrom), charge = 0, multiplicity = 1:

    H           -3.030702811642    -0.671934163655     0.084281463309
    O           -2.237499803619    -1.176272424885     0.078350437567
    C           -1.155788428222    -0.369206107047     0.072767654567
    C           -1.248311159857     0.992562543128     0.276010345121
    C            0.077783338186    -0.961183941148    -0.150069977856
    H           -2.203718526638     1.453246675528     0.448970761901
    C           -0.093081693144     1.754878780451     0.255336041083
    H            0.114253403673    -2.021200006813    -0.311230872955
    C            1.229639312679    -0.200499931779    -0.164198309626
    H           -0.161312022771     2.815132128664     0.410197194864
    C            1.135402304090     1.172649117590     0.038999446953
    C            2.574155492457    -0.848066993932    -0.379997486024
    H            2.021476937416     1.778582273341     0.024876907859
    H            3.181183096481    -0.265853441644    -1.062192224918
    H            2.470701921128    -1.845219575123    -0.785904510084
    H            3.116046610254    -0.924469080922     0.556584481905

  Mulliken Charges: (a.u.)
   Center  Symbol    Alpha    Beta     Spin     Total
       1     H     0.38717  0.38717  0.00000  0.22566
       2     O     4.17577  4.17577  0.00000 -0.35155
       3     C     2.83667  2.83667  0.00000  0.32667
       4     C     3.14856  3.14856  0.00000 -0.29713
       5     C     3.14114  3.14114  0.00000 -0.28227
       6     H     0.43488  0.43488  0.00000  0.13024
       7     C     3.05701  3.05701  0.00000 -0.11402
       8     H     0.42213  0.42213  0.00000  0.15575
       9     C     2.93512  2.93512  0.00000  0.12975
      10     H     0.42294  0.42294  0.00000  0.15412
      11     C     3.11878  3.11878  0.00000 -0.23756
      12     C     3.14645  3.14645  0.00000 -0.29289
      13     H     0.42789  0.42789  0.00000  0.14421
      14     H     0.44843  0.44843  0.00000  0.10313
      15     H     0.45023  0.45023  0.00000  0.09955
      16     H     0.44683  0.44683  0.00000  0.10634

   Total alpha = 29.00000, Total beta = 29.00000, Total charge = -0.00000

*** Psi4 exiting successfully. Buy a developer a beer!
