  ==> Input File <==

--------------------------------------------------------------------------
set {
	reference rhf
	basis 6-31G*
}

set_num_threads( 1 )
memory 2 gb

molecule MOL {
0 1

H	 3.089270	 -1.380733	 0.000000
O	 2.178328	 -1.639175	 0.000000
C	 1.368216	 -0.558384	 0.000000
C	 1.525107	 0.489238	 -0.898431
C	 0.352736	 -0.517947	 0.939466
H	 2.316024	 0.455798	 -1.628752
C	 0.667302	 1.575569	 -0.856911
H	 0.230446	 -1.326484	 1.634008
C	 -0.501701	 0.573282	 0.974273
H	 0.798596	 2.380291	 -1.557313
C	 -0.350299	 1.624320	 0.078634
C	 -1.594789	 0.623124	 1.981023
H	 -1.017741	 2.467153	 0.112671
O	 -1.806837	 -0.223844	 2.788629
H	 -2.220924	 1.519397	 1.937471

	symmetry c1
}
set optking {
	frozen_dihedral = ("
		11 9 12 14
	")
}

ee = energy('scf')
oeprop('DIPOLE', 'QUADRUPOLE', 'MULLIKEN_CHARGES')
f=open( 'psi4out.xyz', 'w' )
f.write( "15  " )
f.write( str(ee) + "\n" )
f.write( MOL.save_string_xyz() )
f.close()
--------------------------------------------------------------------------

    Molecular point group: c1

    Geometry (in Angstrom), charge = 0, multiplicity = 1:

       Center              X                  Y                   Z               Mass
    ------------   -----------------  -----------------  -----------------  -----------------
           H          2.869979486274    -1.545103278886    -0.587712275150     1.007825032070
           O          1.959037486274    -1.803545278886    -0.587712275150    15.994914619560
           C          1.148925486274    -0.722754278886    -0.587712275150    12.000000000000
           C          1.305816486274     0.324867721114    -1.486143275150    12.000000000000
           C          0.133445486274    -0.682317278886     0.351753724850    12.000000000000
           H          2.096733486274     0.291427721114    -2.216464275150     1.007825032070
           C          0.448011486274     1.411198721114    -1.444623275150    12.000000000000
           H          0.011155486274    -1.490854278886     1.046295724850     1.007825032070
           C         -0.720991513726     0.408911721114     0.386560724850    12.000000000000
           H          0.579305486274     2.215920721114    -2.145025275150     1.007825032070
           C         -0.569589513726     1.459949721114    -0.509078275150    12.000000000000
           C         -1.814079513726     0.458753721114     1.393310724850    12.000000000000
           H         -1.237031513726     2.302782721114    -0.475041275150     1.007825032070
           O         -2.026127513726    -0.388214278886     2.200916724850    15.994914619560
           H         -2.440214513726     1.355026721114     1.349758724850     1.007825032070

  Charge       = 0
  Multiplicity = 1
  Basis Set: 6-31G*
  Basis Set:

    Orbital Energies (a.u.)
    -----------------------

    Doubly Occupied:

       1A    -20.593431     2A    -20.564139     3A    -11.332431
       4A    -11.307040     5A    -11.251946     6A    -11.250871
       7A    -11.249593     8A    -11.249143     9A    -11.240656
      10A     -1.415527    11A     -1.404946    12A     -1.169358
      13A     -1.048236    14A     -1.026033    15A     -0.897767
      16A     -0.845857    17A     -0.808394    18A     -0.738479
      19A     -0.699744    20A     -0.684600    21A     -0.642792
      22A     -0.636512    23A     -0.617488    24A     -0.606941
      25A     -0.556507    26A     -0.547666    27A     -0.537644
      28A     -0.504924    29A     -0.486246    30A     -0.422887
      31A     -0.352415    32A     -0.333514

  @DF-RHF Final Energy:  -418.28358976552011

   => Energetics <=

    Nuclear Repulsion Energy =            403.1572881316386656
    One-Electron Energy =               -1368.8342934454553870
    Two-Electron Energy =                 547.3934155482987762
    DFT Exchange-Correlation Energy =       0.0000000000000000
    Empirical Dispersion Energy =           0.0000000000000000
    PCM Polarization Energy =               0.0000000000000000
    EFP Energy =                            0.0000000000000000
    Total Energy =                       -418.2835897655179451

  Mulliken Charges: (a.u.)
   Center  Symbol    Alpha    Beta     Spin     Total
       1     H     0.27034  0.27034  0.00000  0.45933
       2     O     4.38055  4.38055  0.00000 -0.76109
       3     C     2.80844  2.80844  0.00000  0.38313
       4     C     3.12196  3.12196  0.00000 -0.24391
       5     C     3.10961  3.10961  0.00000 -0.21922
       6     H     0.39407  0.39407  0.00000  0.21186
       7     C     3.09861  3.09861  0.00000 -0.19722
       8     H     0.37069  0.37069  0.00000  0.25862
       9     C     3.04934  3.04934  0.00000 -0.09867
      10     H     0.39318  0.39318  0.00000  0.21363
      11     C     3.11066  3.11066  0.00000 -0.22131
      12     C     2.83230  2.83230  0.00000  0.33540
      13     H     0.39242  0.39242  0.00000  0.21517
      14     O     4.24563  4.24563  0.00000 -0.49126
      15     H     0.42222  0.42222  0.00000  0.15555

   Total alpha = 32.00000, Total beta = 32.00000, Total charge =  0.00000
