  ==> Input File <==

--------------------------------------------------------------------------
set {
	reference rhf
	basis 6-31G*
}

set_num_threads( 1 )
memory 2 gb

molecule MOL {
0 1

H	 3.729471	 -0.928294	 -0.070608
O	 2.826016	 -1.159218	 0.122261
C	 2.077727	 -0.067559	 -0.035091
C	 0.624473	 -0.343591	 0.253101
O	 2.542965	 0.974826	 -0.363729
C	 -0.265902	 0.883932	 0.072916
H	 0.324016	 -1.163849	 -0.390541
H	 0.565024	 -0.726111	 1.268924
C	 -1.728698	 0.646073	 0.462102
H	 -0.209144	 1.219470	 -0.958188
H	 0.135059	 1.692851	 0.673903
C	 -2.243881	 -0.772493	 0.202848
H	 -2.344617	 1.345938	 -0.097892
H	 -1.870169	 0.894400	 1.513043
C	 -3.733357	 -0.921865	 0.512088
H	 -2.063260	 -1.034429	 -0.837733
H	 -1.686668	 -1.489416	 0.800274
H	 -4.074591	 -1.934753	 0.322534
H	 -4.329807	 -0.251372	 -0.099887
H	 -3.942385	 -0.691861	 1.553069

	symmetry c1
}
set optking {
	frozen_dihedral = ("
		16 12 9 6,
		7 4 6 10,
		5 3 4 7,
		1 2 3 5
	")
}

ee = energy('scf')
oeprop('DIPOLE', 'QUADRUPOLE', 'MULLIKEN_CHARGES')
f=open( 'psi4out.xyz', 'w' )
f.write( "20  " )
f.write( str(ee) + "\n" )
f.write( MOL.save_string_xyz() )
f.close()
--------------------------------------------------------------------------

    Molecular point group: c1

    Geometry (in Angstrom), charge = 0, multiplicity = 1:

       Center              X                  Y                   Z               Mass
    ------------   -----------------  -----------------  -----------------  -----------------
           H          3.671320836539    -0.816764166790    -0.221007869628     1.007825032070
           O          2.767865836539    -1.047688166790    -0.028138869628    15.994914619560
           C          2.019576836539     0.043970833210    -0.185490869628    12.000000000000
           C          0.566322836539    -0.232061166790     0.102701130372    12.000000000000
           O          2.484814836539     1.086355833210    -0.514128869628    15.994914619560
           C         -0.324052163461     0.995461833210    -0.077483869628    12.000000000000
           H          0.265865836539    -1.052319166790    -0.540940869628     1.007825032070
           H          0.506873836539    -0.614581166790     1.118524130372     1.007825032070
           C         -1.786848163461     0.757602833210     0.311702130372    12.000000000000
           H         -0.267294163461     1.330999833210    -1.108587869628     1.007825032070
           H          0.076908836539     1.804380833210     0.523503130372     1.007825032070
           C         -2.302031163461    -0.660963166790     0.052448130372    12.000000000000
           H         -2.402767163461     1.457467833210    -0.248291869628     1.007825032070
           H         -1.928319163461     1.005929833210     1.362643130372     1.007825032070
           C         -3.791507163461    -0.810335166790     0.361688130372    12.000000000000
           H         -2.121410163461    -0.922899166790    -0.988132869628     1.007825032070
           H         -1.744818163461    -1.377886166790     0.649874130372     1.007825032070
           H         -4.132741163461    -1.823223166790     0.172134130372     1.007825032070
           H         -4.387957163461    -0.139842166790    -0.250286869628     1.007825032070
           H         -4.000535163461    -0.580331166790     1.402669130372     1.007825032070

  Charge       = 0
  Multiplicity = 1
  Basis Set: 6-31G*
  Basis Set:

    Orbital Energies (a.u.)
    -----------------------

    Doubly Occupied:

       1A    -20.612182     2A    -20.551092     3A    -11.380520
       4A    -11.239697     5A    -11.222235     6A    -11.221229
       7A    -11.219639     8A    -11.212572     9A     -1.474177
      10A     -1.365199    11A     -1.097758    12A     -1.038994
      13A     -0.961751    14A     -0.869140    15A     -0.822531
      16A     -0.768410    17A     -0.699254    18A     -0.689413
      19A     -0.668250    20A     -0.637127    21A     -0.597095
      22A     -0.594151    23A     -0.580350    24A     -0.552249
      25A     -0.540046    26A     -0.518303    27A     -0.497651
      28A     -0.478630    29A     -0.470533    30A     -0.461430
      31A     -0.456657    32A     -0.443401

  @DF-RHF Final Energy:  -383.94416880434738

   => Energetics <=

    Nuclear Repulsion Energy =            378.3666912969954979
    One-Electron Energy =               -1272.7384071873777884
    Two-Electron Energy =                 510.4275470860357586
    DFT Exchange-Correlation Energy =       0.0000000000000000
    Empirical Dispersion Energy =           0.0000000000000000
    PCM Polarization Energy =               0.0000000000000000
    EFP Energy =                            0.0000000000000000
    Total Energy =                       -383.9441688043465888

  Mulliken Charges: (a.u.)
   Center  Symbol    Alpha    Beta     Spin     Total
       1     H     0.26786  0.26786  0.00000  0.46428
       2     O     4.35158  4.35158  0.00000 -0.70316
       3     C     2.62136  2.62136  0.00000  0.75728
       4     C     3.21734  3.21734  0.00000 -0.43468
       5     O     4.27928  4.27928  0.00000 -0.55856
       6     C     3.15423  3.15423  0.00000 -0.30846
       7     H     0.39563  0.39563  0.00000  0.20873
       8     H     0.39872  0.39872  0.00000  0.20257
       9     C     3.15465  3.15465  0.00000 -0.30929
      10     H     0.41147  0.41147  0.00000  0.17707
      11     H     0.40752  0.40752  0.00000  0.18496
      12     C     3.15941  3.15941  0.00000 -0.31882
      13     H     0.41804  0.41804  0.00000  0.16392
      14     H     0.42120  0.42120  0.00000  0.15759
      15     C     3.23831  3.23831  0.00000 -0.47662
      16     H     0.42234  0.42234  0.00000  0.15532
      17     H     0.42078  0.42078  0.00000  0.15845
      18     H     0.41850  0.41850  0.00000  0.16299
      19     H     0.42076  0.42076  0.00000  0.15849
      20     H     0.42102  0.42102  0.00000  0.15796

   Total alpha = 32.00000, Total beta = 32.00000, Total charge =  0.00000
