                              Psi4 1.0.54 Driver

  ==> Input File <==

--------------------------------------------------------------------------
set {
	reference rhf
	basis cc-pvtz
}

set_num_threads( 4 )
memory 2 gb

molecule MOL {
0 1

O	 1.847685	 1.294399	 -0.000190
C	 1.704209	 0.119472	 -0.000093
C	 0.380337	 -0.600947	 -0.000234
O	 2.715427	 -0.733672	 0.000025
C	 -0.824290	 0.329213	 -0.000115
H	 0.371455	 -1.255476	 -0.865660
H	 0.371410	 -1.255787	 0.864952
C	 -2.054621	 -0.314205	 -0.632821
H	 -0.571892	 1.240778	 -0.529850
H	 -1.046624	 0.625736	 1.018674
C	 -3.273569	 0.603706	 -0.641392
H	 -1.824173	 -0.611501	 -1.653488
H	 -2.300460	 -1.229480	 -0.098898
C	 -4.503109	 -0.039122	 -1.274176
H	 -3.029461	 1.517798	 -1.175249
H	 -3.505640	 0.899963	 0.377693
H	 -4.313344	 -0.315612	 -2.306056
H	 -5.349044	 0.638395	 -1.264242
H	 -4.793532	 -0.938115	 -0.740602
C	 4.020999	 -0.192556	 0.000019
H	 4.182809	 0.412891	 -0.879449
H	 4.692590	 -1.035653	 0.000152
H	 4.182726	 0.413087	 0.879368

	symmetry c1
}
set optking {
	frozen_dihedral = ("
		9 5 3 6
	")
}

ee,wfn = optimize('scf', return_wfn=True)
oeprop( wfn, 'DIPOLE', 'QUADRUPOLE', 'MULLIKEN_CHARGES')
f=open( 'psi4out.xyz', 'w' )
f.write( "23  " )
f.write( str(ee) + "\n" )
f.write( MOL.save_string_xyz() )
f.close()
--------------------------------------------------------------------------

    Molecular point group: c1
  Charge       = 0
  Multiplicity = 1
  Basis Set: CC-PVTZ
  Basis Set:
  @DF-RHF Final Energy:  -423.12902180572615
    Total Energy =                       -423.1290218057260972
    Molecular point group: c1
  Basis Set: CC-PVTZ
  Basis Set:
  Basis Set: CC-PVTZ
  Basis Set:
  @DF-RHF Final Energy:  -423.12921315152488
    Total Energy =                       -423.1292131515255051
  Basis Set: CC-PVTZ
  Basis Set:
  Basis Set: CC-PVTZ
  Basis Set:
  @DF-RHF Final Energy:  -423.12922145106552
    Total Energy =                       -423.1292214510654048
  Basis Set: CC-PVTZ
  Basis Set:
  Basis Set: CC-PVTZ
  Basis Set:
  @DF-RHF Final Energy:  -423.12919953511761
    Total Energy =                       -423.1291995351174364
  Basis Set: CC-PVTZ
  Basis Set:
  Basis Set: CC-PVTZ
  Basis Set:
  @DF-RHF Final Energy:  -423.12927572151295
    Total Energy =                       -423.1292757215129541
  Basis Set: CC-PVTZ
  Basis Set:
  Charge       = 0
  Multiplicity = 1
  Basis Set: CC-PVTZ
  Basis Set:

    Orbital Energies (a.u.)
    -----------------------

    Doubly Occupied:

       1A    -20.596476     2A    -20.534579     3A    -11.365208
       4A    -11.278608     5A    -11.233589     6A    -11.216541
       7A    -11.215848     8A    -11.214389     9A    -11.207687
      10A     -1.472567    11A     -1.366135    12A     -1.093710
      13A     -1.044544    14A     -0.988087    15A     -0.932745
      16A     -0.844495    17A     -0.795952    18A     -0.769509
      19A     -0.701336    20A     -0.685680    21A     -0.675841
      22A     -0.650319    23A     -0.609564    24A     -0.601528
      25A     -0.573388    26A     -0.559511    27A     -0.557728
      28A     -0.526117    29A     -0.523700    30A     -0.506326
      31A     -0.483561    32A     -0.470084    33A     -0.465882
      34A     -0.462713    35A     -0.459316    36A     -0.439745

  @DF-RHF Final Energy:  -423.12927592217198

   => Energetics <=

    Nuclear Repulsion Energy =            452.9334624700920244
    One-Electron Energy =               -1473.8794677588034574
    Two-Electron Energy =                 597.8167293665388797
    DFT Exchange-Correlation Energy =       0.0000000000000000
    Empirical Dispersion Energy =           0.0000000000000000
    PCM Polarization Energy =               0.0000000000000000
    EFP Energy =                            0.0000000000000000
    Total Energy =                       -423.1292759221724964
    Molecular point group: c1
  Basis Set: CC-PVTZ
  Basis Set:

  -Total Gradient:
     Atom            X                  Y                   Z
    ------   -----------------  -----------------  -----------------
       1       -0.000017771654    -0.000011086885    -0.000014965998
       2        0.000008485829     0.000041937663     0.000003067159
       3        0.002577373603     0.003337734501    -0.001601242711
       4        0.000009916083    -0.000039742802     0.000004707154
       5       -0.001828806072    -0.002422308696    -0.003221339876
       6       -0.001834782013    -0.002376408634     0.001841980121
       7        0.000003853247    -0.000003874491    -0.000005451976
       8       -0.000005770839    -0.000002029583     0.000013866930
       9        0.001112112981     0.001474775718     0.002976458685
      10       -0.000011609431    -0.000010129421    -0.000003531532
      11       -0.000006096743    -0.000002719859     0.000010454956
      12        0.000006302423     0.000006176671     0.000004701631
      13       -0.000002551291    -0.000006095257    -0.000000594862
      14        0.000002911806     0.000005250909    -0.000007714393
      15       -0.000000643769     0.000000933198    -0.000001580658
      16        0.000002137341    -0.000000852576     0.000005586849
      17       -0.000000040184    -0.000004512915    -0.000007099627
      18       -0.000002988797     0.000004415506    -0.000002670644
      19       -0.000000608787    -0.000001802539     0.000006053774
      20       -0.000001703296     0.000015169172     0.000005632597
      21       -0.000000669594     0.000002774854    -0.000007946095
      22       -0.000009163094    -0.000006872900    -0.000000798883
      23        0.000000112258    -0.000000731633     0.000002427402

  **** Optimization is complete! (in 6 steps) ****
    Final optimized geometry and variables:
    Molecular point group: c1

    Geometry (in Angstrom), charge = 0, multiplicity = 1:

    O            1.841007668775     1.245279404877     0.271619317483
    C            1.679725995819     0.072739052454     0.261408340538
    C            0.348072164871    -0.631220877081     0.225857547981
    O            2.677992045435    -0.795148216025     0.283614365471
    C           -0.862121154418     0.299104578256     0.218639920874
    H            0.343608911494    -1.295651229523    -0.631888604642
    H            0.321912181996    -1.294594526405     1.084295190510
    C           -2.109728691343    -0.358062316239    -0.361672464681
    H           -0.616291760724     1.206279279583    -0.318342811246
    H           -1.063877921270     0.618764730650     1.236451273667
    C           -3.339847587138     0.543181114365    -0.314275587568
    H           -1.916866182314    -0.646682099244    -1.392356503154
    H           -2.320582270210    -1.279527873418     0.177044127353
    C           -4.583718797067    -0.109461439324    -0.907818838076
    H           -3.127290678274     1.465905345995    -0.846690525935
    H           -3.537759553340     0.825420062361     0.715990423688
    H           -4.429330566889    -0.371723713244    -1.949242737659
    H           -5.437623187174     0.556234499057    -0.858247224568
    H           -4.841803502757    -1.018289421809    -0.374197241593
    C            3.990859338192    -0.273398774705     0.320004644204
    H            4.184444814380     0.333553725489    -0.551995395534
    H            4.649681310500    -1.126425317653     0.333237719000
    H            4.138704325522     0.325661518720     1.206281860696

  Mulliken Charges: (a.u.)
   Center  Symbol    Alpha    Beta     Spin     Total
       1     O     4.19625  4.19625  0.00000 -0.39251
       2     C     2.80354  2.80354  0.00000  0.39292
       3     C     3.10456  3.10456  0.00000 -0.20911
       4     O     4.14685  4.14685  0.00000 -0.29370
       5     C     3.08863  3.08863  0.00000 -0.17726
       6     H     0.44011  0.44011  0.00000  0.11978
       7     H     0.43849  0.43849  0.00000  0.12303
       8     C     3.08938  3.08938  0.00000 -0.17877
       9     H     0.43885  0.43885  0.00000  0.12231
      10     H     0.45218  0.45218  0.00000  0.09565
      11     C     3.08448  3.08448  0.00000 -0.16896
      12     H     0.45498  0.45498  0.00000  0.09004
      13     H     0.45541  0.45541  0.00000  0.08917
      14     C     3.15009  3.15009  0.00000 -0.30018
      15     H     0.45249  0.45249  0.00000  0.09501
      16     H     0.45372  0.45372  0.00000  0.09257
      17     H     0.45513  0.45513  0.00000  0.08973
      18     H     0.44782  0.44782  0.00000  0.10435
      19     H     0.45554  0.45554  0.00000  0.08892
      20     C     3.03728  3.03728  0.00000 -0.07456
      21     H     0.45436  0.45436  0.00000  0.09127
      22     H     0.44542  0.44542  0.00000  0.10916
      23     H     0.45442  0.45442  0.00000  0.09115

   Total alpha = 36.00000, Total beta = 36.00000, Total charge = -0.00000

*** Psi4 exiting successfully. Buy a developer a beer!
