  ==> Input File <==

--------------------------------------------------------------------------
set {
	reference rhf
	basis 6-31G*
}

set_num_threads( 4 )
memory 2 gb

molecule MOL {
0 1

H	 -2.798360	 -0.862255	 -0.071053
N	 -1.863561	 -0.715187	 0.256814
C	 -1.344686	 0.554728	 -0.219830
H	 -1.300452	 -1.461917	 -0.101532
C	 0.081427	 0.741154	 0.254071
H	 -1.362155	 0.656231	 -1.305829
H	 -1.952773	 1.354456	 0.191809
O	 0.874168	 -0.245412	 -0.342030
H	 0.444037	 1.730782	 -0.023037
H	 0.121165	 0.653424	 1.337565
C	 2.235201	 0.045753	 -0.361603
H	 2.740556	 -0.780521	 -0.842836
H	 2.439336	 0.956589	 -0.921681
H	 2.631075	 0.163571	 0.644982

	symmetry c1
}
set optking {
	frozen_dihedral = ("
		11 8 5 3
	")
}

ee = optimize('scf')
oeprop('DIPOLE', 'QUADRUPOLE', 'MULLIKEN_CHARGES')
f=open( 'psi4out.xyz', 'w' )
f.write( "14  " )
f.write( str(ee) + "\n" )
f.write( MOL.save_string_xyz() )
f.close()
--------------------------------------------------------------------------

    Molecular point group: c1
  Charge       = 0
  Multiplicity = 1
  Basis Set: 6-31G*
  Basis Set:
  @DF-RHF Final Energy:  -248.12387887616043
    Total Energy =                       -248.1238788761605747
    Molecular point group: c1
  Basis Set: 6-31G*
  Basis Set:
  Basis Set: 6-31G*
  Basis Set:
  @DF-RHF Final Energy:  -248.12393550445498
    Total Energy =                       -248.1239355044548347
  Basis Set: 6-31G*
  Basis Set:
  Basis Set: 6-31G*
  Basis Set:
  @DF-RHF Final Energy:  -248.12394253662279
    Total Energy =                       -248.1239425366227351
  Basis Set: 6-31G*
  Basis Set:
  Charge       = 0
  Multiplicity = 1
  Basis Set: 6-31G*
  Basis Set:

    Orbital Energies (a.u.)
    -----------------------

    Doubly Occupied:

       1A    -20.556656     2A    -15.527985     3A    -11.267106
       4A    -11.265755     5A    -11.240697     6A     -1.380496
       7A     -1.173137     8A     -0.998976     9A     -0.908540
      10A     -0.814555    11A     -0.681839    12A     -0.675757
      13A     -0.644497    14A     -0.608962    15A     -0.606632
      16A     -0.540949    17A     -0.531737    18A     -0.496996
      19A     -0.472476    20A     -0.416247    21A     -0.379410

  @DF-RHF Final Energy:  -248.12394284705093

   => Energetics <=

    Nuclear Repulsion Energy =            194.3621480752956074
    One-Electron Energy =                -722.5933746512996549
    Two-Electron Energy =                 280.1072837289530071
    DFT Exchange-Correlation Energy =       0.0000000000000000
    Empirical Dispersion Energy =           0.0000000000000000
    PCM Polarization Energy =               0.0000000000000000
    EFP Energy =                            0.0000000000000000
    Total Energy =                       -248.1239428470510120
    Molecular point group: c1
  Basis Set: 6-31G*
  Basis Set:

  -Total Gradient:
     Atom            X                  Y                   Z
    ------   -----------------  -----------------  -----------------
       1        0.000007556277     0.000008664062    -0.000002209936
       2       -0.000005549112    -0.000023485952    -0.000004614128
       3        0.000359463953     0.001296966634    -0.001596687355
       4       -0.000000836901     0.000006486352    -0.000000493643
       5       -0.000610788416    -0.001263317896     0.001261099264
       6        0.000023462827    -0.000010764285     0.000023914016
       7       -0.000012350527     0.000001194546     0.000003876709
       8        0.000504042494    -0.001069547266     0.002476171645
       9        0.000001156974     0.000016113503    -0.000001800571
      10       -0.000008972734    -0.000008161279    -0.000028716967
      11       -0.000244128046     0.001047057536    -0.002140895277
      12        0.000012822188    -0.000002089171     0.000002334363
      13       -0.000009456641     0.000001200271     0.000010293899
      14       -0.000016422340    -0.000000317058    -0.000002272018

  **** Optimization is complete! (in 4 steps) ****
    Final optimized geometry and variables:
    Molecular point group: c1

    Geometry (in Angstrom), charge = 0, multiplicity = 1:

    H           -2.802308473420    -0.930570845619     0.003084308740
    N           -1.871391778484    -0.780241545145     0.340252674642
    C           -1.354481738013     0.495199493876    -0.123928704607
    H           -1.301490869552    -1.523221617535    -0.015459436289
    C            0.072345174821     0.683476373034     0.348267941835
    H           -1.370362348871     0.606538480043    -1.208971660032
    H           -1.965403221530     1.289022564497     0.295231525271
    O            0.868953654280    -0.303709252242    -0.245192994883
    H            0.421677509171     1.672859759034     0.055480580906
    H            0.125803371333     0.608798100249     1.431488617374
    C            2.231303299691    -0.019604885677    -0.270201219094
    H            2.730629719792    -0.851985827070    -0.747140232222
    H            2.436013204277     0.886427008618    -0.837068644147
    H            2.634723167028     0.102308323585     0.733226621316

  Mulliken Charges: (a.u.)
   Center  Symbol    Alpha    Beta     Spin     Total
       1     H     0.33299  0.33299  0.00000  0.33403
       2     N     3.92529  3.92529  0.00000 -0.85058
       3     C     3.06713  3.06713  0.00000 -0.13427
       4     H     0.32313  0.32313  0.00000  0.35374
       5     C     2.98991  2.98991  0.00000  0.02019
       6     H     0.42833  0.42833  0.00000  0.14333
       7     H     0.42108  0.42108  0.00000  0.15785
       8     O     4.31049  4.31049  0.00000 -0.62099
       9     H     0.43224  0.43224  0.00000  0.13553
      10     H     0.42021  0.42021  0.00000  0.15958
      11     C     3.07857  3.07857  0.00000 -0.15715
      12     H     0.41259  0.41259  0.00000  0.17481
      13     H     0.42952  0.42952  0.00000  0.14097
      14     H     0.42852  0.42852  0.00000  0.14295

   Total alpha = 21.00000, Total beta = 21.00000, Total charge =  0.00000
