                              Psi4 1.0.54 Driver

  ==> Input File <==

--------------------------------------------------------------------------
set {
	reference rhf
	basis cc-pvtz
}

set_num_threads( 4 )
memory 2 gb

molecule MOL {
0 1

H	 -3.436473	 1.252944	 -1.023892
O	 -3.458596	 0.315260	 -0.960865
C	 -3.176635	 -0.080824	 0.355601
C	 -1.763371	 0.265266	 0.799691
H	 -3.321825	 -1.153438	 0.379502
H	 -3.895468	 0.357385	 1.043382
C	 -0.673390	 -0.426948	 -0.013392
H	 -1.631049	 1.344913	 0.747560
H	 -1.664587	 -0.001624	 1.849167
C	 -1.185209	 -1.626982	 -0.805813
H	 0.122624	 -0.742784	 0.651832
H	 -0.230851	 0.293780	 -0.696924
C	 -0.090427	 -2.312184	 -1.621288
H	 -1.634905	 -2.337002	 -0.118400
H	 -1.980203	 -1.305175	 -1.475350
C	 -0.569644	 -3.471991	 -2.495957
H	 0.686950	 -2.668651	 -0.949376
H	 0.380531	 -1.570915	 -2.261084
C	 -1.083617	 -4.684334	 -1.723168
H	 0.254406	 -3.787572	 -3.128512
H	 -1.347109	 -3.117041	 -3.167506
H	 -0.328803	 -5.057844	 -1.038462
H	 -1.341654	 -5.490654	 -2.400299
H	 -1.968862	 -4.451051	 -1.143923

	symmetry c1
}
set optking {
	frozen_dihedral = ("
		11 7 4 3
	")
}

ee,wfn = optimize('scf', return_wfn=True)
oeprop( wfn, 'DIPOLE', 'QUADRUPOLE', 'MULLIKEN_CHARGES')
f=open( 'psi4out.xyz', 'w' )
f.write( "24  " )
f.write( str(ee) + "\n" )
f.write( MOL.save_string_xyz() )
f.close()
--------------------------------------------------------------------------

    Molecular point group: c1
  Charge       = 0
  Multiplicity = 1
  Basis Set: CC-PVTZ
  Basis Set:
  @DF-RHF Final Energy:  -349.36897579840019
    Total Energy =                       -349.3689757984004700
    Molecular point group: c1
  Basis Set: CC-PVTZ
  Basis Set:
  Basis Set: CC-PVTZ
  Basis Set:
  @DF-RHF Final Energy:  -349.37111584148647
    Total Energy =                       -349.3711158414858460
  Basis Set: CC-PVTZ
  Basis Set:
  Basis Set: CC-PVTZ
  Basis Set:
  @DF-RHF Final Energy:  -349.37261544339316
    Total Energy =                       -349.3726154433928741
  Basis Set: CC-PVTZ
  Basis Set:
  Basis Set: CC-PVTZ
  Basis Set:
  @DF-RHF Final Energy:  -349.37278459943786
    Total Energy =                       -349.3727845994380914
  Basis Set: CC-PVTZ
  Basis Set:
  Basis Set: CC-PVTZ
  Basis Set:
  @DF-RHF Final Energy:  -349.37279792633433
    Total Energy =                       -349.3727979263345560
  Basis Set: CC-PVTZ
  Basis Set:
  Basis Set: CC-PVTZ
  Basis Set:
  @DF-RHF Final Energy:  -349.37280509638117
    Total Energy =                       -349.3728050963809437
  Basis Set: CC-PVTZ
  Basis Set:
  Basis Set: CC-PVTZ
  Basis Set:
  @DF-RHF Final Energy:  -349.37280822762511
    Total Energy =                       -349.3728082276245459
  Basis Set: CC-PVTZ
  Basis Set:
  Charge       = 0
  Multiplicity = 1
  Basis Set: CC-PVTZ
  Basis Set:

    Orbital Energies (a.u.)
    -----------------------

    Doubly Occupied:

       1A    -20.546297     2A    -11.265298     3A    -11.216463
       4A    -11.211578     5A    -11.208728     6A    -11.206539
       7A    -11.203547     8A    -11.202476     9A     -1.363824
      10A     -1.085925    11A     -1.045397    12A     -0.983177
      13A     -0.914672    14A     -0.861227    15A     -0.792839
      16A     -0.769498    17A     -0.682692    18A     -0.652351
      19A     -0.623223    20A     -0.619731    21A     -0.596568
      22A     -0.586085    23A     -0.554989    24A     -0.538612
      25A     -0.517053    26A     -0.514326    27A     -0.491399
      28A     -0.480427    29A     -0.469797    30A     -0.458806
      31A     -0.447816    32A     -0.434066    33A     -0.425091

  @DF-RHF Final Energy:  -349.37280769197520

   => Energetics <=

    Nuclear Repulsion Energy =            395.0788335797100785
    One-Electron Energy =               -1256.9622436444551568
    Two-Electron Energy =                 512.5106023727698812
    DFT Exchange-Correlation Energy =       0.0000000000000000
    Empirical Dispersion Energy =           0.0000000000000000
    PCM Polarization Energy =               0.0000000000000000
    EFP Energy =                            0.0000000000000000
    Total Energy =                       -349.3728076919751402
    Molecular point group: c1
  Basis Set: CC-PVTZ
  Basis Set:

  -Total Gradient:
     Atom            X                  Y                   Z
    ------   -----------------  -----------------  -----------------
       1        0.000029744062     0.000071003723     0.000067938719
       2        0.000010695652    -0.000236660598    -0.000023692700
       3       -0.000110032112    -0.003367627249     0.002917125554
       4       -0.000412749645     0.004047000607    -0.004003671478
       5       -0.000025462822     0.000031128379    -0.000085657047
       6        0.000010499052    -0.000007621396     0.000061581510
       7        0.003466496487     0.004510829823     0.000207976916
       8       -0.000043202286     0.000038644089     0.000019030664
       9       -0.000050837645     0.000004993052    -0.000011306990
      10       -0.000049412193     0.000024764542    -0.000085459154
      11       -0.002939444967    -0.005106389262     0.000812177759
      12        0.000027376755    -0.000005635867    -0.000003174343
      13        0.000012170870    -0.000014034191     0.000079045243
      14        0.000037222144     0.000041538005    -0.000003780348
      15        0.000034965066    -0.000008810891     0.000065753198
      16       -0.000055708506     0.000031840006     0.000019404615
      17        0.000020122504    -0.000020452698     0.000003081931
      18        0.000022838566     0.000001005969     0.000000905124
      19        0.000003350763    -0.000020169930    -0.000014774136
      20       -0.000006261224     0.000015855753    -0.000006131965
      21       -0.000014865387    -0.000007210886     0.000011632762
      22       -0.000001531555     0.000004846786     0.000006686082
      23        0.000011891606    -0.000000975258     0.000006420613
      24        0.000022134811    -0.000027862504    -0.000041112530

  **** Optimization is complete! (in 8 steps) ****
    Final optimized geometry and variables:
    Molecular point group: c1

    Geometry (in Angstrom), charge = 0, multiplicity = 1:

    H           -1.911844118834     2.919097004821    -0.116471231522
    O           -2.035131956751     1.988688537225    -0.063533906934
    C           -1.679398715570     1.533712868744     1.217135396648
    C           -0.214254892463     1.757437817173     1.560964133158
    H           -1.924848772731     0.482387441863     1.237327582253
    H           -2.294412576571     2.019015992040     1.971062026075
    C            0.841254502202     1.013523155194     0.710192365845
    H           -0.008988112051     2.824583083334     1.540953059253
    H           -0.101750275115     1.459538565086     2.600297059903
    C            0.351862177028    -0.222248141753    -0.049830188994
    H            1.625364834309     0.670903796931     1.377917937487
    H            1.295726967789     1.698707880215     0.003821216568
    C            1.482807261719    -0.899680133610    -0.822427302077
    H           -0.079718389141    -0.927320335836     0.653853379713
    H           -0.436664374354     0.054347541514    -0.739303847980
    C            1.050642381796    -2.094923740557    -1.673860294579
    H            2.257944003855    -1.217907115276    -0.128335888695
    H            1.945656300642    -0.164229805120    -1.475025106934
    C            0.557599843112    -3.301105143135    -0.878125072801
    H            1.893712381376    -2.403642011527    -2.284628357030
    H            0.274896561737    -1.778961096331    -2.366021955035
    H            1.308593155025    -3.632602906342    -0.167843669237
    H            0.338506762310    -4.133207643731    -1.537594951647
    H           -0.346576827961    -3.079455337869    -0.324298958009

  Mulliken Charges: (a.u.)
   Center  Symbol    Alpha    Beta     Spin     Total
       1     H     0.39595  0.39595  0.00000  0.20810
       2     O     4.20579  4.20579  0.00000 -0.41158
       3     C     2.98122  2.98122  0.00000  0.03755
       4     C     3.11003  3.11003  0.00000 -0.22006
       5     H     0.45533  0.45533  0.00000  0.08933
       6     H     0.45451  0.45451  0.00000  0.09097
       7     C     3.08743  3.08743  0.00000 -0.17487
       8     H     0.45201  0.45201  0.00000  0.09599
       9     H     0.45291  0.45291  0.00000  0.09418
      10     C     3.10123  3.10123  0.00000 -0.20247
      11     H     0.45131  0.45131  0.00000  0.09738
      12     H     0.45243  0.45243  0.00000  0.09514
      13     C     3.09587  3.09587  0.00000 -0.19174
      14     H     0.45505  0.45505  0.00000  0.08989
      15     H     0.44067  0.44067  0.00000  0.11867
      16     C     3.08942  3.08942  0.00000 -0.17885
      17     H     0.45564  0.45564  0.00000  0.08872
      18     H     0.45064  0.45064  0.00000  0.09872
      19     C     3.15290  3.15290  0.00000 -0.30580
      20     H     0.44967  0.44967  0.00000  0.10066
      21     H     0.45378  0.45378  0.00000  0.09244
      22     H     0.45590  0.45590  0.00000  0.08820
      23     H     0.44667  0.44667  0.00000  0.10665
      24     H     0.45361  0.45361  0.00000  0.09277

   Total alpha = 33.00000, Total beta = 33.00000, Total charge =  0.00000

*** Psi4 exiting successfully. Buy a developer a beer!
