                              Psi4 1.0.54 Driver

  ==> Input File <==

--------------------------------------------------------------------------
set {
	reference rhf
	basis cc-pvtz
}

set_num_threads( 4 )
memory 2 gb

molecule MOL {
0 1

H	 4.505896	 0.128141	 -1.211581
C	 3.672331	 -0.468711	 -0.860801
C	 2.377480	 0.336177	 -0.873766
H	 3.598021	 -1.340257	 -1.502615
H	 3.912325	 -0.814966	 0.138962
C	 1.179013	 -0.464872	 -0.386974
H	 2.171268	 0.694654	 -1.876131
H	 2.495646	 1.217924	 -0.248357
N	 -0.036754	 0.318386	 -0.433375
H	 1.044708	 -1.332676	 -1.025760
H	 1.383929	 -0.849777	 0.616490
C	 -1.215959	 -0.382435	 0.027143
H	 0.083219	 1.158368	 0.093271
C	 -2.451944	 0.502410	 -0.038737
H	 -1.361934	 -1.249839	 -0.609629
H	 -1.097701	 -0.764364	 1.045584
C	 -3.752217	 -0.292550	 0.005776
H	 -2.407325	 1.093801	 -0.946480
H	 -2.431979	 1.206234	 0.790023
H	 -3.817783	 -0.982946	 -0.828547
H	 -4.612613	 0.364348	 -0.042306
H	 -3.830160	 -0.871666	 0.919868

	symmetry c1
}
set optking {
	frozen_dihedral = ("
		15 12 14 18
	")
}

ee,wfn = optimize('scf', return_wfn=True)
oeprop( wfn, 'DIPOLE', 'QUADRUPOLE', 'MULLIKEN_CHARGES')
f=open( 'psi4out.xyz', 'w' )
f.write( "22  " )
f.write( str(ee) + "\n" )
f.write( MOL.save_string_xyz() )
f.close()
--------------------------------------------------------------------------

    Molecular point group: c1
  Charge       = 0
  Multiplicity = 1
  Basis Set: CC-PVTZ
  Basis Set:
  @DF-RHF Final Energy:  -290.48895942100722
    Total Energy =                       -290.4889594210073938
    Molecular point group: c1
  Basis Set: CC-PVTZ
  Basis Set:
  Basis Set: CC-PVTZ
  Basis Set:
  @DF-RHF Final Energy:  -290.48907668762013
    Total Energy =                       -290.4890766876201269
  Basis Set: CC-PVTZ
  Basis Set:
  Basis Set: CC-PVTZ
  Basis Set:
  @DF-RHF Final Energy:  -290.48912372095577
    Total Energy =                       -290.4891237209556039
  Basis Set: CC-PVTZ
  Basis Set:
  Charge       = 0
  Multiplicity = 1
  Basis Set: CC-PVTZ
  Basis Set:

    Orbital Energies (a.u.)
    -----------------------

    Doubly Occupied:

       1A    -15.528657     2A    -11.236302     3A    -11.236097
       4A    -11.211853     5A    -11.211661     6A    -11.207805
       7A    -11.207591     8A     -1.207671     9A     -1.060235
      10A     -1.027120    11A     -0.928837    12A     -0.869097
      13A     -0.812511    14A     -0.794258    15A     -0.668084
      16A     -0.627217    17A     -0.617331    18A     -0.614807
      19A     -0.573761    20A     -0.563411    21A     -0.530726
      22A     -0.528552    23A     -0.517093    24A     -0.486404
      25A     -0.481536    26A     -0.474420    27A     -0.465060
      28A     -0.451977    29A     -0.361450

  @DF-RHF Final Energy:  -290.48912471223503

   => Energetics <=

    Nuclear Repulsion Energy =            313.6225841632317497
    One-Electron Energy =               -1013.2203657455627308
    Two-Electron Energy =                 409.1086568700960697
    DFT Exchange-Correlation Energy =       0.0000000000000000
    Empirical Dispersion Energy =           0.0000000000000000
    PCM Polarization Energy =               0.0000000000000000
    EFP Energy =                            0.0000000000000000
    Total Energy =                       -290.4891247122349114
    Molecular point group: c1
  Basis Set: CC-PVTZ
  Basis Set:

  -Total Gradient:
     Atom            X                  Y                   Z
    ------   -----------------  -----------------  -----------------
       1        0.000009472985    -0.000004205558    -0.000001993824
       2        0.000016390465     0.000006477622    -0.000018232936
       3        0.000021720196    -0.000018128794    -0.000001267167
       4        0.000001795752    -0.000001751792     0.000001458118
       5       -0.000003812817     0.000003948136    -0.000000850147
       6        0.000040582202     0.000012293952     0.000035811060
       7        0.000007794497     0.000003415845    -0.000000746586
       8       -0.000007131857    -0.000007219408     0.000003009439
       9        0.000014518572     0.000006388470    -0.000052459716
      10       -0.000002557047     0.000018534736    -0.000002434513
      11       -0.000002463803    -0.000007574760    -0.000001687422
      12        0.001837984681     0.002551242396    -0.002754643545
      13        0.000020602470     0.000007312728     0.000023563915
      14       -0.002329665377    -0.003243154954    -0.001335397169
      15       -0.001239257078    -0.001647641687     0.002525752499
      16        0.000002526425     0.000007834017    -0.000012198374
      17       -0.000055421066    -0.000005523745    -0.000018830793
      18        0.001624285068     0.002293202475     0.001607084045
      19        0.000003939940    -0.000003330278    -0.000008856335
      20        0.000014283981     0.000021766738     0.000041016942
      21        0.000009116046    -0.000023286536    -0.000000718394
      22        0.000015295767     0.000029400398    -0.000027379098

  **** Optimization is complete! (in 4 steps) ****
    Final optimized geometry and variables:
    Molecular point group: c1

    Geometry (in Angstrom), charge = 0, multiplicity = 1:

    H            4.548556692588     0.206035954585    -0.813436508958
    C            3.712878310790    -0.390597239293    -0.467286495705
    C            2.414661511261     0.407891328870    -0.507938040602
    H            3.651565453254    -1.270043452050    -1.099629264061
    H            3.940292633068    -0.723766569013     0.539837515724
    C            1.212870110109    -0.393599039470    -0.030125155214
    H            2.221642599275     0.754561471250    -1.517025640349
    H            2.519384329350     1.296794586828     0.109686231068
    N           -0.006073088484     0.382747016972    -0.104040006264
    H            1.092015355824    -1.269027045100    -0.661175715097
    H            1.404112310379    -0.766364253988     0.980495362441
    C           -1.188609077396    -0.321993679145     0.339155763790
    H            0.099442715024     1.225998883152     0.421010367973
    C           -2.424506548864     0.569173923763     0.310752542242
    H           -1.346063486477    -1.183671997728    -0.302797780585
    H           -1.069553063497    -0.729017982234     1.348283333896
    C           -3.728831581428    -0.212240345271     0.405955683973
    H           -2.397996561915     1.171066936179    -0.590926494622
    H           -2.369102512912     1.273838618639     1.137723957010
    H           -3.849735412795    -0.875548768849    -0.443466327553
    H           -4.582855120559     0.454160870120     0.430045721607
    H           -3.759020235636    -0.818463194306     1.305478432337

  Mulliken Charges: (a.u.)
   Center  Symbol    Alpha    Beta     Spin     Total
       1     H     0.44769  0.44769  0.00000  0.10461
       2     C     3.15361  3.15361  0.00000 -0.30722
       3     C     3.08009  3.08009  0.00000 -0.16018
       4     H     0.45474  0.45474  0.00000  0.09053
       5     H     0.45614  0.45614  0.00000  0.08772
       6     C     3.02263  3.02263  0.00000 -0.04527
       7     H     0.44915  0.44915  0.00000  0.10171
       8     H     0.45971  0.45971  0.00000  0.08057
       9     N     3.63717  3.63717  0.00000 -0.27433
      10     H     0.45904  0.45904  0.00000  0.08192
      11     H     0.47433  0.47433  0.00000  0.05134
      12     C     3.02165  3.02165  0.00000 -0.04329
      13     H     0.44572  0.44572  0.00000  0.10855
      14     C     3.08436  3.08436  0.00000 -0.16873
      15     H     0.46111  0.46111  0.00000  0.07778
      16     H     0.47510  0.47510  0.00000  0.04980
      17     C     3.15218  3.15218  0.00000 -0.30437
      18     H     0.44955  0.44955  0.00000  0.10091
      19     H     0.45805  0.45805  0.00000  0.08390
      20     H     0.45396  0.45396  0.00000  0.09207
      21     H     0.44806  0.44806  0.00000  0.10389
      22     H     0.45595  0.45595  0.00000  0.08809

   Total alpha = 29.00000, Total beta = 29.00000, Total charge =  0.00000

*** Psi4 exiting successfully. Buy a developer a beer!
