  ==> Input File <==

--------------------------------------------------------------------------
set {
	reference rhf
	basis cc-pvtz
}

set_num_threads( 4 )
memory 2 gb

molecule MOL {
0 1

H	 -3.537645	 0.227676	 0.592740
O	 -3.098730	 -0.280646	 -0.065529
C	 -1.770861	 -0.098045	 -0.018427
C	 -1.174672	 0.748208	 0.908315
C	 -0.996815	 -0.789002	 -0.935823
H	 -1.781862	 1.280856	 1.616858
C	 0.191680	 0.899054	 0.912883
H	 -1.476501	 -1.436537	 -1.641952
C	 0.370091	 -0.626903	 -0.917992
H	 0.663756	 1.548929	 1.622754
C	 0.981121	 0.213562	 0.000000
H	 0.971577	 -1.162466	 -1.629262
C	 2.447402	 0.371303	 0.000000
O	 3.227427	 -0.521847	 0.000000
H	 2.796538	 1.409525	 0.000000

	symmetry c1
}
set optking {
	frozen_dihedral = ("
		7 11 13 14
	")
}

ee = optimize('scf')
oeprop('DIPOLE', 'QUADRUPOLE', 'MULLIKEN_CHARGES')
f=open( 'psi4out.xyz', 'w' )
f.write( "15  " )
f.write( str(ee) + "\n" )
f.write( MOL.save_string_xyz() )
f.close()
--------------------------------------------------------------------------

    Molecular point group: c1
  Charge       = 0
  Multiplicity = 1
  Basis Set: CC-PVTZ
  Basis Set:
  @DF-RHF Final Energy:  -418.43325947016376
    Total Energy =                       -418.4332594701644439
    Molecular point group: c1
  Basis Set: CC-PVTZ
  Basis Set:
  Basis Set: CC-PVTZ
  Basis Set:
  @DF-RHF Final Energy:  -418.43290891377910
    Total Energy =                       -418.4329089137789879
  Basis Set: CC-PVTZ
  Basis Set:
  Basis Set: CC-PVTZ
  Basis Set:
  @DF-RHF Final Energy:  -418.43414868150938
    Total Energy =                       -418.4341486815096687
  Basis Set: CC-PVTZ
  Basis Set:
  Basis Set: CC-PVTZ
  Basis Set:
  @DF-RHF Final Energy:  -418.43451851762171
    Total Energy =                       -418.4345185176214272
  Basis Set: CC-PVTZ
  Basis Set:
  Basis Set: CC-PVTZ
  Basis Set:
  @DF-RHF Final Energy:  -418.43452696789399
    Total Energy =                       -418.4345269678942714
  Basis Set: CC-PVTZ
  Basis Set:
  Basis Set: CC-PVTZ
  Basis Set:
  @DF-RHF Final Energy:  -418.43452926101367
    Total Energy =                       -418.4345292610139495
  Basis Set: CC-PVTZ
  Basis Set:
  Charge       = 0
  Multiplicity = 1
  Basis Set: CC-PVTZ
  Basis Set:

    Orbital Energies (a.u.)
    -----------------------

    Doubly Occupied:

       1A    -20.600720     2A    -20.553478     3A    -11.326634
       4A    -11.317131     5A    -11.257531     6A    -11.251055
       7A    -11.241443     8A    -11.239338     9A    -11.234867
      10A     -1.433222    11A     -1.408609    12A     -1.173780
      13A     -1.044287    14A     -1.038963    15A     -0.894473
      16A     -0.861047    17A     -0.805922    18A     -0.759274
      19A     -0.702046    20A     -0.688907    21A     -0.648269
      22A     -0.631129    23A     -0.611414    24A     -0.609609
      25A     -0.592658    26A     -0.563109    27A     -0.543417
      28A     -0.507557    29A     -0.493523    30A     -0.423947
      31A     -0.359657    32A     -0.329967

  @DF-RHF Final Energy:  -418.43452945722146

   => Energetics <=

    Nuclear Repulsion Energy =            402.1292100582863327
    One-Electron Energy =               -1366.8335071958517801
    Two-Electron Energy =                 546.2697676803438753
    DFT Exchange-Correlation Energy =       0.0000000000000000
    Empirical Dispersion Energy =           0.0000000000000000
    PCM Polarization Energy =               0.0000000000000000
    EFP Energy =                            0.0000000000000000
    Total Energy =                       -418.4345294572215153
    Molecular point group: c1
  Basis Set: CC-PVTZ
  Basis Set:

  -Total Gradient:
     Atom            X                  Y                   Z
    ------   -----------------  -----------------  -----------------
       1        0.000013848078    -0.000003757507    -0.000003505530
       2       -0.000004082586    -0.000031887654     0.000025500283
       3       -0.000014800366     0.000083089338    -0.000104324091
       4        0.000051088706     0.000017310507     0.000027027198
       5       -0.000019118895    -0.000061357998     0.000086143043
       6       -0.000004006718    -0.000004209619    -0.000000145783
       7        0.000122029544    -0.005626820022     0.004203454711
       8        0.000005538407     0.000003618497    -0.000006320337
       9       -0.000001782415     0.000097321185    -0.000074163902
      10       -0.000002165597     0.000037855252    -0.000002906876
      11       -0.000456152796     0.007794492290    -0.002248334617
      12       -0.000000680114    -0.000003595130     0.000002275864
      13        0.000669332228    -0.001797274721    -0.010482132318
      14       -0.000385894704    -0.000503685209     0.008565863726
      15        0.000026847231    -0.000001099210     0.000011568629

  **** Optimization is complete! (in 7 steps) ****
    Final optimized geometry and variables:
    Molecular point group: c1

    Geometry (in Angstrom), charge = 0, multiplicity = 1:

    H           -3.531645602103     0.206582322045     0.652223266057
    O           -3.095383735376    -0.292300243687    -0.014902201721
    C           -1.768551953455    -0.082727468546     0.009492489295
    C           -1.169233554891     0.771690352896     0.916382905880
    C           -0.996762912428    -0.767855582601    -0.919400949309
    H           -1.763914962155     1.289748125019     1.645932788092
    C            0.199842946748     0.953861542024     0.878621605287
    H           -1.479658465135    -1.432168196564    -1.608030560558
    C            0.365851735245    -0.597500143780    -0.926968360409
    H            0.658305163791     1.624586773591     1.582128802653
    C            0.978024288395     0.287398064547    -0.047012703535
    H            0.969947650368    -1.150817417461    -1.619385033042
    C            2.458247849131     0.386947483164     0.028913429871
    O            3.189195649699    -0.543594590848     0.006775765828
    H            2.855363733313     1.395236825251     0.190174535352

  Mulliken Charges: (a.u.)
   Center  Symbol    Alpha    Beta     Spin     Total
       1     H     0.38621  0.38621  0.00000  0.22758
       2     O     4.16804  4.16804  0.00000 -0.33609
       3     C     2.85027  2.85027  0.00000  0.29946
       4     C     3.13110  3.13110  0.00000 -0.26219
       5     C     3.10012  3.10012  0.00000 -0.20025
       6     H     0.43219  0.43219  0.00000  0.13561
       7     C     3.07971  3.07971  0.00000 -0.15941
       8     H     0.41647  0.41647  0.00000  0.16706
       9     C     3.06808  3.06808  0.00000 -0.13616
      10     H     0.42230  0.42230  0.00000  0.15540
      11     C     2.97967  2.97967  0.00000  0.04065
      12     H     0.41413  0.41413  0.00000  0.17174
      13     C     2.92834  2.92834  0.00000  0.14333
      14     O     4.16537  4.16537  0.00000 -0.33075
      15     H     0.45800  0.45800  0.00000  0.08400

   Total alpha = 32.00000, Total beta = 32.00000, Total charge =  0.00000
