  ==> Input File <==

--------------------------------------------------------------------------
set {
	reference rhf
	basis cc-pvtz
}

set_num_threads( 4 )
memory 2 gb

molecule MOL {
0 1

O	 -0.295000	 1.354000	 -0.000000
C	 -0.453000	 0.176000	 -0.000000
C	 -1.787000	 -0.519000	 0.000000
O	 0.547000	 -0.695000	 -0.000000
H	 -1.868000	 -1.155000	 -0.874000
H	 -2.578000	 0.215000	 -0.001000
H	 -1.869000	 -1.153000	 0.876000
C	 1.860000	 -0.164000	 0.000000
H	 2.026000	 0.439000	 -0.881000
H	 2.523000	 -1.015000	 0.002000
H	 2.025000	 0.441000	 0.880000

	symmetry c1
}
ee = optimize('scf')
oeprop('DIPOLE', 'QUADRUPOLE', 'MULLIKEN_CHARGES')
f=open( 'psi4out.xyz', 'w' )
f.write( "11  " )
f.write( str(ee) + "\n" )
f.write( MOL.save_string_xyz() )
f.close()
--------------------------------------------------------------------------

    Molecular point group: c1
  Charge       = 0
  Multiplicity = 1
  Basis Set: CC-PVTZ
  Basis Set:
  @DF-RHF Final Energy:  -266.93914160701024
    Total Energy =                       -266.9391416070102423
    Molecular point group: c1
  Basis Set: CC-PVTZ
  Basis Set:
  Basis Set: CC-PVTZ
  Basis Set:
  @DF-RHF Final Energy:  -266.93923710885497
    Total Energy =                       -266.9392371088549680
  Basis Set: CC-PVTZ
  Basis Set:
  Basis Set: CC-PVTZ
  Basis Set:
  @DF-RHF Final Energy:  -266.93923918347502
    Total Energy =                       -266.9392391834750242
  Basis Set: CC-PVTZ
  Basis Set:
  Basis Set: CC-PVTZ
  Basis Set:
  @DF-RHF Final Energy:  -266.93922863390054
    Total Energy =                       -266.9392286339004272
  Basis Set: CC-PVTZ
  Basis Set:
  Charge       = 0
  Multiplicity = 1
  Basis Set: CC-PVTZ
  Basis Set:

    Orbital Energies (a.u.)
    -----------------------

    Doubly Occupied:

       1A    -20.598815     2A    -20.535310     3A    -11.368833
       4A    -11.279986     5A    -11.233264     6A     -1.474366
       7A     -1.367671     8A     -1.037011     9A     -0.953709
      10A     -0.780217    11A     -0.698197    12A     -0.684657
      13A     -0.681202    14A     -0.595627    15A     -0.593709
      16A     -0.561868    17A     -0.526568    18A     -0.525788
      19A     -0.462412    20A     -0.446002

  @DF-RHF Final Energy:  -266.93923960720434

   => Energetics <=

    Nuclear Repulsion Energy =            183.7166125200888587
    One-Electron Energy =                -728.5012801187587002
    Two-Electron Energy =                 277.8454279914654990
    DFT Exchange-Correlation Energy =       0.0000000000000000
    Empirical Dispersion Energy =           0.0000000000000000
    PCM Polarization Energy =               0.0000000000000000
    EFP Energy =                            0.0000000000000000
    Total Energy =                       -266.9392396072042857
    Molecular point group: c1
  Basis Set: CC-PVTZ
  Basis Set:

  -Total Gradient:
     Atom            X                  Y                   Z
    ------   -----------------  -----------------  -----------------
       1        0.000006175958    -0.000030393292    -0.000001820440
       2        0.000037657790     0.000035987815     0.000004233590
       3       -0.000015489741    -0.000002362262    -0.000002082994
       4       -0.000049964714     0.000009665230    -0.000007568448
       5       -0.000010087246    -0.000007281389     0.000005481468
       6        0.000001146718    -0.000008642135     0.000000168385
       7       -0.000010113534    -0.000006124973    -0.000003922597
       8        0.000060114787     0.000014251202     0.000011038991
       9       -0.000010047165    -0.000004460998     0.000000765059
      10       -0.000003389356     0.000003636277    -0.000001782953
      11       -0.000006003497    -0.000004275474    -0.000004510061

  **** Optimization is complete! (in 5 steps) ****
    Final optimized geometry and variables:
    Molecular point group: c1

    Geometry (in Angstrom), charge = 0, multiplicity = 1:

    O           -0.294688225898     1.318815035242    -0.000871720885
    C           -0.448732060355     0.145721336953    -0.000187113238
    C           -1.780748510110    -0.548101539475     0.000195356718
    O            0.550742897753    -0.719877086557     0.000412157028
    H           -1.859389586502    -1.183259910199    -0.872612740528
    H           -2.570236254965     0.185546492912    -0.001342039920
    H           -1.860233305028    -1.180337190539     0.875064137943
    C            1.863203762903    -0.194032785413     0.000409775189
    H            2.031502002577     0.409176651058    -0.879272742898
    H            2.524487700452    -1.045142053246     0.000793442728
    H            2.031291185284     0.409823397897     0.879686277913

  Mulliken Charges: (a.u.)
   Center  Symbol    Alpha    Beta     Spin     Total
       1     O     4.19663  4.19663  0.00000 -0.39327
       2     C     2.80187  2.80187  0.00000  0.39626
       3     C     3.13788  3.13788  0.00000 -0.27576
       4     O     4.14772  4.14772  0.00000 -0.29544
       5     H     0.44543  0.44543  0.00000  0.10914
       6     H     0.43787  0.43787  0.00000  0.12427
       7     H     0.44544  0.44544  0.00000  0.10913
       8     C     3.03351  3.03351  0.00000 -0.06702
       9     H     0.45407  0.45407  0.00000  0.09185
      10     H     0.44550  0.44550  0.00000  0.10901
      11     H     0.45408  0.45408  0.00000  0.09184

   Total alpha = 20.00000, Total beta = 20.00000, Total charge =  0.00000
