                              Psi4 1.0.54 Driver

  ==> Input File <==

--------------------------------------------------------------------------
set {
	reference rhf
	basis cc-pvtz
}

set_num_threads( 4 )
memory 2 gb

molecule MOL {
0 1

H	 3.273419	 0.176595	 -0.102789
N	 2.433987	 -0.362316	 -0.080024
C	 1.263552	 0.494993	 0.021953
H	 2.497638	 -0.973615	 0.707122
C	 -0.016533	 -0.325589	 -0.026925
H	 1.280915	 1.180773	 -0.818522
H	 1.263064	 1.106893	 0.925038
C	 -1.280353	 0.525521	 0.047747
H	 -0.016686	 -0.912532	 -0.939714
H	 -0.014099	 -1.037598	 0.796369
C	 -2.532474	 -0.225674	 -0.392582
H	 -1.155339	 1.408764	 -0.572913
H	 -1.416410	 0.884944	 1.064200
H	 -2.441671	 -0.569490	 -1.417411
H	 -3.411391	 0.405818	 -0.331977
H	 -2.706620	 -1.095594	 0.231993

	symmetry c1
}
set optking {
	frozen_dihedral = ("
		12 8 5 9
	")
}

ee,wfn = optimize('scf', return_wfn=True)
oeprop( wfn, 'DIPOLE', 'QUADRUPOLE', 'MULLIKEN_CHARGES')
f=open( 'psi4out.xyz', 'w' )
f.write( "16  " )
f.write( str(ee) + "\n" )
f.write( MOL.save_string_xyz() )
f.close()
--------------------------------------------------------------------------

    Molecular point group: c1
  Charge       = 0
  Multiplicity = 1
  Basis Set: CC-PVTZ
  Basis Set:
  @DF-RHF Final Energy:  -212.39941045849000
    Total Energy =                       -212.3994104584900242
    Molecular point group: c1
  Basis Set: CC-PVTZ
  Basis Set:
  Basis Set: CC-PVTZ
  Basis Set:
  @DF-RHF Final Energy:  -212.39951942180178
    Total Energy =                       -212.3995194218017559
  Basis Set: CC-PVTZ
  Basis Set:
  Basis Set: CC-PVTZ
  Basis Set:
  @DF-RHF Final Energy:  -212.39955266019831
    Total Energy =                       -212.3995526601983102
  Basis Set: CC-PVTZ
  Basis Set:
  Charge       = 0
  Multiplicity = 1
  Basis Set: CC-PVTZ
  Basis Set:

    Orbital Energies (a.u.)
    -----------------------

    Doubly Occupied:

       1A    -15.526661     2A    -11.238398     3A    -11.212945
       4A    -11.207874     5A    -11.206017     6A     -1.178414
       7A     -1.060470     8A     -0.959978     9A     -0.844714
      10A     -0.792743    11A     -0.665356    12A     -0.635212
      13A     -0.610791    14A     -0.574995    15A     -0.564531
      16A     -0.528669    17A     -0.498471    18A     -0.472207
      19A     -0.464997    20A     -0.460937    21A     -0.384059

  @DF-RHF Final Energy:  -212.39955322432129

   => Energetics <=

    Nuclear Repulsion Energy =            186.5387654154806967
    One-Electron Energy =                -655.6997547721008459
    Two-Electron Energy =                 256.7614361322987406
    DFT Exchange-Correlation Energy =       0.0000000000000000
    Empirical Dispersion Energy =           0.0000000000000000
    PCM Polarization Energy =               0.0000000000000000
    EFP Energy =                            0.0000000000000000
    Total Energy =                       -212.3995532243213802
    Molecular point group: c1
  Basis Set: CC-PVTZ
  Basis Set:

  -Total Gradient:
     Atom            X                  Y                   Z
    ------   -----------------  -----------------  -----------------
       1        0.000048152429    -0.000007079428     0.000008013294
       2        0.000060690643    -0.000029618007    -0.000014336944
       3       -0.000044022946     0.000025341895    -0.000003648565
       4        0.000007602096    -0.000004673449     0.000007334432
       5        0.001829572090     0.002892769094    -0.001067451119
       6       -0.000019736839    -0.000002512911     0.000012724415
       7       -0.000015145112    -0.000022379095    -0.000023991149
       8       -0.001608857598    -0.002150101633    -0.002352073707
       9       -0.001274711173    -0.002029726239     0.001300608863
      10        0.000006806211     0.000002703355    -0.000005215187
      11       -0.000058086734    -0.000015024725    -0.000015790782
      12        0.001026325687     0.001317559817     0.002141326723
      13        0.000001310035    -0.000005074921    -0.000008576252
      14        0.000001915316     0.000018241065     0.000042393485
      15        0.000024196109    -0.000020702926    -0.000002367213
      16        0.000013989787     0.000030278107    -0.000018950294

  **** Optimization is complete! (in 4 steps) ****
    Final optimized geometry and variables:
    Molecular point group: c1

    Geometry (in Angstrom), charge = 0, multiplicity = 1:

    H            3.273300398332     0.147582107013     0.053056375881
    N            2.430652434479    -0.386874763504     0.050971825883
    C            1.261752454601     0.476699969188     0.104189227285
    H            2.463575781329    -0.991705298306     0.844943369618
    C           -0.019639237728    -0.336329797988     0.014323174833
    H            1.312453400827     1.156530092570    -0.739547010071
    H            1.230718645716     1.095290056485     1.002494264992
    C           -1.285866308475     0.514122077015     0.099852545826
    H           -0.015142360313    -0.915531733377    -0.903376103838
    H           -0.031907814884    -1.067844267610     0.820561241907
    C           -2.545533479025    -0.237375460704    -0.313783268595
    H           -1.167994079792     1.406285784273    -0.509674350264
    H           -1.403122006253     0.874579272166     1.118482457350
    H           -2.487268479824    -0.557589676004    -1.348332963355
    H           -3.427293401686     0.383966736895    -0.207525400148
    H           -2.689464779254    -1.122727729987     0.296827312565

  Mulliken Charges: (a.u.)
   Center  Symbol    Alpha    Beta     Spin     Total
       1     H     0.43019  0.43019  0.00000  0.13963
       2     N     3.68926  3.68926  0.00000 -0.37852
       3     C     3.02631  3.02631  0.00000 -0.05261
       4     H     0.43084  0.43084  0.00000  0.13832
       5     C     3.07998  3.07998  0.00000 -0.15997
       6     H     0.45676  0.45676  0.00000  0.08649
       7     H     0.46865  0.46865  0.00000  0.06271
       8     C     3.08913  3.08913  0.00000 -0.17826
       9     H     0.45045  0.45045  0.00000  0.09910
      10     H     0.46014  0.46014  0.00000  0.07971
      11     C     3.14844  3.14844  0.00000 -0.29688
      12     H     0.45599  0.45599  0.00000  0.08801
      13     H     0.45567  0.45567  0.00000  0.08866
      14     H     0.45414  0.45414  0.00000  0.09173
      15     H     0.44902  0.44902  0.00000  0.10197
      16     H     0.45504  0.45504  0.00000  0.08991

   Total alpha = 21.00000, Total beta = 21.00000, Total charge = -0.00000

*** Psi4 exiting successfully. Buy a developer a beer!
