  ==> Input File <==

--------------------------------------------------------------------------
set {
	reference rhf
	basis 6-31G*
}

set_num_threads( 4 )
memory 2 gb

molecule MOL {
0 1

H	 -3.269016	 -0.876744	 0.468090
C	 -2.809304	 0.000122	 0.025886
N	 -1.391456	 0.000019	 0.300661
H	 -3.037557	 -0.000063	 -1.044252
H	 -3.269223	 0.876956	 0.468000
C	 -1.091129	 -0.458496	 1.642807
C	 -0.782165	 1.291447	 0.050086
H	 -1.528129	 0.199921	 2.399791
H	 -1.519950	 -1.446071	 1.778344
C	 0.412914	 -0.530361	 1.855551
H	 -0.985684	 1.580127	 -0.975975
H	 -1.198712	 2.065707	 0.701638
C	 0.721877	 1.219582	 0.262830
H	 0.616432	 -0.819041	 2.881611
H	 0.829460	 -1.304620	 1.203999
N	 1.022204	 0.761067	 1.604976
H	 1.150698	 2.207158	 0.127293
H	 1.158878	 0.561165	 -0.494154
C	 2.440052	 0.760965	 1.879752
H	 2.614245	 0.472522	 2.910397
H	 2.841529	 1.758505	 1.739904
H	 3.000368	 0.076017	 1.236177

	symmetry c1
}
set optking {
	frozen_dihedral = ("
		6 3 2 4
	")
}

ee = optimize('scf')
oeprop('DIPOLE', 'QUADRUPOLE', 'MULLIKEN_CHARGES')
f=open( 'psi4out.xyz', 'w' )
f.write( "22  " )
f.write( str(ee) + "\n" )
f.write( MOL.save_string_xyz() )
f.close()
--------------------------------------------------------------------------

    Molecular point group: c1
  Charge       = 0
  Multiplicity = 1
  Basis Set: 6-31G*
  Basis Set:
  @DF-RHF Final Energy:  -344.22864509233955
    Total Energy =                       -344.2286450923393204
    Molecular point group: c1
  Basis Set: 6-31G*
  Basis Set:
  Basis Set: 6-31G*
  Basis Set:
  @DF-RHF Final Energy:  -344.22956237432800
    Total Energy =                       -344.2295623743279975
  Basis Set: 6-31G*
  Basis Set:
  Basis Set: 6-31G*
  Basis Set:
  @DF-RHF Final Energy:  -344.22966664625716
    Total Energy =                       -344.2296666462574422
  Basis Set: 6-31G*
  Basis Set:
  Charge       = 0
  Multiplicity = 1
  Basis Set: 6-31G*
  Basis Set:

    Orbital Energies (a.u.)
    -----------------------

    Doubly Occupied:

       1A    -15.541879     2A    -15.540562     3A    -11.238781
       4A    -11.238617     5A    -11.238078     6A    -11.237988
       7A    -11.235853     8A    -11.235778     9A     -1.254666
      10A     -1.203451    11A     -1.024819    12A     -0.991563
      13A     -0.911570    14A     -0.867103    15A     -0.835190
      16A     -0.754097    17A     -0.665221    18A     -0.636734
      19A     -0.629782    20A     -0.626355    21A     -0.621073
      22A     -0.580711    23A     -0.548944    24A     -0.547214
      25A     -0.542432    26A     -0.518487    27A     -0.495572
      28A     -0.490149    29A     -0.465325    30A     -0.455855
      31A     -0.349595    32A     -0.342484

  @DF-RHF Final Energy:  -344.22966831432700

   => Energetics <=

    Nuclear Repulsion Energy =            421.2625673900992069
    One-Electron Energy =               -1301.2526214393712962
    Two-Electron Energy =                 535.7603857349453165
    DFT Exchange-Correlation Energy =       0.0000000000000000
    Empirical Dispersion Energy =           0.0000000000000000
    PCM Polarization Energy =               0.0000000000000000
    EFP Energy =                            0.0000000000000000
    Total Energy =                       -344.2296683143267728
    Molecular point group: c1
  Basis Set: 6-31G*
  Basis Set:

  -Total Gradient:
     Atom            X                  Y                   Z
    ------   -----------------  -----------------  -----------------
       1        0.000058020714    -0.000020742855     0.000019994424
       2       -0.000063600775     0.003416709214    -0.000307852348
       3       -0.000219005561     0.002493755531     0.001182415989
       4        0.000091413332    -0.003429837550    -0.000021779280
       5        0.000026047601    -0.000008735312     0.000011526754
       6        0.000165107018    -0.002502504176    -0.000748290536
       7       -0.000021690669     0.000115805583    -0.000035316957
       8        0.000020742120    -0.000006312104    -0.000056586137
       9       -0.000008357150    -0.000008349384    -0.000006281175
      10       -0.000018867679     0.000048414112    -0.000061848586
      11       -0.000004523015     0.000003233617    -0.000008307470
      12       -0.000007491788    -0.000053653794    -0.000001086922
      13       -0.000021303437    -0.000058739405     0.000021709065
      14       -0.000005718627    -0.000000420652     0.000005139085
      15       -0.000010182183    -0.000005010801     0.000000086951
      16        0.000014909304     0.000008195318     0.000003746570
      17        0.000001572413     0.000003290092     0.000006562393
      18        0.000007184475     0.000000083229     0.000000404079
      19       -0.000003314201     0.000006162584    -0.000003102517
      20       -0.000002348617     0.000000064245    -0.000001043605
      21        0.000002781040     0.000000782894     0.000000528163
      22       -0.000001374315    -0.000002190386    -0.000000617941

  **** Optimization is complete! (in 4 steps) ****
    Final optimized geometry and variables:
    Molecular point group: c1

    Geometry (in Angstrom), charge = 0, multiplicity = 1:

    H           -3.072893894670    -1.291785531907    -0.560719213369
    C           -2.628610169770    -0.374930548231    -0.931402962761
    N           -1.215718080726    -0.367108791813    -0.630647656133
    H           -2.779136765393    -0.363029980913    -2.005928225482
    H           -3.170396705839     0.463874424439    -0.486845157721
    C           -0.907490123602    -0.835556890801     0.705454467999
    C           -0.596960853667     0.913311430316    -0.902234455120
    H           -1.333929269139    -0.183942879811     1.474489503893
    H           -1.335342907388    -1.823734010457     0.835887710997
    C            0.598727286274    -0.912003551283     0.901745247138
    H           -0.806348501762     1.190489934377    -1.930637538024
    H           -1.003684776873     1.699258485451    -0.258468469899
    C            0.907621176931     0.831983524733    -0.697947618791
    H            0.812464075065    -1.202080982344     1.925348603340
    H            1.005282815396    -1.687349579305     0.245091154143
    N            1.211147526151     0.376989048778     0.644898291244
    H            1.342918327023     1.815846729363    -0.839789898511
    H            1.336562375681     0.167060835027    -1.453870667625
    C            2.630093496191     0.372218988084     0.913790261091
    H            2.807729939220     0.086875560328     1.944726849980
    H            3.034897776187     1.367637491269     0.768574487015
    H            3.185127645123    -0.317139398394     0.270291115093

  Mulliken Charges: (a.u.)
   Center  Symbol    Alpha    Beta     Spin     Total
       1     H     0.41858  0.41858  0.00000  0.16284
       2     C     3.13918  3.13918  0.00000 -0.27835
       3     N     3.78991  3.78991  0.00000 -0.57982
       4     H     0.41606  0.41606  0.00000  0.16788
       5     H     0.43223  0.43223  0.00000  0.13555
       6     C     3.05427  3.05427  0.00000 -0.10854
       7     C     3.05465  3.05465  0.00000 -0.10930
       8     H     0.42910  0.42910  0.00000  0.14179
       9     H     0.41807  0.41807  0.00000  0.16386
      10     C     3.05694  3.05694  0.00000 -0.11388
      11     H     0.41807  0.41807  0.00000  0.16387
      12     H     0.42861  0.42861  0.00000  0.14279
      13     C     3.05652  3.05652  0.00000 -0.11303
      14     H     0.41805  0.41805  0.00000  0.16390
      15     H     0.42868  0.42868  0.00000  0.14264
      16     N     3.78713  3.78713  0.00000 -0.57426
      17     H     0.41803  0.41803  0.00000  0.16395
      18     H     0.42870  0.42870  0.00000  0.14261
      19     C     3.14022  3.14022  0.00000 -0.28043
      20     H     0.41677  0.41677  0.00000  0.16646
      21     H     0.41677  0.41677  0.00000  0.16646
      22     H     0.43348  0.43348  0.00000  0.13303

   Total alpha = 32.00000, Total beta = 32.00000, Total charge =  0.00000
