  ==> Input File <==

--------------------------------------------------------------------------
set {
	reference rhf
	basis 6-31G*
}

set_num_threads( 1 )
memory 2 gb

molecule MOL {
0 1

O	 1.846825	 1.296220	 0.000415
C	 1.705091	 0.115954	 0.001797
C	 0.381791	 -0.609817	 0.001258
O	 2.721346	 -0.737485	 -0.000216
C	 -0.823008	 0.326187	 0.001381
H	 0.371250	 -1.265087	 -0.865474
H	 0.370908	 -1.265746	 0.867490
C	 -0.649737	 1.495390	 -0.969188
H	 -0.983687	 0.702057	 1.006912
H	 -1.714119	 -0.237871	 -0.255656
C	 -1.848890	 2.444993	 -0.981234
H	 0.247416	 2.054927	 -0.708361
H	 -0.486626	 1.111945	 -1.975293
C	 -1.675699	 3.612350	 -1.952076
H	 -2.011590	 2.830918	 0.022624
H	 -2.745724	 1.887697	 -1.242475
H	 -0.805334	 4.209903	 -1.695934
H	 -2.541581	 4.266949	 -1.937963
H	 -1.544833	 3.259124	 -2.971103
C	 4.024888	 -0.184556	 -0.001949
H	 4.179030	 0.422472	 -0.882452
H	 4.701782	 -1.024608	 -0.003642
H	 4.181981	 0.421185	 0.878906

	symmetry c1
}
set optking {
	frozen_dihedral = ("
		15 11 8 12,
		9 5 8 12,
		1 2 3 6,
		1 2 4 20
	")
}

ee = energy('scf')
oeprop('DIPOLE', 'QUADRUPOLE', 'MULLIKEN_CHARGES')
f=open( 'psi4out.xyz', 'w' )
f.write( "23  " )
f.write( str(ee) + "\n" )
f.write( MOL.save_string_xyz() )
f.close()
--------------------------------------------------------------------------

    Molecular point group: c1

    Geometry (in Angstrom), charge = 0, multiplicity = 1:

       Center              X                  Y                   Z               Mass
    ------------   -----------------  -----------------  -----------------  -----------------
           O          1.172962080415     0.428785067248     0.435741912436    15.994914619560
           C          1.031228080415    -0.751480932752     0.437123912436    12.000000000000
           C         -0.292071919585    -1.477251932752     0.436584912436    12.000000000000
           O          2.047483080415    -1.604919932752     0.435110912436    15.994914619560
           C         -1.496870919585    -0.541247932752     0.436707912436    12.000000000000
           H         -0.302612919585    -2.132521932752    -0.430147087564     1.007825032070
           H         -0.302954919585    -2.133180932752     1.302816912436     1.007825032070
           C         -1.323599919585     0.627955067248    -0.533861087564    12.000000000000
           H         -1.657549919585    -0.165377932752     1.442238912436     1.007825032070
           H         -2.387981919585    -1.105305932752     0.179670912436     1.007825032070
           C         -2.522752919585     1.577558067248    -0.545907087564    12.000000000000
           H         -0.426446919585     1.187492067248    -0.273034087564     1.007825032070
           H         -1.160488919585     0.244510067248    -1.539966087564     1.007825032070
           C         -2.349561919585     2.744915067248    -1.516749087564    12.000000000000
           H         -2.685452919585     1.963483067248     0.457950912436     1.007825032070
           H         -3.419586919585     1.020262067248    -0.807148087564     1.007825032070
           H         -1.479196919585     3.342468067248    -1.260607087564     1.007825032070
           H         -3.215443919585     3.399514067248    -1.502636087564     1.007825032070
           H         -2.218695919585     2.391689067248    -2.535776087564     1.007825032070
           C          3.351025080415    -1.051990932752     0.433377912436    12.000000000000
           H          3.505167080415    -0.444962932752    -0.447125087564     1.007825032070
           H          4.027919080415    -1.892042932752     0.431684912436     1.007825032070
           H          3.508118080415    -0.446249932752     1.314232912436     1.007825032070

  Charge       = 0
  Multiplicity = 1
  Basis Set: 6-31G*
  Basis Set:

    Orbital Energies (a.u.)
    -----------------------

    Doubly Occupied:

       1A    -20.606695     2A    -20.547708     3A    -11.376606
       4A    -11.282959     5A    -11.236692     6A    -11.218271
       7A    -11.204524     8A    -11.200031     9A    -11.193573
      10A     -1.473501    11A     -1.368860    12A     -1.087523
      13A     -1.037413    14A     -0.985632    15A     -0.925636
      16A     -0.840855    17A     -0.787589    18A     -0.771829
      19A     -0.700235    20A     -0.684149    21A     -0.675905
      22A     -0.638609    23A     -0.610781    24A     -0.598375
      25A     -0.562549    26A     -0.553322    27A     -0.550289
      28A     -0.531303    29A     -0.519026    30A     -0.507668
      31A     -0.489169    32A     -0.470420    33A     -0.459985
      34A     -0.455599    35A     -0.443801    36A     -0.412649

  @DF-RHF Final Energy:  -422.96279113364142

   => Energetics <=

    Nuclear Repulsion Energy =            470.1609833055902072
    One-Electron Energy =               -1508.2281128625163547
    Two-Electron Energy =                 615.1043384232855260
    DFT Exchange-Correlation Energy =       0.0000000000000000
    Empirical Dispersion Energy =           0.0000000000000000
    PCM Polarization Energy =               0.0000000000000000
    EFP Energy =                            0.0000000000000000
    Total Energy =                       -422.9627911336406214

  Mulliken Charges: (a.u.)
   Center  Symbol    Alpha    Beta     Spin     Total
       1     O     4.28808  4.28808  0.00000 -0.57615
       2     C     2.60155  2.60155  0.00000  0.79691
       3     C     3.21076  3.21076  0.00000 -0.42152
       4     O     4.30725  4.30725  0.00000 -0.61449
       5     C     3.15439  3.15439  0.00000 -0.30877
       6     H     0.39918  0.39918  0.00000  0.20164
       7     H     0.39758  0.39758  0.00000  0.20484
       8     C     3.17157  3.17157  0.00000 -0.34314
       9     H     0.41698  0.41698  0.00000  0.16605
      10     H     0.41764  0.41764  0.00000  0.16471
      11     C     3.14939  3.14939  0.00000 -0.29878
      12     H     0.37757  0.37757  0.00000  0.24485
      13     H     0.43208  0.43208  0.00000  0.13584
      14     C     3.23863  3.23863  0.00000 -0.47726
      15     H     0.42474  0.42474  0.00000  0.15052
      16     H     0.42892  0.42892  0.00000  0.14216
      17     H     0.42009  0.42009  0.00000  0.15982
      18     H     0.42168  0.42168  0.00000  0.15664
      19     H     0.42357  0.42357  0.00000  0.15287
      20     C     3.09273  3.09273  0.00000 -0.18546
      21     H     0.40892  0.40892  0.00000  0.18215
      22     H     0.40783  0.40783  0.00000  0.18434
      23     H     0.40888  0.40888  0.00000  0.18225

   Total alpha = 36.00000, Total beta = 36.00000, Total charge =  0.00000
