  ==> Input File <==

--------------------------------------------------------------------------
set {
	reference rhf
	basis cc-pvtz
}

set_num_threads( 4 )
memory 2 gb

molecule MOL {
0 1

H	 -3.162190	 0.493205	 -0.000107
C	 -2.363908	 -0.234727	 0.000005
O	 -1.158738	 0.454634	 -0.000087
H	 -2.464314	 -0.863616	 -0.882153
H	 -2.464327	 -0.863359	 0.882345
C	 -0.259069	 0.043071	 -0.980663
C	 1.007467	 0.868251	 -0.874091
H	 -0.703116	 0.162313	 -1.969219
H	 -0.029384	 -1.015479	 -0.856739
C	 2.047127	 0.476733	 -1.918203
H	 0.747322	 1.915605	 -0.980397
H	 1.415717	 0.747131	 0.123213
H	 1.667157	 0.613542	 -2.925176
H	 2.940373	 1.081196	 -1.819437
H	 2.340237	 -0.562641	 -1.814006

	symmetry c1
}
set optking {
	frozen_dihedral = ("
		6 3 2 4
	")
}

ee = optimize('scf')
oeprop('DIPOLE', 'QUADRUPOLE', 'MULLIKEN_CHARGES')
f=open( 'psi4out.xyz', 'w' )
f.write( "15  " )
f.write( str(ee) + "\n" )
f.write( MOL.save_string_xyz() )
f.close()
--------------------------------------------------------------------------

    Molecular point group: c1
  Charge       = 0
  Multiplicity = 1
  Basis Set: CC-PVTZ
  Basis Set:
  @DF-RHF Final Energy:  -232.22443908111396
    Total Energy =                       -232.2244390811138146
    Molecular point group: c1
  Basis Set: CC-PVTZ
  Basis Set:
  Basis Set: CC-PVTZ
  Basis Set:
  @DF-RHF Final Energy:  -232.22472085043231
    Total Energy =                       -232.2247208504322202
  Basis Set: CC-PVTZ
  Basis Set:
  Basis Set: CC-PVTZ
  Basis Set:
  @DF-RHF Final Energy:  -232.22481062075929
    Total Energy =                       -232.2248106207592855
  Basis Set: CC-PVTZ
  Basis Set:
  Charge       = 0
  Multiplicity = 1
  Basis Set: CC-PVTZ
  Basis Set:

    Orbital Energies (a.u.)
    -----------------------

    Doubly Occupied:

       1A    -20.544105     2A    -11.264884     3A    -11.261301
       4A    -11.212239     5A    -11.210465     6A     -1.377072
       7A     -1.058034     8A     -0.956103     9A     -0.877412
      10A     -0.809210    11A     -0.673271    12A     -0.653957
      13A     -0.631695    14A     -0.608300    15A     -0.563717
      16A     -0.545393    17A     -0.502934    18A     -0.489602
      19A     -0.479167    20A     -0.462033    21A     -0.411227

  @DF-RHF Final Energy:  -232.22481116663704

   => Energetics <=

    Nuclear Repulsion Energy =            189.6816235125987760
    One-Electron Energy =                -690.6286252551482221
    Two-Electron Energy =                 268.7221905759122933
    DFT Exchange-Correlation Energy =       0.0000000000000000
    Empirical Dispersion Energy =           0.0000000000000000
    PCM Polarization Energy =               0.0000000000000000
    EFP Energy =                            0.0000000000000000
    Total Energy =                       -232.2248111666371528
    Molecular point group: c1
  Basis Set: CC-PVTZ
  Basis Set:

  -Total Gradient:
     Atom            X                  Y                   Z
    ------   -----------------  -----------------  -----------------
       1       -0.000027942584    -0.000004121085    -0.000000692543
       2       -0.000960423733     0.001817077852    -0.001201623111
       3        0.000669583268    -0.001483783520     0.001251638808
       4        0.000646922090    -0.001074270849     0.000695283471
       5        0.000016110556    -0.000010156706     0.000002585898
       6       -0.000365660491     0.000735444382    -0.000703830288
       7       -0.000015839003    -0.000010627890    -0.000019852359
       8       -0.000005916402     0.000009511423     0.000029804479
       9       -0.000007316883     0.000008839278    -0.000014202677
      10        0.000042437733     0.000020844469    -0.000015005555
      11        0.000006589320    -0.000001319354     0.000000874493
      12       -0.000016830056    -0.000006495625    -0.000010633013
      13        0.000002868852    -0.000001748292     0.000001436768
      14        0.000019334971    -0.000004450578    -0.000017621124
      15       -0.000003917638     0.000005256496     0.000001836756

  **** Optimization is complete! (in 4 steps) ****
    Final optimized geometry and variables:
    Molecular point group: c1

    Geometry (in Angstrom), charge = 0, multiplicity = 1:

    H           -3.012130280890     0.187979996246     0.783563523020
    C           -2.204582588331    -0.533158848778     0.760562060094
    O           -0.983672821830     0.139003393541     0.736752558683
    H           -2.333330211280    -1.171352087151    -0.107800148149
    H           -2.272787699832    -1.157638930069     1.645776008449
    C           -0.076288010253    -0.272189882046    -0.238552920391
    C            1.185694863588     0.558382867790    -0.121212747404
    H           -0.511753469472    -0.152472310220    -1.230069321632
    H            0.160254444113    -1.328949637835    -0.114744858230
    C            2.233809129417     0.174939300173    -1.160149851366
    H            0.921186946129     1.604901865318    -0.225740167910
    H            1.588250180935     0.436249738067     0.878307219133
    H            1.859571079814     0.313296274808    -2.169114749204
    H            3.123878930024     0.783004072299    -1.054025565479
    H            2.530948835778    -0.863495764577    -1.057458146973

  Mulliken Charges: (a.u.)
   Center  Symbol    Alpha    Beta     Spin     Total
       1     H     0.45534  0.45534  0.00000  0.08932
       2     C     3.02907  3.02907  0.00000 -0.05814
       3     O     4.17643  4.17643  0.00000 -0.35286
       4     H     0.47340  0.47340  0.00000  0.05320
       5     H     0.46050  0.46050  0.00000  0.07900
       6     C     2.95535  2.95535  0.00000  0.08931
       7     C     3.08210  3.08210  0.00000 -0.16419
       8     H     0.47542  0.47542  0.00000  0.04915
       9     H     0.47609  0.47609  0.00000  0.04782
      10     C     3.15592  3.15592  0.00000 -0.31183
      11     H     0.45123  0.45123  0.00000  0.09754
      12     H     0.45113  0.45113  0.00000  0.09774
      13     H     0.45590  0.45590  0.00000  0.08820
      14     H     0.44629  0.44629  0.00000  0.10743
      15     H     0.45585  0.45585  0.00000  0.08830

   Total alpha = 21.00000, Total beta = 21.00000, Total charge = -0.00000
