                              Psi4 1.0.54 Driver

  ==> Input File <==

--------------------------------------------------------------------------
set {
	reference rhf
	basis cc-pvtz
}

set_num_threads( 4 )
memory 2 gb

molecule MOL {
0 1

H	 -3.436473	 1.252944	 -1.023892
O	 -3.458596	 0.315260	 -0.960865
C	 -3.176635	 -0.080824	 0.355601
C	 -1.763371	 0.265266	 0.799691
H	 -3.321825	 -1.153438	 0.379502
H	 -3.895468	 0.357385	 1.043382
C	 -0.673390	 -0.426948	 -0.013392
H	 -1.631049	 1.344913	 0.747560
H	 -1.664587	 -0.001624	 1.849167
C	 0.737842	 -0.043159	 0.423759
H	 -0.806103	 -0.190518	 -1.063345
H	 -0.797221	 -1.503753	 0.074146
C	 1.824000	 -0.743224	 -0.390623
H	 0.850588	 1.033777	 0.343840
H	 0.868587	 -0.286314	 1.476203
C	 3.255957	 -0.453067	 0.062319
H	 1.718250	 -0.470599	 -1.438164
H	 1.658105	 -1.815850	 -0.339904
C	 3.957236	 -1.622063	 0.749923
H	 3.235015	 0.389867	 0.746278
H	 3.844697	 -0.133037	 -0.793477
H	 3.387870	 -1.967663	 1.606930
H	 4.938541	 -1.327185	 1.103941
H	 4.092666	 -2.464013	 0.081803

	symmetry c1
}
set optking {
	frozen_dihedral = ("
		20 16 13 17
	")
}

ee,wfn = optimize('scf', return_wfn=True)
oeprop( wfn, 'DIPOLE', 'QUADRUPOLE', 'MULLIKEN_CHARGES')
f=open( 'psi4out.xyz', 'w' )
f.write( "24  " )
f.write( str(ee) + "\n" )
f.write( MOL.save_string_xyz() )
f.close()
--------------------------------------------------------------------------

    Molecular point group: c1
  Charge       = 0
  Multiplicity = 1
  Basis Set: CC-PVTZ
  Basis Set:
  @DF-RHF Final Energy:  -349.37649203238254
    Total Energy =                       -349.3764920323827710
    Molecular point group: c1
  Basis Set: CC-PVTZ
  Basis Set:
  Basis Set: CC-PVTZ
  Basis Set:
  @DF-RHF Final Energy:  -349.37687316376093
    Total Energy =                       -349.3768731637608198
  Basis Set: CC-PVTZ
  Basis Set:
  Basis Set: CC-PVTZ
  Basis Set:
  @DF-RHF Final Energy:  -349.37692149985457
    Total Energy =                       -349.3769214998548023
  Basis Set: CC-PVTZ
  Basis Set:
  Basis Set: CC-PVTZ
  Basis Set:
  @DF-RHF Final Energy:  -349.37692170652178
    Total Energy =                       -349.3769217065213297
  Basis Set: CC-PVTZ
  Basis Set:
  Basis Set: CC-PVTZ
  Basis Set:
  @DF-RHF Final Energy:  -349.37692582176567
    Total Energy =                       -349.3769258217654397
  Basis Set: CC-PVTZ
  Basis Set:
  Charge       = 0
  Multiplicity = 1
  Basis Set: CC-PVTZ
  Basis Set:

    Orbital Energies (a.u.)
    -----------------------

    Doubly Occupied:

       1A    -20.546350     2A    -11.265602     3A    -11.215337
       4A    -11.211495     5A    -11.211208     6A    -11.208999
       7A    -11.208871     8A    -11.205767     9A     -1.364212
      10A     -1.089068    11A     -1.048844    12A     -0.988369
      13A     -0.914481    14A     -0.845237    15A     -0.799690
      16A     -0.786320    17A     -0.681764    18A     -0.655224
      19A     -0.626779    20A     -0.617405    21A     -0.598072
      22A     -0.586268    23A     -0.557510    24A     -0.537528
      25A     -0.523327    26A     -0.510329    27A     -0.494232
      28A     -0.473050    29A     -0.467295    30A     -0.461088
      31A     -0.457144    32A     -0.451641    33A     -0.420559

  @DF-RHF Final Energy:  -349.37692583411359

   => Energetics <=

    Nuclear Repulsion Energy =            382.4329629126786472
    One-Electron Energy =               -1231.5616428809091758
    Two-Electron Energy =                 499.7517541341175047
    DFT Exchange-Correlation Energy =       0.0000000000000000
    Empirical Dispersion Energy =           0.0000000000000000
    PCM Polarization Energy =               0.0000000000000000
    EFP Energy =                            0.0000000000000000
    Total Energy =                       -349.3769258341129671
    Molecular point group: c1
  Basis Set: CC-PVTZ
  Basis Set:

  -Total Gradient:
     Atom            X                  Y                   Z
    ------   -----------------  -----------------  -----------------
       1        0.000000169419     0.000000419526    -0.000000391045
       2        0.000001318072    -0.000000175258     0.000000076723
       3        0.000000339666    -0.000001460723     0.000000451176
       4        0.000002617789    -0.000001325277     0.000001384574
       5       -0.000000056857    -0.000000362551     0.000000134935
       6        0.000000201607     0.000000769327    -0.000000183208
       7       -0.000001640881     0.000003037465    -0.000003891653
       8       -0.000001139579    -0.000000771155    -0.000000102951
       9       -0.000000388380     0.000001125752     0.000001697367
      10       -0.000003949388     0.000001049265    -0.000002146421
      11        0.000000186974     0.000001013636    -0.000001908139
      12        0.000001381257     0.000000791565    -0.000000179494
      13       -0.000812483927     0.002085530233     0.001129664341
      14        0.000002567813    -0.000000464804     0.000000629336
      15       -0.000001222430    -0.000003421866    -0.000002768524
      16        0.000419367150     0.001190721790    -0.002145776455
      17        0.000610121461    -0.001941371079    -0.000589634677
      18       -0.000007733969     0.000001082696    -0.000000263844
      19       -0.000003660845     0.000008383523     0.000002915000
      20       -0.000206674312    -0.001350092296     0.001612965537
      21        0.000002967363    -0.000000220457    -0.000002462828
      22       -0.000005605712    -0.000005028714     0.000001651522
      23       -0.000003271959     0.000003185941     0.000003080713
      24        0.000006589671     0.000007583459    -0.000004941988

  **** Optimization is complete! (in 6 steps) ****
    Final optimized geometry and variables:
    Molecular point group: c1

    Geometry (in Angstrom), charge = 0, multiplicity = 1:

    H           -3.466794211150     1.636217541935    -1.061063451258
    O           -3.498225121994     0.697584786625    -1.020273238473
    C           -3.202998211016     0.267067222381     0.282294696945
    C           -1.780066176830     0.587157242854     0.714914242693
    H           -3.359755287965    -0.804188832172     0.282258367175
    H           -3.907641420277     0.696173465648     0.990210955787
    C           -0.708873930142    -0.094879563810    -0.131192723774
    H           -1.636969804325     1.666353310585     0.688535519432
    H           -1.669452295565     0.292365401626     1.755699747750
    C            0.711589509223     0.261266150750     0.296212345997
    H           -0.852874043393     0.170698603262    -1.172701418037
    H           -0.843382189444    -1.172302680243    -0.070467848386
    C            1.786802438481    -0.419973319471    -0.546470095696
    H            0.845069801524     1.339036215413     0.239535782668
    H            0.853511352711    -0.006405504163     1.341274697751
    C            3.225636424551    -0.106291416674    -0.090785059337
    H            1.657496138496    -0.144038230934    -1.588213706999
    H            1.628121878659    -1.494492529625    -0.513531090469
    C            3.912978388071    -1.285529051551     0.594079812071
    H            3.210413519152     0.727914430301     0.603811756964
    H            3.825737448792     0.208975422301    -0.936866283937
    H            3.346159669143    -1.620641923727     1.456895751322
    H            4.906952033934    -1.018516691358     0.935358929499
    H            4.009524606802    -2.127847498048    -0.082635986002

  Mulliken Charges: (a.u.)
   Center  Symbol    Alpha    Beta     Spin     Total
       1     H     0.39531  0.39531  0.00000  0.20937
       2     O     4.20369  4.20369  0.00000 -0.40738
       3     C     2.97766  2.97766  0.00000  0.04469
       4     C     3.10212  3.10212  0.00000 -0.20425
       5     H     0.45888  0.45888  0.00000  0.08223
       6     H     0.46026  0.46026  0.00000  0.07947
       7     C     3.08866  3.08866  0.00000 -0.17731
       8     H     0.45909  0.45909  0.00000  0.08182
       9     H     0.45335  0.45335  0.00000  0.09330
      10     C     3.08915  3.08915  0.00000 -0.17831
      11     H     0.44644  0.44644  0.00000  0.10711
      12     H     0.45492  0.45492  0.00000  0.09015
      13     C     3.09529  3.09529  0.00000 -0.19058
      14     H     0.45438  0.45438  0.00000  0.09125
      15     H     0.45550  0.45550  0.00000  0.08899
      16     C     3.09055  3.09055  0.00000 -0.18109
      17     H     0.44790  0.44790  0.00000  0.10420
      18     H     0.45533  0.45533  0.00000  0.08934
      19     C     3.14723  3.14723  0.00000 -0.29445
      20     H     0.45544  0.45544  0.00000  0.08913
      21     H     0.44853  0.44853  0.00000  0.10293
      22     H     0.45568  0.45568  0.00000  0.08865
      23     H     0.44985  0.44985  0.00000  0.10030
      24     H     0.45478  0.45478  0.00000  0.09043

   Total alpha = 33.00000, Total beta = 33.00000, Total charge =  0.00000

*** Psi4 exiting successfully. Buy a developer a beer!
