                              Psi4 1.0.54 Driver

  ==> Input File <==

--------------------------------------------------------------------------
set {
	reference rhf
	basis cc-pvtz
}

set_num_threads( 4 )
memory 2 gb

molecule MOL {
0 1

H	 -1.287192	 -1.322478	 0.335515
O	 -1.432053	 -0.565244	 -0.200812
C	 -0.727158	 0.534527	 0.310686
C	 0.680222	 0.664433	 -0.252229
H	 -1.306802	 1.408001	 0.044211
H	 -0.690821	 0.490158	 1.397609
C	 1.605391	 -0.489360	 0.123098
H	 0.615089	 0.745647	 -1.332226
H	 1.101414	 1.597893	 0.110950
H	 1.247627	 -1.432485	 -0.275204
H	 2.601435	 -0.332816	 -0.273062
H	 1.691776	 -0.589902	 1.200774

	symmetry c1
}
set optking {
	frozen_dihedral = ("
		1 2 3 4
	")
}

ee,wfn = optimize('scf', return_wfn=True)
oeprop( wfn, 'DIPOLE', 'QUADRUPOLE', 'MULLIKEN_CHARGES')
f=open( 'psi4out.xyz', 'w' )
f.write( "12  " )
f.write( str(ee) + "\n" )
f.write( MOL.save_string_xyz() )
f.close()
--------------------------------------------------------------------------

    Molecular point group: c1
  Charge       = 0
  Multiplicity = 1
  Basis Set: CC-PVTZ
  Basis Set:
  @DF-RHF Final Energy:  -193.19027564289459
    Total Energy =                       -193.1902756428945054
    Molecular point group: c1
  Basis Set: CC-PVTZ
  Basis Set:
  Basis Set: CC-PVTZ
  Basis Set:
  @DF-RHF Final Energy:  -193.19031636523522
    Total Energy =                       -193.1903163652350770
  Basis Set: CC-PVTZ
  Basis Set:
  Basis Set: CC-PVTZ
  Basis Set:
  @DF-RHF Final Energy:  -193.19032775887257
    Total Energy =                       -193.1903277588724563
  Basis Set: CC-PVTZ
  Basis Set:
  Charge       = 0
  Multiplicity = 1
  Basis Set: CC-PVTZ
  Basis Set:

    Orbital Energies (a.u.)
    -----------------------

    Doubly Occupied:

       1A    -20.546236     2A    -11.266349     3A    -11.214853
       4A    -11.211183     5A     -1.363983     6A     -1.050496
       7A     -0.926383     8A     -0.806830     9A     -0.703643
      10A     -0.636832    11A     -0.598418    12A     -0.589644
      13A     -0.533179    14A     -0.513388    15A     -0.491146
      16A     -0.469194    17A     -0.432165

  @DF-RHF Final Energy:  -193.19032846541728

   => Energetics <=

    Nuclear Repulsion Energy =            133.1758861728928309
    One-Electron Energy =                -526.0245880614078260
    Two-Electron Energy =                 199.6583734230976575
    DFT Exchange-Correlation Energy =       0.0000000000000000
    Empirical Dispersion Energy =           0.0000000000000000
    PCM Polarization Energy =               0.0000000000000000
    EFP Energy =                            0.0000000000000000
    Total Energy =                       -193.1903284654173376
    Molecular point group: c1
  Basis Set: CC-PVTZ
  Basis Set:

  -Total Gradient:
     Atom            X                  Y                   Z
    ------   -----------------  -----------------  -----------------
       1       -0.000733260887     0.000248007478     0.000490165360
       2        0.000843714802    -0.000129029374    -0.000750508467
       3        0.000088900199    -0.000455586181     0.000666380411
       4       -0.000152194492     0.000326622763    -0.000365175045
       5       -0.000044468388     0.000000353312     0.000000394579
       6       -0.000011934939     0.000001355501    -0.000028541411
       7        0.000030367004    -0.000043283440    -0.000045287310
       8       -0.000029686841    -0.000000003421     0.000025876678
       9        0.000028843217     0.000039009644    -0.000005901069
      10       -0.000007700167     0.000022307256     0.000019793390
      11       -0.000013801680    -0.000011848396     0.000013605112
      12        0.000001222168     0.000002094857    -0.000020802229

  **** Optimization is complete! (in 4 steps) ****
    Final optimized geometry and variables:
    Molecular point group: c1

    Geometry (in Angstrom), charge = 0, multiplicity = 1:

    H           -1.270436548857    -1.332097465697     0.311964523876
    O           -1.414936074303    -0.573242987556    -0.220625467645
    C           -0.729378706888     0.533945026609     0.305972431200
    C            0.681062024547     0.668707573462    -0.246444432040
    H           -1.307749014797     1.408864152049     0.038201751204
    H           -0.704278928011     0.485231570332     1.392119409324
    C            1.602000781805    -0.486412998274     0.132258631410
    H            0.619621164703     0.749199166782    -1.326650286319
    H            1.098444470530     1.603823889311     0.117597418832
    H            1.230211006583    -1.427409486265    -0.255885326728
    H            2.597190662743    -0.339247779272    -0.269856616795
    H            1.693609079203    -0.578724077614     1.210424848064

  Mulliken Charges: (a.u.)
   Center  Symbol    Alpha    Beta     Spin     Total
       1     H     0.39147  0.39147  0.00000  0.21707
       2     O     4.20696  4.20696  0.00000 -0.41392
       3     C     2.97952  2.97952  0.00000  0.04096
       4     C     3.07647  3.07647  0.00000 -0.15294
       5     H     0.45101  0.45101  0.00000  0.09798
       6     H     0.46952  0.46952  0.00000  0.06096
       7     C     3.16044  3.16044  0.00000 -0.32089
       8     H     0.45262  0.45262  0.00000  0.09477
       9     H     0.45692  0.45692  0.00000  0.08616
      10     H     0.45292  0.45292  0.00000  0.09417
      11     H     0.44580  0.44580  0.00000  0.10840
      12     H     0.45636  0.45636  0.00000  0.08728

   Total alpha = 17.00000, Total beta = 17.00000, Total charge = -0.00000

*** Psi4 exiting successfully. Buy a developer a beer!
