                              Psi4 1.0.54 Driver

  ==> Input File <==

--------------------------------------------------------------------------
set {
	reference rhf
	basis cc-pvtz
}

set_num_threads( 4 )
memory 2 gb

molecule MOL {
0 1

H	 1.017681	 -0.759577	 -1.119696
O	 1.675515	 -0.612943	 -0.465627
C	 1.135873	 0.113391	 0.608264
C	 0.027642	 1.012027	 0.090274
H	 1.902972	 0.727968	 1.072615
H	 0.756163	 -0.561896	 1.370018
C	 -1.138737	 0.285728	 -0.581921
H	 0.464661	 1.708096	 -0.618252
H	 -0.340737	 1.603071	 0.925246
C	 -1.933983	 -0.631436	 0.343653
H	 -0.763151	 -0.285569	 -1.422081
H	 -1.808359	 1.035291	 -0.992333
H	 -2.789188	 -1.049673	 -0.174718
H	 -1.335629	 -1.461368	 0.700418
H	 -2.305435	 -0.092167	 1.209725

	symmetry c1
}
set optking {
	frozen_dihedral = ("
		1 2 3 4
	")
}

ee,wfn = optimize('scf', return_wfn=True)
oeprop( wfn, 'DIPOLE', 'QUADRUPOLE', 'MULLIKEN_CHARGES')
f=open( 'psi4out.xyz', 'w' )
f.write( "15  " )
f.write( str(ee) + "\n" )
f.write( MOL.save_string_xyz() )
f.close()
--------------------------------------------------------------------------

    Molecular point group: c1
  Charge       = 0
  Multiplicity = 1
  Basis Set: CC-PVTZ
  Basis Set:
  @DF-RHF Final Energy:  -232.23277296290516
    Total Energy =                       -232.2327729629053010
    Molecular point group: c1
  Basis Set: CC-PVTZ
  Basis Set:
  Basis Set: CC-PVTZ
  Basis Set:
  @DF-RHF Final Energy:  -232.23329986309037
    Total Energy =                       -232.2332998630903944
  Basis Set: CC-PVTZ
  Basis Set:
  Basis Set: CC-PVTZ
  Basis Set:
  @DF-RHF Final Energy:  -232.23510193166945
    Total Energy =                       -232.2351019316694760
  Basis Set: CC-PVTZ
  Basis Set:
  Basis Set: CC-PVTZ
  Basis Set:
  @DF-RHF Final Energy:  -232.23517999731882
    Total Energy =                       -232.2351799973188236
  Basis Set: CC-PVTZ
  Basis Set:
  Basis Set: CC-PVTZ
  Basis Set:
  @DF-RHF Final Energy:  -232.23518649457597
    Total Energy =                       -232.2351864945759417
  Basis Set: CC-PVTZ
  Basis Set:
  Basis Set: CC-PVTZ
  Basis Set:
  @DF-RHF Final Energy:  -232.23518975967724
    Total Energy =                       -232.2351897596772687
  Basis Set: CC-PVTZ
  Basis Set:
  Charge       = 0
  Multiplicity = 1
  Basis Set: CC-PVTZ
  Basis Set:

    Orbital Energies (a.u.)
    -----------------------

    Doubly Occupied:

       1A    -20.543245     2A    -11.264080     3A    -11.226168
       4A    -11.220541     5A    -11.214352     6A     -1.361768
       7A     -1.075358     8A     -0.977981     9A     -0.884114
      10A     -0.792791    11A     -0.683801    12A     -0.647979
      13A     -0.626725    14A     -0.588318    15A     -0.579376
      16A     -0.549092    17A     -0.507524    18A     -0.487561
      19A     -0.481868    20A     -0.460424    21A     -0.431091

  @DF-RHF Final Energy:  -232.23519004749667

   => Energetics <=

    Nuclear Repulsion Energy =            191.6648666058453330
    One-Electron Energy =                -694.5918025125536133
    Two-Electron Energy =                 270.6917458592116645
    DFT Exchange-Correlation Energy =       0.0000000000000000
    Empirical Dispersion Energy =           0.0000000000000000
    PCM Polarization Energy =               0.0000000000000000
    EFP Energy =                            0.0000000000000000
    Total Energy =                       -232.2351900474966442
    Molecular point group: c1
  Basis Set: CC-PVTZ
  Basis Set:

  -Total Gradient:
     Atom            X                  Y                   Z
    ------   -----------------  -----------------  -----------------
       1        0.000546118996     0.001371058133    -0.000871928845
       2       -0.000986424150    -0.002067105247     0.001119616210
       3        0.001107340262     0.001541002787    -0.000344203686
       4       -0.000671755595    -0.000853709310     0.000092744464
       5        0.000000436326     0.000008007391     0.000008134262
       6        0.000005685327    -0.000013134330    -0.000003564443
       7       -0.000007449914     0.000005374719     0.000001781887
       8       -0.000004252033     0.000003121325    -0.000006642337
       9       -0.000000175266    -0.000002619028     0.000003939156
      10        0.000009580863     0.000002783633    -0.000000555199
      11        0.000000962054     0.000002309609     0.000007040511
      12       -0.000005038682     0.000002128360    -0.000005475041
      13       -0.000001274028     0.000002464011    -0.000005927037
      14        0.000003673047    -0.000005796981     0.000004590784
      15        0.000002572795     0.000004114929     0.000000449313

  **** Optimization is complete! (in 7 steps) ****
    Final optimized geometry and variables:
    Molecular point group: c1

    Geometry (in Angstrom), charge = 0, multiplicity = 1:

    H            1.440486673608    -0.869290109471    -0.714580050463
    O            1.858862074529    -0.543335215458     0.059518933739
    C            0.981206519844     0.274124899935     0.789378758792
    C           -0.039871214881     1.006386031677    -0.070234185914
    H            1.595043789993     0.999418282620     1.307432626338
    H            0.478013609191    -0.318122507968     1.548166079753
    C           -1.030864619800     0.121216900456    -0.832654391634
    H            0.494112938117     1.631723685066    -0.779613987451
    H           -0.596129044102     1.677789866107     0.578329029838
    C           -1.944466480149    -0.722986706844     0.052134643629
    H           -0.502716409304    -0.529448832095    -1.526077727944
    H           -1.641000593934     0.765667358043    -1.456720776423
    H           -2.670132058654    -1.258918505744    -0.548319243293
    H           -1.390044298785    -1.456853702883     0.624460108402
    H           -2.490685197634    -0.100495674330     0.753098966648

  Mulliken Charges: (a.u.)
   Center  Symbol    Alpha    Beta     Spin     Total
       1     H     0.39100  0.39100  0.00000  0.21801
       2     O     4.20833  4.20833  0.00000 -0.41666
       3     C     2.96372  2.96372  0.00000  0.07256
       4     C     3.10950  3.10950  0.00000 -0.21899
       5     H     0.45423  0.45423  0.00000  0.09155
       6     H     0.47336  0.47336  0.00000  0.05328
       7     C     3.09468  3.09468  0.00000 -0.18935
       8     H     0.44425  0.44425  0.00000  0.11149
       9     H     0.45383  0.45383  0.00000  0.09233
      10     C     3.15174  3.15174  0.00000 -0.30348
      11     H     0.46182  0.46182  0.00000  0.07636
      12     H     0.44423  0.44423  0.00000  0.11154
      13     H     0.44519  0.44519  0.00000  0.10961
      14     H     0.45087  0.45087  0.00000  0.09827
      15     H     0.45326  0.45326  0.00000  0.09348

   Total alpha = 21.00000, Total beta = 21.00000, Total charge = -0.00000

*** Psi4 exiting successfully. Buy a developer a beer!
