                              Psi4 1.0.54 Driver

  ==> Input File <==

--------------------------------------------------------------------------
set {
	reference rhf
	basis cc-pvtz
}

set_num_threads( 4 )
memory 2 gb

molecule MOL {
0 1

H	 -1.312286	 1.283945	 -2.972548
O	 -1.660619	 0.795806	 -2.249163
C	 -0.867479	 0.984689	 -1.111010
C	 0.445554	 0.234825	 -1.217970
H	 -0.671725	 2.037058	 -0.931208
H	 -1.429552	 0.607524	 -0.268690
O	 1.172093	 0.457955	 -0.054438
H	 1.002754	 0.582486	 -2.089495
H	 0.248046	 -0.825709	 -1.358799
C	 2.395478	 -0.199028	 -0.000366
H	 2.505946	 -0.901710	 -0.823354
H	 3.174616	 0.545641	 -0.071768
H	 2.513730	 -0.742241	 0.934223

	symmetry c1
}
set optking {
	frozen_dihedral = ("
		4 7 10 13
	")
}

ee,wfn = optimize('scf', return_wfn=True)
oeprop( wfn, 'DIPOLE', 'QUADRUPOLE', 'MULLIKEN_CHARGES')
f=open( 'psi4out.xyz', 'w' )
f.write( "13  " )
f.write( str(ee) + "\n" )
f.write( MOL.save_string_xyz() )
f.close()
--------------------------------------------------------------------------

    Molecular point group: c1
  Charge       = 0
  Multiplicity = 1
  Basis Set: CC-PVTZ
  Basis Set:
  @DF-RHF Final Energy:  -268.05831522319431
    Total Energy =                       -268.0583152231943700
    Molecular point group: c1
  Basis Set: CC-PVTZ
  Basis Set:
  Basis Set: CC-PVTZ
  Basis Set:
  @DF-RHF Final Energy:  -268.05884033084158
    Total Energy =                       -268.0588403308414627
  Basis Set: CC-PVTZ
  Basis Set:
  Basis Set: CC-PVTZ
  Basis Set:
  @DF-RHF Final Energy:  -268.05894591354695
    Total Energy =                       -268.0589459135469497
  Basis Set: CC-PVTZ
  Basis Set:
  Charge       = 0
  Multiplicity = 1
  Basis Set: CC-PVTZ
  Basis Set:

    Orbital Energies (a.u.)
    -----------------------

    Doubly Occupied:

       1A    -20.552678     2A    -20.552526     3A    -11.269717
       4A    -11.267361     5A    -11.266922     6A     -1.387814
       7A     -1.368381     8A     -1.019400     9A     -0.914240
      10A     -0.842457    11A     -0.711231    12A     -0.673661
      13A     -0.660512    14A     -0.638652    15A     -0.597822
      16A     -0.570783    17A     -0.549716    18A     -0.491379
      19A     -0.482762    20A     -0.441106    21A     -0.419634

  @DF-RHF Final Energy:  -268.05894649883317

   => Energetics <=

    Nuclear Repulsion Energy =            190.1834191579258686
    One-Electron Energy =                -743.1272235231126615
    Two-Electron Energy =                 284.8848578663536273
    DFT Exchange-Correlation Energy =       0.0000000000000000
    Empirical Dispersion Energy =           0.0000000000000000
    PCM Polarization Energy =               0.0000000000000000
    EFP Energy =                            0.0000000000000000
    Total Energy =                       -268.0589464988331656
    Molecular point group: c1
  Basis Set: CC-PVTZ
  Basis Set:

  -Total Gradient:
     Atom            X                  Y                   Z
    ------   -----------------  -----------------  -----------------
       1       -0.000014391329    -0.000001801386    -0.000011331442
       2       -0.000052673713     0.000033297761    -0.000050845287
       3        0.000021999502    -0.000028452609    -0.000036256967
       4       -0.000621868119    -0.000986658170     0.000570985195
       5       -0.000013619344     0.000008071560     0.000006693424
       6        0.000031661321    -0.000000458321    -0.000003030039
       7        0.000738517330     0.001028919602    -0.000894732363
       8        0.000011840022     0.000013827940     0.000051060134
       9       -0.000009822493     0.000009617129    -0.000020670977
      10        0.000512809701     0.001110560313     0.000963296295
      11       -0.000005937759     0.000001186664     0.000004852366
      12        0.000013261680     0.000001226592     0.000002338554
      13       -0.000611776804    -0.001189337074    -0.000582358888

  **** Optimization is complete! (in 4 steps) ****
    Final optimized geometry and variables:
    Molecular point group: c1

    Geometry (in Angstrom), charge = 0, multiplicity = 1:

    H           -1.650229664436     0.832077082581    -1.987164431634
    O           -1.983189548104     0.353961648081    -1.249975245888
    C           -1.152793377946     0.539438931724    -0.137843063919
    C            0.145167999347    -0.230424064935    -0.279262495917
    H           -0.936850692807     1.590116870203     0.028086197072
    H           -1.693662456217     0.176312155752     0.724296732183
    O            0.905372468561    -0.009889751603     0.864227166169
    H            0.678375106434     0.105760379379    -1.169741195016
    H           -0.073401692934    -1.287668810745    -0.407645748317
    C            2.132177707981    -0.671647683561     0.927663279177
    H            2.229102920367    -1.414758048637     0.142847976517
    H            2.949019398715     0.035417198977     0.832225674764
    H            2.213534354003    -1.180120687053     1.880073452724

  Mulliken Charges: (a.u.)
   Center  Symbol    Alpha    Beta     Spin     Total
       1     H     0.39419  0.39419  0.00000  0.21161
       2     O     4.20213  4.20213  0.00000 -0.40425
       3     C     2.97513  2.97513  0.00000  0.04974
       4     C     2.96494  2.96494  0.00000  0.07012
       5     H     0.46688  0.46688  0.00000  0.06624
       6     H     0.45296  0.45296  0.00000  0.09408
       7     O     4.18030  4.18030  0.00000 -0.36060
       8     H     0.48200  0.48200  0.00000  0.03600
       9     H     0.46913  0.46913  0.00000  0.06175
      10     C     3.02735  3.02735  0.00000 -0.05470
      11     H     0.47167  0.47167  0.00000  0.05666
      12     H     0.45945  0.45945  0.00000  0.08109
      13     H     0.45387  0.45387  0.00000  0.09226

   Total alpha = 21.00000, Total beta = 21.00000, Total charge =  0.00000

*** Psi4 exiting successfully. Buy a developer a beer!
