  ==> Input File <==

--------------------------------------------------------------------------
set {
	reference rhf
	basis cc-pvtz
}

set_num_threads( 4 )
memory 2 gb

molecule MOL {
0 1

H	 -2.612098	 0.103739	 0.519016
C	 -1.625689	 -0.340796	 0.537876
C	 -0.600949	 0.658697	 -0.000002
H	 -1.642615	 -1.238899	 -0.064791
H	 -1.394795	 -0.620183	 1.557051
C	 0.763408	 0.112229	 -0.000006
H	 -0.840307	 0.945802	 -1.015488
H	 -0.593883	 1.561034	 0.597219
N	 1.806008	 -0.317179	 0.000007

	symmetry c1
}
set optking {
	frozen_dihedral = ("
		7 3 6 9
	")
}

ee = optimize('scf')
oeprop('DIPOLE', 'QUADRUPOLE', 'MULLIKEN_CHARGES')
f=open( 'psi4out.xyz', 'w' )
f.write( "9  " )
f.write( str(ee) + "\n" )
f.write( MOL.save_string_xyz() )
f.close()
--------------------------------------------------------------------------

    Molecular point group: c1
  Charge       = 0
  Multiplicity = 1
  Basis Set: CC-PVTZ
  Basis Set:
  @DF-RHF Final Energy:  -171.02346105321317
    Total Energy =                       -171.0234610532132251
    Molecular point group: c1
  Basis Set: CC-PVTZ
  Basis Set:
  Basis Set: CC-PVTZ
  Basis Set:
  @DF-RHF Final Energy:  -170.86494535385870
    Total Energy =                       -170.8649453538587011
  Basis Set: CC-PVTZ
  Basis Set:
  Basis Set: CC-PVTZ
  Basis Set:
  @DF-RHF Final Energy:  -170.96574124471670
    Total Energy =                       -170.9657412447166962
  Basis Set: CC-PVTZ
  Basis Set:
  Basis Set: CC-PVTZ
  Basis Set:
  @DF-RHF Final Energy:  -171.01347491370598
    Total Energy =                       -171.0134749137060055
  Basis Set: CC-PVTZ
  Basis Set:
  @DF-RHF Final Energy:  -171.02300972741864
    Total Energy =                       -171.0230097274187244
  @DF-RHF Final Energy:  -171.02329015647967
    Total Energy =                       -171.0232901564796180
  @DF-RHF Final Energy:  -171.02287467402220
    Total Energy =                       -171.0228746740222334
  @DF-RHF Final Energy:  -171.02023643554719
    Total Energy =                       -171.0202364355472184
  @DF-RHF Final Energy:  -171.02232220014855
    Total Energy =                       -171.0223222001485226
  @DF-RHF Final Energy:  -171.02337530836294
    Total Energy =                       -171.0233753083629153
  @DF-RHF Final Energy:  -171.00094223937683
    Total Energy =                       -171.0009422393768546
  @DF-RHF Final Energy:  -171.01984348332709
    Total Energy =                       -171.0198434833271790
  @DF-RHF Final Energy:  -171.02235636646037
    Total Energy =                       -171.0223563664603716
  @DF-RHF Final Energy:  -171.02309907283976
    Total Energy =                       -171.0230990728397558
  @DF-RHF Final Energy:  -171.02341548927325
    Total Energy =                       -171.0234154892732761
  @DF-RHF Final Energy:  -171.02061650514190
    Total Energy =                       -171.0206165051419589
  @DF-RHF Final Energy:  -171.02227966973140
    Total Energy =                       -171.0222796697313754
  @DF-RHF Final Energy:  -171.02305353359372
    Total Energy =                       -171.0230535335937816
  @DF-RHF Final Energy:  -171.02327715370257
    Total Energy =                       -171.0232771537025656
  @DF-RHF Final Energy:  -171.02337331198606
    Total Energy =                       -171.0233733119859778
  @DF-RHF Final Energy:  -171.02329859158087
    Total Energy =                       -171.0232985915808683
  @DF-RHF Final Energy:  -171.02269127026275
    Total Energy =                       -171.0226912702627260
  @DF-RHF Final Energy:  -171.02313978565641
    Total Energy =                       -171.0231397856564399
  @DF-RHF Final Energy:  -171.02329222449521
    Total Energy =                       -171.0232922244952078
  @DF-RHF Final Energy:  -171.02329499038422
    Total Energy =                       -171.0232949903841018
  @DF-RHF Final Energy:  -171.02322502328329
    Total Energy =                       -171.0232250232833167
  @DF-RHF Final Energy:  -171.02325773503458
    Total Energy =                       -171.0232577350344911
  @DF-RHF Final Energy:  -171.02328163371095
    Total Energy =                       -171.0232816337109227
  @DF-RHF Final Energy:  -171.02330084553387
    Total Energy =                       -171.0233008455338677
  @DF-RHF Final Energy:  -171.02332046141311
    Total Energy =                       -171.0233204614131637
  @DF-RHF Final Energy:  -171.02335424158355
    Total Energy =                       -171.0233542415833483
  @DF-RHF Final Energy:  -171.02343266287397
    Total Energy =                       -171.0234326628739154
  @DF-RHF Final Energy:  -171.02342225817529
    Total Energy =                       -171.0234222581753443
  @DF-RHF Final Energy:  -171.02344445789024
    Total Energy =                       -171.0234444578902071
  @DF-RHF Final Energy:  -171.02344638438268
    Total Energy =                       -171.0234463843827086
  @DF-RHF Final Energy:  -171.02343784683944
    Total Energy =                       -171.0234378468394425
  Basis Set: CC-PVTZ
  Basis Set:
  @DF-RHF Final Energy:  -171.02343175072514
    Total Energy =                       -171.0234317507251092
  Basis Set: CC-PVTZ
  Basis Set:
  Basis Set: CC-PVTZ
  Basis Set:
  @DF-RHF Final Energy:  -171.02343959666973
    Total Energy =                       -171.0234395966696752
  Basis Set: CC-PVTZ
  Basis Set:
  Basis Set: CC-PVTZ
  Basis Set:
  @DF-RHF Final Energy:  -171.02345144450766
    Total Energy =                       -171.0234514445077139
  Basis Set: CC-PVTZ
  Basis Set:
  Charge       = 0
  Multiplicity = 1
  Basis Set: CC-PVTZ
  Basis Set:

    Orbital Energies (a.u.)
    -----------------------

    Doubly Occupied:

       1A    -15.556478     2A    -11.282608     3A    -11.261081
       4A    -11.244642     5A     -1.229218     6A     -1.084189
       7A     -0.913311     8A     -0.700520     9A     -0.661056
      10A     -0.589621    11A     -0.563020    12A     -0.545400
      13A     -0.540172    14A     -0.464027    15A     -0.463903

  @DF-RHF Final Energy:  -171.02345286434212

   => Energetics <=

    Nuclear Repulsion Energy =            103.7181777089819406
    One-Electron Energy =                -435.2847725704889399
    Two-Electron Energy =                 160.5431419971648666
    DFT Exchange-Correlation Energy =       0.0000000000000000
    Empirical Dispersion Energy =           0.0000000000000000
    PCM Polarization Energy =               0.0000000000000000
    EFP Energy =                            0.0000000000000000
    Total Energy =                       -171.0234528643421186
    Molecular point group: c1
  Basis Set: CC-PVTZ
  Basis Set:

  -Total Gradient:
     Atom            X                  Y                   Z
    ------   -----------------  -----------------  -----------------
       1       -0.000259974751     0.000123083315     0.000004361704
       2        0.000026299271    -0.000559284463    -0.000303458174
       3        0.000662479187     0.000595022225    -0.000238019836
       4       -0.000110147606    -0.000058300631     0.000079581429
       5        0.000098487655     0.000032777861     0.000037588400
       6        0.000495526337    -0.000985997923     0.001063567228
       7       -0.000456105312     0.000139556218     0.000049049064
       8        0.000045005154     0.000155160886    -0.000234970452
       9       -0.000501569938     0.000557982511    -0.000457699362

    Molecular point group: c1

    Geometry (in Angstrom), charge = 0, multiplicity = 1:

    H           -2.629223249102     0.094581897430     0.335727601420
    C           -1.645354076569    -0.355431470168     0.374421403507
    C           -0.606984933430     0.629416429360    -0.166495557125
    H           -1.660798410813    -1.263749054956    -0.212923823112
    H           -1.428836906980    -0.618533906136     1.401229068789
    C            0.754889557264     0.077990041030    -0.134977665724
    H           -0.831705748366     0.900605956249    -1.189596613084
    H           -0.605355595128     1.542915209335     0.413771918811
    N            1.798270053947    -0.348827115836    -0.116363098057

  Mulliken Charges: (a.u.)
   Center  Symbol    Alpha    Beta     Spin     Total
       1     H     0.44621  0.44621  0.00000  0.10757
       2     C     3.13553  3.13553  0.00000 -0.27106
       3     C     3.07965  3.07965  0.00000 -0.15931
       4     H     0.44479  0.44479  0.00000  0.11043
       5     H     0.44493  0.44493  0.00000  0.11015
       6     C     3.04248  3.04248  0.00000 -0.08495
       7     H     0.43200  0.43200  0.00000  0.13600
       8     H     0.43202  0.43202  0.00000  0.13595
       9     N     3.54239  3.54239  0.00000 -0.08478

   Total alpha = 15.00000, Total beta = 15.00000, Total charge = -0.00000
