  ==> Input File <==

--------------------------------------------------------------------------
set {
	reference rhf
	basis 6-31G*
}

set_num_threads( 1 )
memory 2 gb

molecule MOL {
0 1

O	 -0.988096	 -1.408613	 0.050699
C	 -0.676749	 -0.249230	 -0.009274
C	 -1.746085	 0.827156	 -0.009539
N	 0.623947	 0.147590	 -0.102813
H	 -1.701500	 1.431508	 -0.908902
H	 -2.703425	 0.330732	 0.036390
H	 -1.647323	 1.487769	 0.845106
C	 0.997690	 1.437304	 0.443840
C	 1.590343	 -0.448837	 -0.998693
H	 1.975553	 1.363673	 0.906853
H	 0.274491	 1.736902	 1.182193
H	 1.042830	 2.197576	 -0.332929
H	 2.574406	 -0.388805	 -0.549187
H	 1.376353	 -1.490635	 -1.177017
H	 1.627527	 0.065732	 -1.957154

	symmetry c1
}
set optking {
	frozen_dihedral = ("
		2 4 8 10
	")
}

ee = energy('scf')
oeprop('DIPOLE', 'QUADRUPOLE', 'MULLIKEN_CHARGES')
f=open( 'psi4out.xyz', 'w' )
f.write( "15  " )
f.write( str(ee) + "\n" )
f.write( MOL.save_string_xyz() )
f.close()
--------------------------------------------------------------------------

    Molecular point group: c1

    Geometry (in Angstrom), charge = 0, multiplicity = 1:

       Center              X                  Y                   Z               Mass
    ------------   -----------------  -----------------  -----------------  -----------------
           O         -0.962323426891    -1.467416578682     0.159609977249    15.994914619560
           C         -0.650976426891    -0.308033578682     0.099636977249    12.000000000000
           C         -1.720312426891     0.768352421318     0.099371977249    12.000000000000
           N          0.649719573109     0.088786421318     0.006097977249    14.003074004780
           H         -1.675727426891     1.372704421318    -0.799991022751     1.007825032070
           H         -2.677652426891     0.271928421318     0.145300977249     1.007825032070
           H         -1.621550426891     1.428965421318     0.954016977249     1.007825032070
           C          1.023462573109     1.378500421318     0.552750977249    12.000000000000
           C          1.616115573109    -0.507640578682    -0.889782022751    12.000000000000
           H          2.001325573109     1.304869421318     1.015763977249     1.007825032070
           H          0.300263573109     1.678098421318     1.291103977249     1.007825032070
           H          1.068602573109     2.138772421318    -0.224018022751     1.007825032070
           H          2.600178573109    -0.447608578682    -0.440276022751     1.007825032070
           H          1.402125573109    -1.549438578682    -1.068106022751     1.007825032070
           H          1.653299573109     0.006928421318    -1.848243022751     1.007825032070

  Charge       = 0
  Multiplicity = 1
  Basis Set: 6-31G*
  Basis Set:

    Orbital Energies (a.u.)
    -----------------------

    Doubly Occupied:

       1A    -20.522216     2A    -15.573147     3A    -11.342810
       4A    -11.262219     5A    -11.257343     6A    -11.227905
       7A     -1.385399     8A     -1.243298     9A     -1.014077
      10A     -0.970816    11A     -0.922318    12A     -0.739468
      13A     -0.677809    14A     -0.658591    15A     -0.652015
      16A     -0.594118    17A     -0.580997    18A     -0.566283
      19A     -0.562713    20A     -0.556614    21A     -0.531501
      22A     -0.493697    23A     -0.413345    24A     -0.360438

  @DF-RHF Final Energy:  -286.01333052396046

   => Energetics <=

    Nuclear Repulsion Energy =            252.0213956533587236
    One-Electron Energy =                -887.8508497972159148
    Two-Electron Energy =                 349.8161236198969277
    DFT Exchange-Correlation Energy =       0.0000000000000000
    Empirical Dispersion Energy =           0.0000000000000000
    PCM Polarization Energy =               0.0000000000000000
    EFP Energy =                            0.0000000000000000
    Total Energy =                       -286.0133305239602919

  Mulliken Charges: (a.u.)
   Center  Symbol    Alpha    Beta     Spin     Total
       1     O     4.28706  4.28706  0.00000 -0.57413
       2     C     2.63891  2.63891  0.00000  0.72218
       3     C     3.29326  3.29326  0.00000 -0.58652
       4     N     3.81845  3.81845  0.00000 -0.63690
       5     H     0.40624  0.40624  0.00000  0.18752
       6     H     0.39233  0.39233  0.00000  0.21535
       7     H     0.40876  0.40876  0.00000  0.18248
       8     C     3.14180  3.14180  0.00000 -0.28359
       9     C     3.14062  3.14062  0.00000 -0.28124
      10     H     0.40901  0.40901  0.00000  0.18198
      11     H     0.41155  0.41155  0.00000  0.17689
      12     H     0.42189  0.42189  0.00000  0.15622
      13     H     0.41587  0.41587  0.00000  0.16825
      14     H     0.39281  0.39281  0.00000  0.21438
      15     H     0.42143  0.42143  0.00000  0.15713

   Total alpha = 24.00000, Total beta = 24.00000, Total charge =  0.00000
