  ==> Input File <==

--------------------------------------------------------------------------
set {
	reference rhf
	basis 6-31G*
}

set_num_threads( 1 )
memory 2 gb

molecule MOL {
0 1

H	 3.893188	 0.355400	 -0.101367
N	 3.092854	 -0.246221	 -0.068770
C	 1.865559	 0.531981	 0.018834
H	 3.199514	 -0.826043	 0.741946
C	 0.645745	 -0.382037	 -0.029944
H	 1.841966	 1.207024	 -0.831236
H	 1.815756	 1.155410	 0.915079
C	 -0.679275	 0.379305	 0.025956
H	 0.698998	 -0.976915	 -0.937203
H	 0.693479	 -1.083846	 0.802235
C	 -0.698485	 1.621842	 -0.866292
H	 -0.882362	 0.674982	 1.054149
H	 -1.492788	 -0.282945	 -0.266393
C	 -2.022938	 2.381763	 -0.804188
H	 0.112637	 2.285586	 -0.575192
H	 -0.498413	 1.329153	 -1.894864
H	 -2.234994	 2.717930	 0.206920
H	 -2.005260	 3.256921	 -1.446363
H	 -2.850582	 1.754312	 -1.123095

	symmetry c1
}
set optking {
	frozen_dihedral = ("
		6 3 5 9,
		12 8 11 15,
		1 2 3 6
	")
}

ee = energy('scf')
oeprop('DIPOLE', 'QUADRUPOLE', 'MULLIKEN_CHARGES')
f=open( 'psi4out.xyz', 'w' )
f.write( "19  " )
f.write( str(ee) + "\n" )
f.write( MOL.save_string_xyz() )
f.close()
--------------------------------------------------------------------------

    Molecular point group: c1

    Geometry (in Angstrom), charge = 0, multiplicity = 1:

       Center              X                  Y                   Z               Mass
    ------------   -----------------  -----------------  -----------------  -----------------
           H          3.491995380120    -0.363319042286     0.177756791701     1.007825032070
           N          2.691661380120    -0.964940042286     0.210353791701    14.003074004780
           C          1.464366380120    -0.186738042286     0.297957791701    12.000000000000
           H          2.798321380120    -1.544762042286     1.021069791701     1.007825032070
           C          0.244552380120    -1.100756042286     0.249179791701    12.000000000000
           H          1.440773380120     0.488304957714    -0.552112208299     1.007825032070
           H          1.414563380120     0.436690957714     1.194202791701     1.007825032070
           C         -1.080467619880    -0.339414042286     0.305079791701    12.000000000000
           H          0.297805380120    -1.695634042286    -0.658079208299     1.007825032070
           H          0.292286380120    -1.802565042286     1.081358791701     1.007825032070
           C         -1.099677619880     0.903122957714    -0.587168208299    12.000000000000
           H         -1.283554619880    -0.043737042286     1.333272791701     1.007825032070
           H         -1.893980619880    -1.001664042286     0.012730791701     1.007825032070
           C         -2.424130619880     1.663043957714    -0.525064208299    12.000000000000
           H         -0.288555619880     1.566866957714    -0.296068208299     1.007825032070
           H         -0.899605619880     0.610433957714    -1.615740208299     1.007825032070
           H         -2.636186619880     1.999210957714     0.486043791701     1.007825032070
           H         -2.406452619880     2.538201957714    -1.167239208299     1.007825032070
           H         -3.251774619880     1.035592957714    -0.843971208299     1.007825032070

  Charge       = 0
  Multiplicity = 1
  Basis Set: 6-31G*
  Basis Set:

    Orbital Energies (a.u.)
    -----------------------

    Doubly Occupied:

       1A    -15.532152     2A    -11.238675     3A    -11.213630
       4A    -11.212488     5A    -11.209214     6A    -11.207587
       7A     -1.176474     8A     -1.074676     9A     -0.995657
      10A     -0.897901    11A     -0.835731    12A     -0.769438
      13A     -0.663811    14A     -0.640832    15A     -0.611922
      16A     -0.596250    17A     -0.571729    18A     -0.551284
      19A     -0.521257    20A     -0.503971    21A     -0.488828
      22A     -0.459025    23A     -0.457215    24A     -0.446159
      25A     -0.380912

  @DF-RHF Final Energy:  -251.34672061562785

   => Energetics <=

    Nuclear Repulsion Energy =            251.1933264422277432
    One-Electron Energy =                -836.5665129351605174
    Two-Electron Energy =                 334.0264658773055544
    DFT Exchange-Correlation Energy =       0.0000000000000000
    Empirical Dispersion Energy =           0.0000000000000000
    PCM Polarization Energy =               0.0000000000000000
    EFP Energy =                            0.0000000000000000
    Total Energy =                       -251.3467206156271914

  Mulliken Charges: (a.u.)
   Center  Symbol    Alpha    Beta     Spin     Total
       1     H     0.33267  0.33267  0.00000  0.33467
       2     N     3.92203  3.92203  0.00000 -0.84406
       3     C     3.06522  3.06522  0.00000 -0.13044
       4     H     0.33567  0.33567  0.00000  0.32867
       5     C     3.15208  3.15208  0.00000 -0.30416
       6     H     0.41673  0.41673  0.00000  0.16654
       7     H     0.43512  0.43512  0.00000  0.12976
       8     C     3.15456  3.15456  0.00000 -0.30911
       9     H     0.41318  0.41318  0.00000  0.17364
      10     H     0.42547  0.42547  0.00000  0.14906
      11     C     3.15894  3.15894  0.00000 -0.31788
      12     H     0.42463  0.42463  0.00000  0.15073
      13     H     0.42032  0.42032  0.00000  0.15935
      14     C     3.23793  3.23793  0.00000 -0.47586
      15     H     0.42024  0.42024  0.00000  0.15951
      16     H     0.42138  0.42138  0.00000  0.15724
      17     H     0.42227  0.42227  0.00000  0.15547
      18     H     0.41971  0.41971  0.00000  0.16058
      19     H     0.42186  0.42186  0.00000  0.15629

   Total alpha = 25.00000, Total beta = 25.00000, Total charge = -0.00000
