  ==> Input File <==

--------------------------------------------------------------------------
set {
	reference rhf
	basis 6-31G*
}

set_num_threads( 4 )
memory 2 gb

molecule MOL {
0 1

H	 1.017217	 -2.460634	 2.181138
O	 0.914302	 -2.093038	 1.308746
C	 -0.083902	 -1.211113	 1.346498
C	 -0.318135	 -0.576402	 0.000164
O	 -0.689296	 -0.983569	 2.342851
C	 -1.454360	 0.441875	 -0.000474
H	 0.618638	 -0.122152	 -0.311470
H	 -0.507421	 -1.378784	 -0.707903
C	 -2.826123	 -0.230780	 0.000056
H	 -1.357605	 1.085198	 -0.868380
H	 -1.357504	 1.086451	 0.866496
H	 -2.959731	 -0.858053	 -0.876869
H	 -3.619374	 0.509403	 -0.000080
H	 -2.959371	 -0.857318	 0.877556

	symmetry c1
}
set optking {
	frozen_dihedral = ("
		7 4 6 10
	")
}

ee = optimize('scf')
oeprop('DIPOLE', 'QUADRUPOLE', 'MULLIKEN_CHARGES')
f=open( 'psi4out.xyz', 'w' )
f.write( "14  " )
f.write( str(ee) + "\n" )
f.write( MOL.save_string_xyz() )
f.close()
--------------------------------------------------------------------------

    Molecular point group: c1
  Charge       = 0
  Multiplicity = 1
  Basis Set: 6-31G*
  Basis Set:
  @DF-RHF Final Energy:  -305.87994167396994
    Total Energy =                       -305.8799416739699950
    Molecular point group: c1
  Basis Set: 6-31G*
  Basis Set:
  Basis Set: 6-31G*
  Basis Set:
  @DF-RHF Final Energy:  -305.88012805041041
    Total Energy =                       -305.8801280504101783
  Basis Set: 6-31G*
  Basis Set:
  Basis Set: 6-31G*
  Basis Set:
  @DF-RHF Final Energy:  -305.87991127271994
    Total Energy =                       -305.8799112727195961
  Basis Set: 6-31G*
  Basis Set:
  Basis Set: 6-31G*
  Basis Set:
  @DF-RHF Final Energy:  -305.88018170691430
    Total Energy =                       -305.8801817069139588
  Basis Set: 6-31G*
  Basis Set:
  Basis Set: 6-31G*
  Basis Set:
  @DF-RHF Final Energy:  -305.88019412936819
    Total Energy =                       -305.8801941293679647
  Basis Set: 6-31G*
  Basis Set:
  Basis Set: 6-31G*
  Basis Set:
  @DF-RHF Final Energy:  -305.88020082047410
    Total Energy =                       -305.8802008204739877
  Basis Set: 6-31G*
  Basis Set:
  Charge       = 0
  Multiplicity = 1
  Basis Set: 6-31G*
  Basis Set:

    Orbital Energies (a.u.)
    -----------------------

    Doubly Occupied:

       1A    -20.613929     2A    -20.553095     3A    -11.382697
       4A    -11.241319     5A    -11.225501     6A    -11.210943
       7A     -1.476131     8A     -1.367018     9A     -1.081347
      10A     -0.976210    11A     -0.860643    12A     -0.787598
      13A     -0.702431    14A     -0.693095    15A     -0.658651
      16A     -0.610483    17A     -0.596432    18A     -0.565444
      19A     -0.557089    20A     -0.494906    21A     -0.490000
      22A     -0.485547    23A     -0.477101    24A     -0.444439

  @DF-RHF Final Energy:  -305.88020158205194

   => Energetics <=

    Nuclear Repulsion Energy =            244.1217267827759656
    One-Electron Energy =                -900.8997620224472485
    Two-Electron Energy =                 350.8978336576191737
    DFT Exchange-Correlation Energy =       0.0000000000000000
    Empirical Dispersion Energy =           0.0000000000000000
    PCM Polarization Energy =               0.0000000000000000
    EFP Energy =                            0.0000000000000000
    Total Energy =                       -305.8802015820520523
    Molecular point group: c1
  Basis Set: 6-31G*
  Basis Set:

  -Total Gradient:
     Atom            X                  Y                   Z
    ------   -----------------  -----------------  -----------------
       1        0.000004388020     0.000001926597    -0.000002326882
       2        0.000013384807     0.000000475921     0.000015638646
       3       -0.000061394419    -0.000013531771    -0.000015965099
       4        0.000621406357     0.000793614692     0.002320138807
       5        0.000021270885    -0.000002565372     0.000023708813
       6       -0.001219782715    -0.001486110775    -0.001573880392
       7       -0.000336787724    -0.000414361464    -0.001699190905
       8        0.000006203802     0.000015134985     0.000002357011
       9       -0.000009945521     0.000015683876     0.000003595664
      10        0.000949242724     0.001106219246     0.000930386452
      11        0.000002189595     0.000006876309     0.000006642071
      12       -0.000010678218    -0.000012447208    -0.000015961114
      13        0.000016075787    -0.000005702422     0.000004745168
      14        0.000004426618    -0.000005212610     0.000000111759

  **** Optimization is complete! (in 7 steps) ****
    Final optimized geometry and variables:
    Molecular point group: c1

    Geometry (in Angstrom), charge = 0, multiplicity = 1:

    H            1.715965811247    -1.696286343636     1.298698235653
    O            1.591234179218    -1.339686008842     0.424560238849
    C            0.653761566906    -0.395733145959     0.492507212556
    C            0.408113119176     0.240894193139    -0.851880361147
    O            0.113564230532    -0.115077329140     1.512978355153
    C           -0.751466105124     1.236684907222    -0.865382135077
    H            1.337569648940     0.715623486952    -1.154485632090
    H            0.248529565495    -0.559741535606    -1.568605492359
    C           -2.125777937042     0.569418756021    -0.871821328968
    H           -0.644042208788     1.873064923289    -1.738952198191
    H           -0.667335762819     1.885674609413    -0.000956189026
    H           -2.251631529109    -0.061292015949    -1.747939463097
    H           -2.915008673398     1.314048105770    -0.885332977378
    H           -2.265142835511    -0.044267379161     0.011008741448

  Mulliken Charges: (a.u.)
   Center  Symbol    Alpha    Beta     Spin     Total
       1     H     0.26767  0.26767  0.00000  0.46466
       2     O     4.35020  4.35020  0.00000 -0.70040
       3     C     2.62412  2.62412  0.00000  0.75176
       4     C     3.21117  3.21117  0.00000 -0.42234
       5     O     4.28004  4.28004  0.00000 -0.56007
       6     C     3.15529  3.15529  0.00000 -0.31058
       7     H     0.39580  0.39580  0.00000  0.20840
       8     H     0.39890  0.39890  0.00000  0.20220
       9     C     3.24500  3.24500  0.00000 -0.49001
      10     H     0.41761  0.41761  0.00000  0.16478
      11     H     0.40529  0.40529  0.00000  0.18942
      12     H     0.42388  0.42388  0.00000  0.15225
      13     H     0.41678  0.41678  0.00000  0.16645
      14     H     0.40826  0.40826  0.00000  0.18349

   Total alpha = 24.00000, Total beta = 24.00000, Total charge = -0.00000
