                              Psi4 1.0.54 Driver

  ==> Input File <==

--------------------------------------------------------------------------
set {
	reference rhf
	basis cc-pvtz
}

set_num_threads( 4 )
memory 2 gb

molecule MOL {
0 1

H	 2.447185	 -0.870588	 1.519905
O	 1.771746	 -1.132979	 0.912725
C	 0.801215	 -0.224296	 0.944139
C	 -0.318151	 -0.570512	 0.000144
O	 0.852077	 0.726901	 1.644571
C	 -1.454884	 0.441630	 -0.000560
H	 0.117456	 -0.674461	 -0.988457
H	 -0.671731	 -1.559888	 0.272205
C	 -2.822577	 -0.232186	 0.000063
H	 -1.359760	 1.084704	 -0.867077
H	 -1.359641	 1.085996	 0.864983
H	 -2.954352	 -0.858985	 -0.875745
H	 -3.615886	 0.505352	 0.000019
H	 -2.953878	 -0.858359	 0.876394

	symmetry c1
}
set optking {
	frozen_dihedral = ("
		7 4 6 10
	")
}

ee,wfn = optimize('scf', return_wfn=True)
oeprop( wfn, 'DIPOLE', 'QUADRUPOLE', 'MULLIKEN_CHARGES')
f=open( 'psi4out.xyz', 'w' )
f.write( "14  " )
f.write( str(ee) + "\n" )
f.write( MOL.save_string_xyz() )
f.close()
--------------------------------------------------------------------------

    Molecular point group: c1
  Charge       = 0
  Multiplicity = 1
  Basis Set: CC-PVTZ
  Basis Set:
  @DF-RHF Final Energy:  -305.99677126449342
    Total Energy =                       -305.9967712644934181
    Molecular point group: c1
  Basis Set: CC-PVTZ
  Basis Set:
  Basis Set: CC-PVTZ
  Basis Set:
  @DF-RHF Final Energy:  -305.99708038963593
    Total Energy =                       -305.9970803896360394
  Basis Set: CC-PVTZ
  Basis Set:
  Basis Set: CC-PVTZ
  Basis Set:
  @DF-RHF Final Energy:  -305.99695117034685
    Total Energy =                       -305.9969511703466196
  Basis Set: CC-PVTZ
  Basis Set:
  Basis Set: CC-PVTZ
  Basis Set:
  @DF-RHF Final Energy:  -305.99716189381473
    Total Energy =                       -305.9971618938149049
  Basis Set: CC-PVTZ
  Basis Set:
  Basis Set: CC-PVTZ
  Basis Set:
  @DF-RHF Final Energy:  -305.99716320342458
    Total Energy =                       -305.9971632034245772
  Basis Set: CC-PVTZ
  Basis Set:
  Charge       = 0
  Multiplicity = 1
  Basis Set: CC-PVTZ
  Basis Set:

    Orbital Energies (a.u.)
    -----------------------

    Doubly Occupied:

       1A    -20.604495     2A    -20.541590     3A    -11.374541
       4A    -11.240031     5A    -11.222575     6A    -11.214631
       7A     -1.478438     8A     -1.369868     9A     -1.081767
      10A     -0.980975    11A     -0.859163    12A     -0.792028
      13A     -0.704955    14A     -0.693879    15A     -0.665740
      16A     -0.617135    17A     -0.597997    18A     -0.571260
      19A     -0.553349    20A     -0.499884    21A     -0.491509
      22A     -0.485405    23A     -0.480260    24A     -0.448780

  @DF-RHF Final Energy:  -305.99716338929170

   => Energetics <=

    Nuclear Repulsion Energy =            240.5877037767481852
    One-Electron Energy =                -894.0292288991454370
    Two-Electron Energy =                 347.4443617331054384
    DFT Exchange-Correlation Energy =       0.0000000000000000
    Empirical Dispersion Energy =           0.0000000000000000
    PCM Polarization Energy =               0.0000000000000000
    EFP Energy =                            0.0000000000000000
    Total Energy =                       -305.9971633892918135
    Molecular point group: c1
  Basis Set: CC-PVTZ
  Basis Set:

  -Total Gradient:
     Atom            X                  Y                   Z
    ------   -----------------  -----------------  -----------------
       1       -0.000003363247     0.000001995756    -0.000005462962
       2        0.000006817542    -0.000028455913    -0.000000287063
       3        0.000003730033     0.000011709993     0.000000617325
       4       -0.002868786525    -0.003313581269    -0.001175076617
       5       -0.000016049892     0.000031546114    -0.000001253677
       6        0.002573937841     0.002976080328     0.002139480723
       7        0.001957711422     0.002254887981     0.000629418829
       8        0.000000699808     0.000016582633    -0.000007596198
       9       -0.000001215403    -0.000011555722    -0.000000275798
      10       -0.001655888626    -0.001929723153    -0.001583032083
      11        0.000004001797    -0.000014497874     0.000005119151
      12        0.000004838228    -0.000002769796     0.000004343379
      13        0.000000322798     0.000005707593    -0.000003357859
      14       -0.000006755778     0.000002073326    -0.000002637153

  **** Optimization is complete! (in 6 steps) ****
    Final optimized geometry and variables:
    Molecular point group: c1

    Geometry (in Angstrom), charge = 0, multiplicity = 1:

    H            2.635879821454    -0.665925993093     0.881794323967
    O            1.949551058425    -0.932849940677     0.289039562500
    C            0.970096482220    -0.034678281855     0.348009959101
    C           -0.164951431824    -0.399528417267    -0.575212392918
    O            1.030603487871     0.913037087264     1.052241716630
    C           -1.321118046077     0.606113781246    -0.584562303118
    H            0.281436625630    -0.505918388673    -1.557349342119
    H           -0.493627786031    -1.390150383977    -0.281828732784
    C           -2.686095984190    -0.076195008020    -0.634864043927
    H           -1.228209970434     1.247916991494    -1.452883224028
    H           -1.256814933474     1.238215475504     0.288728637805
    H           -2.779294353396    -0.712648409575    -1.508855108987
    H           -3.482851159822     0.656942562704    -0.674455851650
    H           -2.847246761818    -0.693614762214     0.242503116773

  Mulliken Charges: (a.u.)
   Center  Symbol    Alpha    Beta     Spin     Total
       1     H     0.38240  0.38240  0.00000  0.23520
       2     O     4.16055  4.16055  0.00000 -0.32110
       3     C     2.80175  2.80175  0.00000  0.39649
       4     C     3.11128  3.11128  0.00000 -0.22256
       5     O     4.19054  4.19054  0.00000 -0.38108
       6     C     3.08676  3.08676  0.00000 -0.17352
       7     H     0.43486  0.43486  0.00000  0.13028
       8     H     0.43787  0.43787  0.00000  0.12425
       9     C     3.14920  3.14920  0.00000 -0.29841
      10     H     0.45205  0.45205  0.00000  0.09591
      11     H     0.43577  0.43577  0.00000  0.12847
      12     H     0.45523  0.45523  0.00000  0.08954
      13     H     0.44698  0.44698  0.00000  0.10604
      14     H     0.45476  0.45476  0.00000  0.09048

   Total alpha = 24.00000, Total beta = 24.00000, Total charge = -0.00000

*** Psi4 exiting successfully. Buy a developer a beer!
