  ==> Input File <==

--------------------------------------------------------------------------
set {
	reference rhf
	basis 6-31G*
}

set_num_threads( 1 )
memory 2 gb

molecule MOL {
0 1

H	 -2.965344	 -0.015013	 -0.582479
O	 -2.347518	 -0.290803	 0.079804
C	 -1.184022	 0.487508	 -0.006784
C	 0.062599	 -0.378592	 0.031606
H	 -1.176523	 1.099369	 -0.904519
H	 -1.187323	 1.153111	 0.844927
O	 1.171513	 0.459272	 -0.058250
H	 0.050699	 -1.089204	 -0.797170
H	 0.078739	 -0.954914	 0.954740
C	 2.397842	 -0.198080	 -0.002151
H	 2.508049	 -0.905315	 -0.822092
H	 3.173794	 0.550865	 -0.078850
H	 2.517602	 -0.735921	 0.936026

	symmetry c1
}
set optking {
	frozen_dihedral = ("
		8 4 3 5,
		10 7 4 8,
		4 7 10 13
	")
}

ee = energy('scf')
oeprop('DIPOLE', 'QUADRUPOLE', 'MULLIKEN_CHARGES')
f=open( 'psi4out.xyz', 'w' )
f.write( "13  " )
f.write( str(ee) + "\n" )
f.write( MOL.save_string_xyz() )
f.close()
--------------------------------------------------------------------------

    Molecular point group: c1

    Geometry (in Angstrom), charge = 0, multiplicity = 1:

       Center              X                  Y                   Z               Mass
    ------------   -----------------  -----------------  -----------------  -----------------
           H         -2.959165290439    -0.024488542726    -0.584633733101     1.007825032070
           O         -2.341339290439    -0.300278542726     0.077649266899    15.994914619560
           C         -1.177843290439     0.478032457274    -0.008938733101    12.000000000000
           C          0.068777709561    -0.388067542726     0.029451266899    12.000000000000
           H         -1.170344290439     1.089893457274    -0.906673733101     1.007825032070
           H         -1.181144290439     1.143635457274     0.842772266899     1.007825032070
           O          1.177691709561     0.449796457274    -0.060404733101    15.994914619560
           H          0.056877709561    -1.098679542726    -0.799324733101     1.007825032070
           H          0.084917709561    -0.964389542726     0.952585266899     1.007825032070
           C          2.404020709561    -0.207555542726    -0.004305733101    12.000000000000
           H          2.514227709561    -0.914790542726    -0.824246733101     1.007825032070
           H          3.179972709561     0.541389457274    -0.081004733101     1.007825032070
           H          2.523780709561    -0.745396542726     0.933871266899     1.007825032070

  Charge       = 0
  Multiplicity = 1
  Basis Set: 6-31G*
  Basis Set:

    Orbital Energies (a.u.)
    -----------------------

    Doubly Occupied:

       1A    -20.559977     2A    -20.557333     3A    -11.268547
       4A    -11.268286     5A    -11.267813     6A     -1.386279
       7A     -1.363348     8A     -1.017334     9A     -0.911700
      10A     -0.833471    11A     -0.710866    12A     -0.678169
      13A     -0.645436    14A     -0.641431    15A     -0.608606
      16A     -0.551804    17A     -0.544380    18A     -0.493026
      19A     -0.475431    20A     -0.436176    21A     -0.418603

  @DF-RHF Final Energy:  -267.94880896763220

   => Energetics <=

    Nuclear Repulsion Energy =            189.9166200435965095
    One-Electron Energy =                -742.4547518699782813
    Two-Electron Energy =                 284.5893228587497106
    DFT Exchange-Correlation Energy =       0.0000000000000000
    Empirical Dispersion Energy =           0.0000000000000000
    PCM Polarization Energy =               0.0000000000000000
    EFP Energy =                            0.0000000000000000
    Total Energy =                       -267.9488089676320897

  Mulliken Charges: (a.u.)
   Center  Symbol    Alpha    Beta     Spin     Total
       1     H     0.27743  0.27743  0.00000  0.44514
       2     O     4.37527  4.37527  0.00000 -0.75055
       3     C     3.00325  3.00325  0.00000 -0.00650
       4     C     2.99306  2.99306  0.00000  0.01387
       5     H     0.42403  0.42403  0.00000  0.15193
       6     H     0.41796  0.41796  0.00000  0.16408
       7     O     4.30842  4.30842  0.00000 -0.61685
       8     H     0.42902  0.42902  0.00000  0.14196
       9     H     0.42406  0.42406  0.00000  0.15188
      10     C     3.07952  3.07952  0.00000 -0.15904
      11     H     0.42878  0.42878  0.00000  0.14243
      12     H     0.41134  0.41134  0.00000  0.17732
      13     H     0.42784  0.42784  0.00000  0.14433

   Total alpha = 21.00000, Total beta = 21.00000, Total charge = -0.00000
