  ==> Input File <==

--------------------------------------------------------------------------
set {
	reference rhf
	basis 6-31G*
}

set_num_threads( 1 )
memory 2 gb

molecule MOL {
0 1

H	 -3.178481	 -0.836424	 -0.684703
O	 -2.310168	 -0.871793	 -0.309793
C	 -2.026376	 0.340750	 0.341611
C	 -0.673256	 0.843270	 -0.132153
H	 -2.792215	 1.080697	 0.115987
H	 -2.013526	 0.200402	 1.421792
C	 0.486613	 -0.083066	 0.235839
H	 -0.715586	 0.970948	 -1.210718
H	 -0.508072	 1.829858	 0.297090
C	 1.840406	 0.433480	 -0.254303
H	 0.300215	 -1.068318	 -0.178947
H	 0.519509	 -0.203625	 1.318070
C	 3.000220	 -0.489290	 0.118523
H	 1.809207	 0.553576	 -1.335192
H	 2.021860	 1.424500	 0.157276
H	 2.864959	 -1.479103	 -0.307933
H	 3.946603	 -0.099227	 -0.243630
H	 3.080049	 -0.602997	 1.196117

	symmetry c1
}
set optking {
	frozen_dihedral = ("
		14 10 7 11,
		10 7 4 8,
		2 3 4 8
	")
}

ee = energy('scf')
oeprop('DIPOLE', 'QUADRUPOLE', 'MULLIKEN_CHARGES')
f=open( 'psi4out.xyz', 'w' )
f.write( "18  " )
f.write( str(ee) + "\n" )
f.write( MOL.save_string_xyz() )
f.close()
--------------------------------------------------------------------------

    Molecular point group: c1

    Geometry (in Angstrom), charge = 0, multiplicity = 1:

       Center              X                  Y                   Z               Mass
    ------------   -----------------  -----------------  -----------------  -----------------
           H         -3.177988416338    -0.840756138554    -0.676853725302     1.007825032070
           O         -2.309675416338    -0.876125138554    -0.301943725302    15.994914619560
           C         -2.025883416338     0.336417861446     0.349460274698    12.000000000000
           C         -0.672763416338     0.838937861446    -0.124303725302    12.000000000000
           H         -2.791722416338     1.076364861446     0.123836274698     1.007825032070
           H         -2.013033416338     0.196069861446     1.429641274698     1.007825032070
           C          0.487105583662    -0.087398138554     0.243688274698    12.000000000000
           H         -0.715093416338     0.966615861446    -1.202868725302     1.007825032070
           H         -0.507579416338     1.825525861446     0.304939274698     1.007825032070
           C          1.840898583662     0.429147861446    -0.246453725302    12.000000000000
           H          0.300707583662    -1.072650138554    -0.171097725302     1.007825032070
           H          0.520001583662    -0.207957138554     1.325919274698     1.007825032070
           C          3.000712583662    -0.493622138554     0.126372274698    12.000000000000
           H          1.809699583662     0.549243861446    -1.327342725302     1.007825032070
           H          2.022352583662     1.420167861446     0.165125274698     1.007825032070
           H          2.865451583662    -1.483435138554    -0.300083725302     1.007825032070
           H          3.947095583662    -0.103559138554    -0.235780725302     1.007825032070
           H          3.080541583662    -0.607329138554     1.203966274698     1.007825032070

  Charge       = 0
  Multiplicity = 1
  Basis Set: 6-31G*
  Basis Set:

    Orbital Energies (a.u.)
    -----------------------

    Doubly Occupied:

       1A    -20.552099     2A    -11.268317     3A    -11.210483
       4A    -11.210136     5A    -11.205924     6A    -11.204132
       7A     -1.359832     8A     -1.074148     9A     -1.008052
      10A     -0.912800    11A     -0.818664    12A     -0.785213
      13A     -0.701233    14A     -0.648475    15A     -0.616093
      16A     -0.582567    17A     -0.574465    18A     -0.550967
      19A     -0.519944    20A     -0.510376    21A     -0.488417
      22A     -0.466696    23A     -0.457954    24A     -0.444368
      25A     -0.426603

  @DF-RHF Final Energy:  -271.17765227558050

   => Energetics <=

    Nuclear Repulsion Energy =            249.0940728375315700
    One-Electron Energy =                -861.3473824061820778
    Two-Electron Energy =                 341.0756572930702077
    DFT Exchange-Correlation Energy =       0.0000000000000000
    Empirical Dispersion Energy =           0.0000000000000000
    PCM Polarization Energy =               0.0000000000000000
    EFP Energy =                            0.0000000000000000
    Total Energy =                       -271.1776522755802716

  Mulliken Charges: (a.u.)
   Center  Symbol    Alpha    Beta     Spin     Total
       1     H     0.27928  0.27928  0.00000  0.44144
       2     O     4.37054  4.37054  0.00000 -0.74108
       3     C     3.00092  3.00092  0.00000 -0.00183
       4     C     3.15516  3.15516  0.00000 -0.31031
       5     H     0.42987  0.42987  0.00000  0.14026
       6     H     0.42591  0.42591  0.00000  0.14818
       7     C     3.15381  3.15381  0.00000 -0.30762
       8     H     0.42054  0.42054  0.00000  0.15892
       9     H     0.42701  0.42701  0.00000  0.14598
      10     C     3.15144  3.15144  0.00000 -0.30288
      11     H     0.40799  0.40799  0.00000  0.18402
      12     H     0.42642  0.42642  0.00000  0.14717
      13     C     3.23895  3.23895  0.00000 -0.47789
      14     H     0.42317  0.42317  0.00000  0.15365
      15     H     0.42523  0.42523  0.00000  0.14953
      16     H     0.42083  0.42083  0.00000  0.15834
      17     H     0.42058  0.42058  0.00000  0.15883
      18     H     0.42235  0.42235  0.00000  0.15530

   Total alpha = 25.00000, Total beta = 25.00000, Total charge = -0.00000
