  ==> Input File <==

--------------------------------------------------------------------------
set {
	reference rhf
	basis 6-31G*
}

set_num_threads( 4 )
memory 2 gb

molecule MOL {
0 1

H	 -3.358846	 2.238431	 -1.386428
O	 -2.650448	 1.655357	 -1.619027
C	 -1.858099	 1.400079	 -0.487830
C	 -0.734986	 0.463567	 -0.896866
H	 -1.445238	 2.327068	 -0.092175
H	 -2.453750	 0.945023	 0.302401
C	 0.198102	 0.111031	 0.262842
H	 -0.173423	 0.933397	 -1.699757
H	 -1.176085	 -0.438849	 -1.311058
C	 1.331804	 -0.827780	 -0.158768
H	 0.611128	 1.026179	 0.680080
H	 -0.375320	 -0.358739	 1.060978
C	 2.723619	 -0.410569	 0.329459
H	 1.342964	 -0.912588	 -1.244120
H	 1.116806	 -1.824343	 0.220779
C	 3.243875	 0.895854	 -0.272975
H	 3.424222	 -1.207124	 0.091250
H	 2.714788	 -0.329854	 1.414619
H	 3.251977	 0.848779	 -1.358681
H	 2.637085	 1.747371	 0.016682
H	 4.259473	 1.094070	 0.055697

	symmetry c1
}
set optking {
	frozen_dihedral = ("
		4 7 10 14
	")
}

ee = optimize('scf')
oeprop('DIPOLE', 'QUADRUPOLE', 'MULLIKEN_CHARGES')
f=open( 'psi4out.xyz', 'w' )
f.write( "21  " )
f.write( str(ee) + "\n" )
f.write( MOL.save_string_xyz() )
f.close()
--------------------------------------------------------------------------

    Molecular point group: c1
  Charge       = 0
  Multiplicity = 1
  Basis Set: 6-31G*
  Basis Set:
  @DF-RHF Final Energy:  -310.20772863961065
    Total Energy =                       -310.2077286396103091
    Molecular point group: c1
  Basis Set: 6-31G*
  Basis Set:
  Basis Set: 6-31G*
  Basis Set:
  @DF-RHF Final Energy:  -310.20790983784622
    Total Energy =                       -310.2079098378462731
  Basis Set: 6-31G*
  Basis Set:
  Basis Set: 6-31G*
  Basis Set:
  @DF-RHF Final Energy:  -310.20807350444386
    Total Energy =                       -310.2080735044439734
  Basis Set: 6-31G*
  Basis Set:
  Basis Set: 6-31G*
  Basis Set:
  @DF-RHF Final Energy:  -310.20817292803270
    Total Energy =                       -310.2081729280327522
  Basis Set: 6-31G*
  Basis Set:
  Basis Set: 6-31G*
  Basis Set:
  @DF-RHF Final Energy:  -310.20817698227853
    Total Energy =                       -310.2081769822785873
  Basis Set: 6-31G*
  Basis Set:
  Charge       = 0
  Multiplicity = 1
  Basis Set: 6-31G*
  Basis Set:

    Orbital Energies (a.u.)
    -----------------------

    Doubly Occupied:

       1A    -20.551764     2A    -11.266797     3A    -11.215581
       4A    -11.215293     5A    -11.213205     6A    -11.210803
       7A    -11.207863     8A     -1.358545     9A     -1.084423
      10A     -1.032744    11A     -0.953408    12A     -0.875508
      13A     -0.806665    14A     -0.780843    15A     -0.692317
      16A     -0.659857    17A     -0.618996    18A     -0.610903
      19A     -0.585801    20A     -0.558474    21A     -0.549337
      22A     -0.519837    23A     -0.501318    24A     -0.491153
      25A     -0.480993    26A     -0.460367    27A     -0.451190
      28A     -0.442479    29A     -0.434070

  @DF-RHF Final Energy:  -310.20818612992053

   => Energetics <=

    Nuclear Repulsion Energy =            314.5381007616117017
    One-Electron Energy =               -1043.8315041696528169
    Two-Electron Energy =                 419.0852172781205809
    DFT Exchange-Correlation Energy =       0.0000000000000000
    Empirical Dispersion Energy =           0.0000000000000000
    PCM Polarization Energy =               0.0000000000000000
    EFP Energy =                            0.0000000000000000
    Total Energy =                       -310.2081861299204775
    Molecular point group: c1
  Basis Set: 6-31G*
  Basis Set:

  -Total Gradient:
     Atom            X                  Y                   Z
    ------   -----------------  -----------------  -----------------
       1       -0.000004755263     0.000001906816    -0.000006417973
       2       -0.000016926823     0.000006604588     0.000000518707
       3        0.000009863736    -0.000000455953    -0.000004275658
       4        0.000936098093     0.001295097997    -0.000304031317
       5        0.000000254929    -0.000003953385     0.000000736340
       6       -0.000000801993     0.000002003268    -0.000000423980
       7       -0.001616120199    -0.002213028952     0.000467125965
       8        0.000002672985    -0.000002412883     0.000011350297
       9        0.000002204766    -0.000000835073     0.000004747399
      10        0.002079643790     0.002685628039    -0.000211219408
      11       -0.000029793774     0.000003627793    -0.000002810348
      12       -0.000009748354    -0.000000647449    -0.000007404107
      13        0.000000011587    -0.000017636366    -0.000009915394
      14       -0.001369445599    -0.001758110314     0.000070673337
      15        0.000007795271    -0.000005710842     0.000010612684
      16        0.000007467498     0.000012707422    -0.000009349145
      17       -0.000004806231    -0.000004198464     0.000001715463
      18       -0.000007772887    -0.000010003513    -0.000003018933
      19        0.000009063380     0.000013234766    -0.000004260914
      20        0.000015241185    -0.000001270621    -0.000002845479
      21       -0.000010146087    -0.000002546875    -0.000001507536

  **** Optimization is complete! (in 6 steps) ****
    Final optimized geometry and variables:
    Molecular point group: c1

    Geometry (in Angstrom), charge = 0, multiplicity = 1:

    H           -3.662527851741     1.713191937708    -0.922042026287
    O           -2.935483032559     1.160368714351    -1.170427339342
    C           -2.155732162653     0.868849899170    -0.039169312604
    C           -1.002309730170    -0.017663963612    -0.473255510381
    H           -1.773540146080     1.785088797404     0.409229661238
    H           -2.752490194384     0.360434052667     0.716983777557
    C           -0.071864469706    -0.394548761801     0.681197152676
    H           -0.441400541667     0.500786810220    -1.245925572624
    H           -1.412689015413    -0.912600900219    -0.933621551636
    C            1.083608771415    -1.328171182389     0.257040295065
    H            0.330650588538     0.518241354900     1.114004827915
    H           -0.646817312139    -0.867131120348     1.473843066186
    C            2.463815114203    -0.918145065299     0.782403032952
    H            1.118760610194    -1.402130083719    -0.827721882106
    H            0.867154948376    -2.335214408916     0.603725158542
    C            3.029707703651     0.340730430719     0.123116795820
    H            3.158655153189    -1.738397474643     0.620111417363
    H            2.410463976174    -0.774236744134     1.859733278860
    H            3.144531124735     0.198304664085    -0.947793804385
    H            2.387092291857     1.202718357985     0.272939460849
    H            4.005564982090     0.587434467635     0.530117976896

  Mulliken Charges: (a.u.)
   Center  Symbol    Alpha    Beta     Spin     Total
       1     H     0.28120  0.28120  0.00000  0.43761
       2     O     4.37170  4.37170  0.00000 -0.74340
       3     C     2.99029  2.99029  0.00000  0.01941
       4     C     3.16111  3.16111  0.00000 -0.32221
       5     H     0.43308  0.43308  0.00000  0.13384
       6     H     0.43286  0.43286  0.00000  0.13429
       7     C     3.16357  3.16357  0.00000 -0.32714
       8     H     0.41422  0.41422  0.00000  0.17157
       9     H     0.41462  0.41462  0.00000  0.17076
      10     C     3.15533  3.15533  0.00000 -0.31067
      11     H     0.42148  0.42148  0.00000  0.15705
      12     H     0.42095  0.42095  0.00000  0.15809
      13     C     3.15401  3.15401  0.00000 -0.30802
      14     H     0.41951  0.41951  0.00000  0.16097
      15     H     0.41953  0.41953  0.00000  0.16094
      16     C     3.24034  3.24034  0.00000 -0.48068
      17     H     0.42127  0.42127  0.00000  0.15747
      18     H     0.42332  0.42332  0.00000  0.15336
      19     H     0.42117  0.42117  0.00000  0.15766
      20     H     0.42109  0.42109  0.00000  0.15783
      21     H     0.41937  0.41937  0.00000  0.16126

   Total alpha = 29.00000, Total beta = 29.00000, Total charge =  0.00000
