                              Psi4 1.0.54 Driver

  ==> Input File <==

--------------------------------------------------------------------------
set {
	reference rhf
	basis cc-pvtz
}

set_num_threads( 4 )
memory 2 gb

molecule MOL {
0 1

H	 -0.518474	 2.676579	 -1.462816
C	 0.241231	 2.298399	 -0.765200
C	 0.062554	 0.862911	 -0.350953
O	 1.117067	 3.005263	 -0.404079
C	 -1.339253	 0.577611	 0.196911
H	 0.829515	 0.614579	 0.371263
H	 0.229315	 0.258108	 -1.239478
C	 -1.813142	 -0.849710	 -0.061612
H	 -2.032833	 1.276441	 -0.256032
H	 -1.357249	 0.782269	 1.263793
H	 -1.839268	 -1.063526	 -1.124230
H	 -2.810118	 -1.001930	 0.334000
H	 -1.159274	 -1.579980	 0.402282

	symmetry c1
}
set optking {
	frozen_dihedral = ("
		6 3 5 9
	")
}

ee,wfn = optimize('scf', return_wfn=True)
oeprop( wfn, 'DIPOLE', 'QUADRUPOLE', 'MULLIKEN_CHARGES')
f=open( 'psi4out.xyz', 'w' )
f.write( "13  " )
f.write( str(ee) + "\n" )
f.write( MOL.save_string_xyz() )
f.close()
--------------------------------------------------------------------------

    Molecular point group: c1
  Charge       = 0
  Multiplicity = 1
  Basis Set: CC-PVTZ
  Basis Set:
  @DF-RHF Final Energy:  -231.06894305634438
    Total Energy =                       -231.0689430563445796
    Molecular point group: c1
  Basis Set: CC-PVTZ
  Basis Set:
  Basis Set: CC-PVTZ
  Basis Set:
  @DF-RHF Final Energy:  -231.06921679566258
    Total Energy =                       -231.0692167956626690
  Basis Set: CC-PVTZ
  Basis Set:
  Basis Set: CC-PVTZ
  Basis Set:
  @DF-RHF Final Energy:  -231.06902234404237
    Total Energy =                       -231.0690223440421960
  Basis Set: CC-PVTZ
  Basis Set:
  Basis Set: CC-PVTZ
  Basis Set:
  @DF-RHF Final Energy:  -231.06927711638184
    Total Energy =                       -231.0692771163817554
  Basis Set: CC-PVTZ
  Basis Set:
  Basis Set: CC-PVTZ
  Basis Set:
  @DF-RHF Final Energy:  -231.06928655878579
    Total Energy =                       -231.0692865587858194
  Basis Set: CC-PVTZ
  Basis Set:
  Basis Set: CC-PVTZ
  Basis Set:
  @DF-RHF Final Energy:  -231.06929265491920
    Total Energy =                       -231.0692926549191668
  Basis Set: CC-PVTZ
  Basis Set:
  Charge       = 0
  Multiplicity = 1
  Basis Set: CC-PVTZ
  Basis Set:

    Orbital Energies (a.u.)
    -----------------------

    Doubly Occupied:

       1A    -20.552690     2A    -11.321752     3A    -11.237427
       4A    -11.234757     5A    -11.222654     6A     -1.407675
       7A     -1.087399     8A     -0.977929     9A     -0.841941
      10A     -0.794327    11A     -0.680266    12A     -0.646202
      13A     -0.625674    14A     -0.591379    15A     -0.566793
      16A     -0.530643    17A     -0.517382    18A     -0.490350
      19A     -0.485839    20A     -0.413097

  @DF-RHF Final Energy:  -231.06929335677356

   => Energetics <=

    Nuclear Repulsion Energy =            170.7976376497270223
    One-Electron Energy =                -651.2815061969855606
    Two-Electron Energy =                 249.4145751904850385
    DFT Exchange-Correlation Energy =       0.0000000000000000
    Empirical Dispersion Energy =           0.0000000000000000
    PCM Polarization Energy =               0.0000000000000000
    EFP Energy =                            0.0000000000000000
    Total Energy =                       -231.0692933567735281
    Molecular point group: c1
  Basis Set: CC-PVTZ
  Basis Set:

  -Total Gradient:
     Atom            X                  Y                   Z
    ------   -----------------  -----------------  -----------------
       1        0.000028540264     0.000001045683     0.000025588813
       2       -0.000007434601     0.000061772860    -0.000024866329
       3        0.000309366583    -0.003994909821    -0.000997531255
       4       -0.000036624947    -0.000044756090    -0.000015258030
       5       -0.000785862237    -0.002149510741    -0.003146955793
       6       -0.000128857176     0.003609030685     0.001369522905
       7       -0.000006691166     0.000003700472    -0.000004290772
       8        0.000019927870     0.000023216779    -0.000004266145
       9        0.000604186696     0.002488432556     0.002806449585
      10       -0.000005979571     0.000016886879     0.000007842968
      11       -0.000014778112    -0.000015905672    -0.000018395208
      12        0.000016661999     0.000008672753     0.000003728477
      13        0.000007544394    -0.000007676340    -0.000001569218

  **** Optimization is complete! (in 7 steps) ****
    Final optimized geometry and variables:
    Molecular point group: c1

    Geometry (in Angstrom), charge = 0, multiplicity = 1:

    H           -0.082072818866     1.505096398187    -1.249698519247
    C            0.612757107256     1.120782475189    -0.491161162173
    C            0.419641818721    -0.326765930116    -0.125110073992
    O            1.431634340148     1.833135372135    -0.023291517123
    C           -0.995089061438    -0.589487481619     0.413513697051
    H            1.174763772901    -0.575032750125     0.608210980724
    H            0.591962011533    -0.912444485155    -1.024585095554
    C           -1.461723009734    -2.025660720894     0.212876514296
    H           -1.698381038952     0.102141113375    -0.041985609748
    H           -1.006961831985    -0.348992203951     1.471256407237
    H           -1.522578341941    -2.273408794767    -0.841240012664
    H           -2.441218534314    -2.181110444004     0.648811528592
    H           -0.776345813320    -2.725534807309     0.678398695702

  Mulliken Charges: (a.u.)
   Center  Symbol    Alpha    Beta     Spin     Total
       1     H     0.46629  0.46629  0.00000  0.06741
       2     C     2.90464  2.90464  0.00000  0.19071
       3     C     3.07995  3.07995  0.00000 -0.15991
       4     O     4.16391  4.16391  0.00000 -0.32782
       5     C     3.09530  3.09530  0.00000 -0.19061
       6     H     0.44181  0.44181  0.00000  0.11639
       7     H     0.45129  0.45129  0.00000  0.09743
       8     C     3.14687  3.14687  0.00000 -0.29374
       9     H     0.45290  0.45290  0.00000  0.09421
      10     H     0.44495  0.44495  0.00000  0.11010
      11     H     0.45460  0.45460  0.00000  0.09080
      12     H     0.44626  0.44626  0.00000  0.10749
      13     H     0.45123  0.45123  0.00000  0.09754

   Total alpha = 20.00000, Total beta = 20.00000, Total charge = -0.00000

*** Psi4 exiting successfully. Buy a developer a beer!
