  ==> Input File <==

--------------------------------------------------------------------------
set {
	reference rhf
	basis cc-pvtz
}

set_num_threads( 4 )
memory 2 gb

molecule MOL {
0 1

H	 -0.989351	 0.161108	 1.390524
C	 -0.020079	 0.575473	 1.137595
N	 0.526300	 -0.128137	 0.000000
H	 0.626934	 0.444653	 1.995674
H	 -0.151916	 1.646351	 0.969036
C	 -0.247113	 0.037112	 -1.209233
H	 1.468047	 0.158508	 -0.156862
H	 -0.996493	 -0.743733	 -1.271440
H	 0.397975	 -0.057351	 -2.073512
H	 -0.763794	 0.997171	 -1.271673

	symmetry c1
}
set optking {
	frozen_dihedral = ("
		2 3 6 8
	")
}

ee = optimize('scf')
oeprop('DIPOLE', 'QUADRUPOLE', 'MULLIKEN_CHARGES')
f=open( 'psi4out.xyz', 'w' )
f.write( "10  " )
f.write( str(ee) + "\n" )
f.write( MOL.save_string_xyz() )
f.close()
--------------------------------------------------------------------------

    Molecular point group: c1
  Charge       = 0
  Multiplicity = 1
  Basis Set: CC-PVTZ
  Basis Set:
  @DF-RHF Final Energy:  -134.29104797158766
    Total Energy =                       -134.2910479715876022
    Molecular point group: c1
  Basis Set: CC-PVTZ
  Basis Set:
  Basis Set: CC-PVTZ
  Basis Set:
  @DF-RHF Final Energy:  -134.29120739044265
    Total Energy =                       -134.2912073904426791
  Basis Set: CC-PVTZ
  Basis Set:
  Basis Set: CC-PVTZ
  Basis Set:
  @DF-RHF Final Energy:  -134.29122726448310
    Total Energy =                       -134.2912272644832115
  Basis Set: CC-PVTZ
  Basis Set:
  Charge       = 0
  Multiplicity = 1
  Basis Set: CC-PVTZ
  Basis Set:

    Orbital Energies (a.u.)
    -----------------------

    Doubly Occupied:

       1A    -15.532354     2A    -11.234316     3A    -11.234205
       4A     -1.199855     5A     -0.948597     6A     -0.854239
       7A     -0.661261     8A     -0.614969     9A     -0.591342
      10A     -0.542124    11A     -0.508088    12A     -0.505172
      13A     -0.364979

  @DF-RHF Final Energy:  -134.29122800433089

   => Energetics <=

    Nuclear Repulsion Energy =             84.6351150354066561
    One-Electron Energy =                -348.2696846433474889
    Two-Electron Energy =                 129.3433416036099572
    DFT Exchange-Correlation Energy =       0.0000000000000000
    Empirical Dispersion Energy =           0.0000000000000000
    PCM Polarization Energy =               0.0000000000000000
    EFP Energy =                            0.0000000000000000
    Total Energy =                       -134.2912280043308613
    Molecular point group: c1
  Basis Set: CC-PVTZ
  Basis Set:

  -Total Gradient:
     Atom            X                  Y                   Z
    ------   -----------------  -----------------  -----------------
       1        0.000012155738    -0.000005228161    -0.000010143934
       2        0.001666259813     0.002300235464    -0.000779183457
       3       -0.001649086162    -0.003813714071     0.000491086253
       4       -0.000000060647     0.000002854169     0.000016768207
       5       -0.000021229671     0.000011747706     0.000003292247
       6       -0.002459129217     0.003718547211     0.002176951933
       7       -0.000028651457    -0.000018970778     0.000032881259
       8        0.002480290329    -0.002196966908    -0.001884539273
       9        0.000004822858    -0.000007055782    -0.000027020718
      10       -0.000005371584     0.000008551151    -0.000020092516

  **** Optimization is complete! (in 4 steps) ****
    Final optimized geometry and variables:
    Molecular point group: c1

    Geometry (in Angstrom), charge = 0, multiplicity = 1:

    H           -1.068822020304    -0.021764771640     1.428690502240
    C           -0.100434816442     0.392456519941     1.171034290418
    N            0.443198802273    -0.306677143613     0.028427715598
    H            0.549772333501     0.258930143743     2.026421079971
    H           -0.233163981099     1.462867814531     1.003696393959
    C           -0.334776984761    -0.147264269657    -1.184172062003
    H            1.376202679388     0.003552461074    -0.130611919960
    H           -1.085552045248    -0.926087801644    -1.260874982817
    H            0.311233146014    -0.258335036482    -2.046811140255
    H           -0.825637151492     0.822454724357    -1.259065375440

  Mulliken Charges: (a.u.)
   Center  Symbol    Alpha    Beta     Spin     Total
       1     H     0.45684  0.45684  0.00000  0.08633
       2     C     3.08280  3.08280  0.00000 -0.16559
       3     N     3.62824  3.62824  0.00000 -0.25648
       4     H     0.45279  0.45279  0.00000  0.09443
       5     H     0.47369  0.47369  0.00000  0.05262
       6     C     3.07700  3.07700  0.00000 -0.15399
       7     H     0.44114  0.44114  0.00000  0.11773
       8     H     0.45573  0.45573  0.00000  0.08854
       9     H     0.45692  0.45692  0.00000  0.08616
      10     H     0.47487  0.47487  0.00000  0.05026

   Total alpha = 13.00000, Total beta = 13.00000, Total charge = -0.00000
