  ==> Input File <==

--------------------------------------------------------------------------
set {
	reference rhf
	basis cc-pvtz
}

set_num_threads( 4 )
memory 2 gb

molecule MOL {
0 1

H	 -3.866950	 -1.857436	 -0.806867
C	 -2.798752	 -1.757034	 -0.839239
C	 -2.086076	 -2.301772	 -1.892328
C	 -2.139323	 -1.083724	 0.171598
H	 -2.598592	 -2.824252	 -2.676575
C	 -0.713462	 -2.172343	 -1.933232
H	 -2.692921	 -0.661640	 0.987836
C	 -0.764943	 -0.953289	 0.132061
H	 -0.146167	 -2.587895	 -2.741039
C	 -0.047836	 -1.497762	 -0.921419
H	 -0.251190	 -0.432458	 0.913293
C	 1.436106	 -1.385217	 -1.011803
O	 1.968286	 -0.725612	 -0.000027
O	 2.079060	 -1.838999	 -1.898296
C	 3.373556	 -0.568203	 0.000011
H	 3.695416	 -0.031588	 -0.879663
H	 3.782700	 -1.565294	 -0.000152
H	 3.695405	 -0.031851	 0.879862

	symmetry c1
}
set optking {
	frozen_dihedral = ("
		12 13 15 16
	")
}

ee = optimize('scf')
oeprop('DIPOLE', 'QUADRUPOLE', 'MULLIKEN_CHARGES')
f=open( 'psi4out.xyz', 'w' )
f.write( "18  " )
f.write( str(ee) + "\n" )
f.write( MOL.save_string_xyz() )
f.close()
--------------------------------------------------------------------------

    Molecular point group: c1
  Charge       = 0
  Multiplicity = 1
  Basis Set: CC-PVTZ
  Basis Set:
  @DF-RHF Final Energy:  -457.50865169190956
    Total Energy =                       -457.5086516919097903
    Molecular point group: c1
  Basis Set: CC-PVTZ
  Basis Set:
  Basis Set: CC-PVTZ
  Basis Set:
  @DF-RHF Final Energy:  -457.50992820680750
    Total Energy =                       -457.5099282068081266
  Basis Set: CC-PVTZ
  Basis Set:
  Basis Set: CC-PVTZ
  Basis Set:
  @DF-RHF Final Energy:  -457.51005864857768
    Total Energy =                       -457.5100586485777967
  Basis Set: CC-PVTZ
  Basis Set:
  Basis Set: CC-PVTZ
  Basis Set:
  @DF-RHF Final Energy:  -457.50999852651597
    Total Energy =                       -457.5099985265164833
  Basis Set: CC-PVTZ
  Basis Set:
  Basis Set: CC-PVTZ
  Basis Set:
  @DF-RHF Final Energy:  -457.51024168402887
    Total Energy =                       -457.5102416840290971
  Basis Set: CC-PVTZ
  Basis Set:
  Charge       = 0
  Multiplicity = 1
  Basis Set: CC-PVTZ
  Basis Set:

    Orbital Energies (a.u.)
    -----------------------

    Doubly Occupied:

       1A    -20.601012     2A    -20.534491     3A    -11.371762
       4A    -11.281227     5A    -11.245037     6A    -11.243544
       7A    -11.242755     8A    -11.240106     9A    -11.236113
      10A    -11.235353    11A     -1.477118    12A     -1.368468
      13A     -1.170850    14A     -1.051904    15A     -1.029111
      16A     -0.980529    17A     -0.863271    18A     -0.838527
      19A     -0.781302    20A     -0.745095    21A     -0.687886
      22A     -0.681838    23A     -0.676442    24A     -0.634126
      25A     -0.630123    26A     -0.601351    27A     -0.587579
      28A     -0.564949    29A     -0.531965    30A     -0.520373
      31A     -0.509513    32A     -0.502303    33A     -0.464200
      34A     -0.449520    35A     -0.350263    36A     -0.346307

  @DF-RHF Final Energy:  -457.51024284976904

   => Energetics <=

    Nuclear Repulsion Energy =            494.0491893594180510
    One-Electron Energy =               -1602.5662334038993322
    Two-Electron Energy =                 651.0068011947123523
    DFT Exchange-Correlation Energy =       0.0000000000000000
    Empirical Dispersion Energy =           0.0000000000000000
    PCM Polarization Energy =               0.0000000000000000
    EFP Energy =                            0.0000000000000000
    Total Energy =                       -457.5102428497689289
    Molecular point group: c1
  Basis Set: CC-PVTZ
  Basis Set:

  -Total Gradient:
     Atom            X                  Y                   Z
    ------   -----------------  -----------------  -----------------
       1        0.000001047003     0.000000822331     0.000001606643
       2        0.000001498021    -0.000002192457    -0.000006556677
       3       -0.000005547464    -0.000000579042     0.000010204558
       4        0.000005596697     0.000004950155     0.000000486722
       5        0.000002278148     0.000000988999     0.000000152182
       6        0.000014110552     0.000005921016    -0.000004103778
       7       -0.000000756677    -0.000001290481    -0.000000102397
       8       -0.000005324503     0.000001246899     0.000009429851
       9       -0.000000652545    -0.000000387807     0.000001999511
      10        0.000011961747    -0.000007242324    -0.000010632070
      11       -0.000002045080    -0.000001527356    -0.000002622194
      12       -0.000060431223     0.000056101966     0.000006900763
      13        0.000065287007    -0.000070316962     0.000054173711
      14        0.000043069552    -0.000002146598    -0.000004575655
      15       -0.000018187870     0.000064136388    -0.000037129261
      16        0.000012499374    -0.000039844890    -0.000018193796
      17       -0.000029415490     0.000011031769     0.000011912023
      18       -0.000034987252    -0.000019671608    -0.000012950134

  **** Optimization is complete! (in 6 steps) ****
    Final optimized geometry and variables:
    Molecular point group: c1

    Geometry (in Angstrom), charge = 0, multiplicity = 1:

    H           -4.026148490757    -0.438063102837     0.008085067477
    C           -2.957702011918    -0.340376262158    -0.025479733350
    C           -2.247800216209    -0.885130059531    -1.080562639315
    C           -2.295111811813     0.329331775448     0.985628518542
    H           -2.762741470246    -1.404869363253    -1.865111895185
    C           -0.874936095145    -0.759234692290    -1.123088266940
    H           -2.846359868339     0.751458051928     1.803472998373
    C           -0.920314148803     0.456206713282     0.944490015266
    H           -0.309880277884    -1.174890498188    -1.932477041118
    C           -0.206185853502    -0.088219672943    -0.110889397203
    H           -0.404279164284     0.974309558536     1.726103639853
    C            1.278157366841     0.020448206176    -0.203320811864
    O            1.813815125049     0.676505239637     0.808702603783
    O            1.918625428173    -0.433387475783    -1.091590521369
    C            3.219080608231     0.830739216152     0.806143709079
    H            3.540842115079     1.368593116948    -0.072855844973
    H            3.706546159465    -0.132289446839     0.830039388067
    H            3.456921862757     1.391469087183     1.695298235962

  Mulliken Charges: (a.u.)
   Center  Symbol    Alpha    Beta     Spin     Total
       1     H     0.42028  0.42028  0.00000  0.15944
       2     C     3.06974  3.06974  0.00000 -0.13949
       3     C     3.07550  3.07550  0.00000 -0.15100
       4     C     3.07493  3.07493  0.00000 -0.14986
       5     H     0.42037  0.42037  0.00000  0.15925
       6     C     3.07590  3.07590  0.00000 -0.15179
       7     H     0.42188  0.42188  0.00000  0.15625
       8     C     3.08212  3.08212  0.00000 -0.16423
       9     H     0.40667  0.40667  0.00000  0.18665
      10     C     3.01230  3.01230  0.00000 -0.02461
      11     H     0.41103  0.41103  0.00000  0.17794
      12     C     2.78241  2.78241  0.00000  0.43518
      13     O     4.14834  4.14834  0.00000 -0.29668
      14     O     4.21128  4.21128  0.00000 -0.42255
      15     C     3.03660  3.03660  0.00000 -0.07320
      16     H     0.45258  0.45258  0.00000  0.09484
      17     H     0.45278  0.45278  0.00000  0.09444
      18     H     0.44530  0.44530  0.00000  0.10939

   Total alpha = 36.00000, Total beta = 36.00000, Total charge = -0.00000
