  ==> Input File <==

--------------------------------------------------------------------------
set {
	reference rhf
	basis 6-31G*
}

set_num_threads( 1 )
memory 2 gb

molecule MOL {
0 1

H	 -1.523722	 -1.395462	 -0.365007
O	 -2.310168	 -0.871793	 -0.309793
C	 -2.026376	 0.340750	 0.341611
C	 -0.673256	 0.843270	 -0.132153
H	 -2.792215	 1.080697	 0.115987
H	 -2.013526	 0.200402	 1.421792
C	 0.486613	 -0.083066	 0.235839
H	 -0.715586	 0.970948	 -1.210718
H	 -0.508072	 1.829858	 0.297090
C	 1.840406	 0.433480	 -0.254303
H	 0.300215	 -1.068318	 -0.178947
H	 0.519509	 -0.203625	 1.318070
C	 3.000220	 -0.489290	 0.118523
H	 1.809207	 0.553576	 -1.335192
H	 2.021860	 1.424500	 0.157276
H	 2.864959	 -1.479103	 -0.307933
H	 3.946603	 -0.099227	 -0.243630
H	 3.080049	 -0.602997	 1.196117

	symmetry c1
}
set optking {
	frozen_dihedral = ("
		14 10 7 11,
		10 7 4 8,
		2 3 4 8
	")
}

ee = energy('scf')
oeprop('DIPOLE', 'QUADRUPOLE', 'MULLIKEN_CHARGES')
f=open( 'psi4out.xyz', 'w' )
f.write( "18  " )
f.write( str(ee) + "\n" )
f.write( MOL.save_string_xyz() )
f.close()
--------------------------------------------------------------------------

    Molecular point group: c1

    Geometry (in Angstrom), charge = 0, multiplicity = 1:

       Center              X                  Y                   Z               Mass
    ------------   -----------------  -----------------  -----------------  -----------------
           H         -1.542161530956    -1.393398179086    -0.360815370502     1.007825032070
           O         -2.328607530956    -0.869729179086    -0.305601370502    15.994914619560
           C         -2.044815530956     0.342813820914     0.345802629498    12.000000000000
           C         -0.691695530956     0.845333820914    -0.127961370502    12.000000000000
           H         -2.810654530956     1.082760820914     0.120178629498     1.007825032070
           H         -2.031965530956     0.202465820914     1.425983629498     1.007825032070
           C          0.468173469044    -0.081002179086     0.240030629498    12.000000000000
           H         -0.734025530956     0.973011820914    -1.206526370502     1.007825032070
           H         -0.526511530956     1.831921820914     0.301281629498     1.007825032070
           C          1.821966469044     0.435543820914    -0.250111370502    12.000000000000
           H          0.281775469044    -1.066254179086    -0.174755370502     1.007825032070
           H          0.501069469044    -0.201561179086     1.322261629498     1.007825032070
           C          2.981780469044    -0.487226179086     0.122714629498    12.000000000000
           H          1.790767469044     0.555639820914    -1.331000370502     1.007825032070
           H          2.003420469044     1.426563820914     0.161467629498     1.007825032070
           H          2.846519469044    -1.477039179086    -0.303741370502     1.007825032070
           H          3.928163469044    -0.097163179086    -0.239438370502     1.007825032070
           H          3.061609469044    -0.600933179086     1.200308629498     1.007825032070

  Charge       = 0
  Multiplicity = 1
  Basis Set: 6-31G*
  Basis Set:

    Orbital Energies (a.u.)
    -----------------------

    Doubly Occupied:

       1A    -20.547962     2A    -11.267652     3A    -11.227292
       4A    -11.223985     5A    -11.218806     6A    -11.214809
       7A     -1.357986     8A     -1.087431     9A     -1.014908
      10A     -0.925476    11A     -0.833450    12A     -0.797700
      13A     -0.679953    14A     -0.659695    15A     -0.621895
      16A     -0.614277    17A     -0.577729    18A     -0.566401
      19A     -0.533122    20A     -0.507334    21A     -0.493758
      22A     -0.480967    23A     -0.474232    24A     -0.451001
      25A     -0.428560

  @DF-RHF Final Energy:  -271.17507353286442

   => Energetics <=

    Nuclear Repulsion Energy =            250.5571361193348991
    One-Electron Energy =                -863.8514171569278233
    Two-Electron Energy =                 342.1192075047279673
    DFT Exchange-Correlation Energy =       0.0000000000000000
    Empirical Dispersion Energy =           0.0000000000000000
    PCM Polarization Energy =               0.0000000000000000
    EFP Energy =                            0.0000000000000000
    Total Energy =                       -271.1750735328649284

  Mulliken Charges: (a.u.)
   Center  Symbol    Alpha    Beta     Spin     Total
       1     H     0.27496  0.27496  0.00000  0.45008
       2     O     4.37781  4.37781  0.00000 -0.75561
       3     C     2.98607  2.98607  0.00000  0.02786
       4     C     3.17401  3.17401  0.00000 -0.34802
       5     H     0.41583  0.41583  0.00000  0.16833
       6     H     0.43113  0.43113  0.00000  0.13774
       7     C     3.16093  3.16093  0.00000 -0.32187
       8     H     0.41444  0.41444  0.00000  0.17111
       9     H     0.42203  0.42203  0.00000  0.15594
      10     C     3.15035  3.15035  0.00000 -0.30070
      11     H     0.43298  0.43298  0.00000  0.13405
      12     H     0.41912  0.41912  0.00000  0.16176
      13     C     3.24004  3.24004  0.00000 -0.48008
      14     H     0.42038  0.42038  0.00000  0.15924
      15     H     0.42027  0.42027  0.00000  0.15946
      16     H     0.42124  0.42124  0.00000  0.15751
      17     H     0.41752  0.41752  0.00000  0.16497
      18     H     0.42090  0.42090  0.00000  0.15821

   Total alpha = 25.00000, Total beta = 25.00000, Total charge =  0.00000
