  ==> Input File <==

--------------------------------------------------------------------------
set {
	reference rhf
	basis 6-31G*
}

set_num_threads( 4 )
memory 2 gb

molecule MOL {
0 1

O	 -1.276010	 1.052711	 -0.768302
C	 -1.204840	 0.067374	 -0.106123
C	 -2.388195	 -0.672128	 0.458071
O	 -0.067104	 -0.527208	 0.221609
H	 -2.388023	 -1.694060	 0.097175
H	 -3.300579	 -0.174919	 0.164318
H	 -2.315377	 -0.706351	 1.539059
C	 1.154827	 0.221245	 0.153561
C	 2.258984	 -0.800877	 -0.050622
C	 1.327767	 1.039089	 1.423942
H	 1.093006	 0.880442	 -0.699753
H	 2.089544	 -1.371771	 -0.956502
H	 3.219071	 -0.302289	 -0.134144
H	 2.302193	 -1.490830	 0.785291
H	 2.262143	 1.590187	 1.388617
H	 0.519896	 1.751095	 1.535158
H	 1.346593	 0.389634	 2.293344

	symmetry c1
}
set optking {
	frozen_dihedral = ("
		8 4 2 1
	")
}

ee = optimize('scf')
oeprop('DIPOLE', 'QUADRUPOLE', 'MULLIKEN_CHARGES')
f=open( 'psi4out.xyz', 'w' )
f.write( "17  " )
f.write( str(ee) + "\n" )
f.write( MOL.save_string_xyz() )
f.close()
--------------------------------------------------------------------------

    Molecular point group: c1
  Charge       = 0
  Multiplicity = 1
  Basis Set: 6-31G*
  Basis Set:
  @DF-RHF Final Energy:  -344.91240339053894
    Total Energy =                       -344.9124033905388842
    Molecular point group: c1
  Basis Set: 6-31G*
  Basis Set:
  Basis Set: 6-31G*
  Basis Set:
  @DF-RHF Final Energy:  -344.90981457998600
    Total Energy =                       -344.9098145799862891
  Basis Set: 6-31G*
  Basis Set:
  Basis Set: 6-31G*
  Basis Set:
  @DF-RHF Final Energy:  -344.91262682435786
    Total Energy =                       -344.9126268243579716
  Basis Set: 6-31G*
  Basis Set:
  Basis Set: 6-31G*
  Basis Set:
  @DF-RHF Final Energy:  -344.91267091634609
    Total Energy =                       -344.9126709163462010
  Basis Set: 6-31G*
  Basis Set:
  Basis Set: 6-31G*
  Basis Set:
  @DF-RHF Final Energy:  -344.91268861868946
    Total Energy =                       -344.9126886186896286
  Basis Set: 6-31G*
  Basis Set:
  Basis Set: 6-31G*
  Basis Set:
  @DF-RHF Final Energy:  -344.91269262907116
    Total Energy =                       -344.9126926290712163
  Basis Set: 6-31G*
  Basis Set:
  Charge       = 0
  Multiplicity = 1
  Basis Set: 6-31G*
  Basis Set:

    Orbital Energies (a.u.)
    -----------------------

    Doubly Occupied:

       1A    -20.596756     2A    -20.543963     3A    -11.374745
       4A    -11.290531     5A    -11.232414     6A    -11.219503
       7A    -11.219007     8A     -1.464020     9A     -1.361771
      10A     -1.078284    11A     -1.005692    12A     -0.949838
      13A     -0.848300    14A     -0.763566    15A     -0.692714
      16A     -0.667750    17A     -0.661442    18A     -0.616610
      19A     -0.586156    20A     -0.578602    21A     -0.561877
      22A     -0.551271    23A     -0.534291    24A     -0.523778
      25A     -0.503449    26A     -0.482910    27A     -0.447512
      28A     -0.434532

  @DF-RHF Final Energy:  -344.91269335917144

   => Energetics <=

    Nuclear Repulsion Energy =            323.2224248194597180
    One-Electron Energy =               -1110.6876644225703785
    Two-Electron Energy =                 442.5525462439393891
    DFT Exchange-Correlation Energy =       0.0000000000000000
    Empirical Dispersion Energy =           0.0000000000000000
    PCM Polarization Energy =               0.0000000000000000
    EFP Energy =                            0.0000000000000000
    Total Energy =                       -344.9126933591712145
    Molecular point group: c1
  Basis Set: 6-31G*
  Basis Set:

  -Total Gradient:
     Atom            X                  Y                   Z
    ------   -----------------  -----------------  -----------------
       1       -0.000529083406    -0.002902941303    -0.005043418795
       2        0.000567883377     0.004881947931     0.009869008132
       3        0.000011691435     0.000033545715     0.000071942935
       4        0.000356125447    -0.002969123405    -0.009286015425
       5       -0.000003003152     0.000003833766    -0.000036739371
       6        0.000003962345    -0.000007041743    -0.000011343842
       7        0.000001766762    -0.000027207771    -0.000008675817
       8       -0.000408127668     0.000970559980     0.004466512068
       9       -0.000002699805     0.000004936316    -0.000000408678
      10       -0.000030802901     0.000019456668    -0.000021904996
      11        0.000010350770     0.000004028736     0.000001612408
      12       -0.000001351134     0.000001735961     0.000000556925
      13        0.000002288226     0.000001208755    -0.000000122826
      14       -0.000000450405    -0.000001102780     0.000000534231
      15        0.000004231592    -0.000003199398     0.000000572411
      16        0.000013220416    -0.000007765132    -0.000002002785
      17        0.000003998101    -0.000002872296    -0.000000106571

  **** Optimization is complete! (in 7 steps) ****
    Final optimized geometry and variables:
    Molecular point group: c1

    Geometry (in Angstrom), charge = 0, multiplicity = 1:

    O           -1.259695409918     1.072663773059    -0.839319035606
    C           -1.179600577008     0.039059674432    -0.258226692935
    C           -2.356181536279    -0.754531931097     0.242406102146
    O           -0.035753171103    -0.593231823409    -0.022318456081
    H           -2.324216259500    -1.756514074602    -0.169146163254
    H           -3.274777285035    -0.263706543890    -0.042690515330
    H           -2.302416747013    -0.842083938965     1.321846432082
    C            1.191786704518     0.145334501970    -0.081776937740
    C            2.292055433208    -0.887154066010    -0.250138474734
    C            1.347598943389     0.980419442649     1.179936536470
    H            1.152182931072     0.790725642490    -0.946837248330
    H            2.132215865771    -1.470794150231    -1.149346755424
    H            3.257156275444    -0.397202740263    -0.325863386713
    H            2.315681626337    -1.563995810700     0.597264995873
    H            2.286750230644     1.523476990586     1.153798243066
    H            0.546111280758     1.704369438165     1.267270414583
    H            1.343831783769     0.344829940769     2.059647072081

  Mulliken Charges: (a.u.)
   Center  Symbol    Alpha    Beta     Spin     Total
       1     O     4.28259  4.28259  0.00000 -0.56518
       2     C     2.61621  2.61621  0.00000  0.76759
       3     C     3.28246  3.28246  0.00000 -0.56493
       4     O     4.31593  4.31593  0.00000 -0.63186
       5     H     0.39964  0.39964  0.00000  0.20071
       6     H     0.39753  0.39753  0.00000  0.20493
       7     H     0.40228  0.40228  0.00000  0.19544
       8     C     2.92739  2.92739  0.00000  0.14522
       9     C     3.24252  3.24252  0.00000 -0.48504
      10     C     3.25294  3.25294  0.00000 -0.50589
      11     H     0.39973  0.39973  0.00000  0.20054
      12     H     0.41045  0.41045  0.00000  0.17910
      13     H     0.41773  0.41773  0.00000  0.16455
      14     H     0.41447  0.41447  0.00000  0.17105
      15     H     0.41637  0.41637  0.00000  0.16726
      16     H     0.40560  0.40560  0.00000  0.18881
      17     H     0.41615  0.41615  0.00000  0.16770

   Total alpha = 28.00000, Total beta = 28.00000, Total charge = -0.00000
