  ==> Input File <==

--------------------------------------------------------------------------
set {
	reference rhf
	basis 6-31G*
}

set_num_threads( 1 )
memory 2 gb

molecule MOL {
0 1

H	 -1.836216	 1.387520	 -0.000064
C	 -1.301823	 0.443321	 -0.000031
O	 -0.003969	 0.658512	 0.000451
O	 -1.829879	 -0.616434	 -0.000857
C	 0.448232	 1.940662	 0.434953
C	 1.959059	 1.942954	 0.347103
H	 0.104311	 2.107178	 1.446540
H	 0.007611	 2.698983	 -0.197580
H	 2.382560	 1.172077	 0.980687
H	 2.345036	 2.904030	 0.670504
H	 2.285558	 1.766753	 -0.671347

	symmetry c1
}
set optking {
	frozen_dihedral = ("
		7 5 3 2
	")
}

ee = energy('scf')
oeprop('DIPOLE', 'QUADRUPOLE', 'MULLIKEN_CHARGES')
f=open( 'psi4out.xyz', 'w' )
f.write( "11  " )
f.write( str(ee) + "\n" )
f.write( MOL.save_string_xyz() )
f.close()
--------------------------------------------------------------------------

    Molecular point group: c1

    Geometry (in Angstrom), charge = 0, multiplicity = 1:

       Center              X                  Y                   Z               Mass
    ------------   -----------------  -----------------  -----------------  -----------------
           H         -1.691201849350     0.513265260212    -0.157066858794     1.007825032070
           C         -1.156808849350    -0.430933739788    -0.157033858794    12.000000000000
           O          0.141045150650    -0.215742739788    -0.156551858794    15.994914619560
           O         -1.684864849350    -1.490688739788    -0.157859858794    15.994914619560
           C          0.593246150650     1.066407260212     0.277950141206    12.000000000000
           C          2.104073150650     1.068699260212     0.190100141206    12.000000000000
           H          0.249325150650     1.232923260212     1.289537141206     1.007825032070
           H          0.152625150650     1.824728260212    -0.354582858794     1.007825032070
           H          2.527574150650     0.297822260212     0.823684141206     1.007825032070
           H          2.490050150650     2.029775260212     0.513501141206     1.007825032070
           H          2.430572150650     0.892498260212    -0.828349858794     1.007825032070

  Charge       = 0
  Multiplicity = 1
  Basis Set: 6-31G*
  Basis Set:

    Orbital Energies (a.u.)
    -----------------------

    Doubly Occupied:

       1A    -20.611526     2A    -20.556916     3A    -11.379502
       4A    -11.309202     5A    -11.235901     6A     -1.472767
       7A     -1.378851     8A     -1.058001     9A     -0.890718
      10A     -0.850606    11A     -0.736395    12A     -0.696677
      13A     -0.667069    14A     -0.603716    15A     -0.572996
      16A     -0.564219    17A     -0.533157    18A     -0.523498
      19A     -0.457978    20A     -0.449372

  @DF-RHF Final Energy:  -266.81730456948162

   => Energetics <=

    Nuclear Repulsion Energy =            176.1771603609704755
    One-Electron Energy =                -712.8908066490492956
    Two-Electron Energy =                 269.8963417185970570
    DFT Exchange-Correlation Energy =       0.0000000000000000
    Empirical Dispersion Energy =           0.0000000000000000
    PCM Polarization Energy =               0.0000000000000000
    EFP Energy =                            0.0000000000000000
    Total Energy =                       -266.8173045694817915

  Mulliken Charges: (a.u.)
   Center  Symbol    Alpha    Beta     Spin     Total
       1     H     0.43708  0.43708  0.00000  0.12585
       2     C     2.71380  2.71380  0.00000  0.57240
       3     O     4.28538  4.28538  0.00000 -0.57076
       4     O     4.25208  4.25208  0.00000 -0.50417
       5     C     3.01186  3.01186  0.00000 -0.02372
       6     C     3.24744  3.24744  0.00000 -0.49488
       7     H     0.41208  0.41208  0.00000  0.17585
       8     H     0.41488  0.41488  0.00000  0.17025
       9     H     0.40433  0.40433  0.00000  0.19135
      10     H     0.41514  0.41514  0.00000  0.16972
      11     H     0.40595  0.40595  0.00000  0.18811

   Total alpha = 20.00000, Total beta = 20.00000, Total charge = -0.00000
