  ==> Input File <==

--------------------------------------------------------------------------
set {
	reference rhf
	basis 6-31G*
}

set_num_threads( 4 )
memory 2 gb

molecule MOL {
0 1

H	 2.803428	 0.819406	 1.101388
O	 3.517057	 0.607535	 0.517508
C	 3.528310	 -0.774642	 0.265487
C	 2.396637	 -1.227938	 -0.650245
H	 4.482210	 -0.980652	 -0.202818
H	 3.500229	 -1.332737	 1.200645
C	 0.999068	 -1.024226	 -0.060186
H	 2.477635	 -0.689591	 -1.590984
H	 2.544137	 -2.283023	 -0.874757
C	 -0.111885	 -1.538514	 -0.980029
H	 0.845735	 0.032940	 0.137939
H	 0.933290	 -1.536125	 0.900009
C	 -1.527195	 -1.436481	 -0.399662
H	 -0.071139	 -1.001022	 -1.925698
H	 0.089111	 -2.581452	 -1.215786
C	 -2.037799	 -0.007733	 -0.193645
H	 -2.209549	 -1.955177	 -1.069858
H	 -1.567198	 -1.973840	 0.546637
C	 -3.489788	 0.042957	 0.286558
H	 -1.950391	 0.543125	 -1.129073
H	 -1.411525	 0.513360	 0.526456
C	 -4.216917	 1.317354	 -0.141063
H	 -4.025645	 -0.823308	 -0.095450
H	 -3.513059	 -0.038752	 1.371301
H	 -4.239342	 1.411634	 -1.223113
H	 -5.243387	 1.322503	 0.212445
H	 -3.726170	 2.201406	 0.256408

	symmetry c1
}
set optking {
	frozen_dihedral = ("
		20 16 19 22
	")
}

ee = optimize('scf')
oeprop('DIPOLE', 'QUADRUPOLE', 'MULLIKEN_CHARGES')
f=open( 'psi4out.xyz', 'w' )
f.write( "27  " )
f.write( str(ee) + "\n" )
f.write( MOL.save_string_xyz() )
f.close()
--------------------------------------------------------------------------

    Molecular point group: c1
  Charge       = 0
  Multiplicity = 1
  Basis Set: 6-31G*
  Basis Set:
  @DF-RHF Final Energy:  -388.27905873931888
    Total Energy =                       -388.2790587393186570
    Molecular point group: c1
  Basis Set: 6-31G*
  Basis Set:
  Basis Set: 6-31G*
  Basis Set:
  @DF-RHF Final Energy:  -388.27925589164312
    Total Energy =                       -388.2792558916437429
  Basis Set: 6-31G*
  Basis Set:
  Basis Set: 6-31G*
  Basis Set:
  @DF-RHF Final Energy:  -388.27924419376922
    Total Energy =                       -388.2792441937697276
  Basis Set: 6-31G*
  Basis Set:
  Basis Set: 6-31G*
  Basis Set:
  @DF-RHF Final Energy:  -388.27934625484392
    Total Energy =                       -388.2793462548434036
  Basis Set: 6-31G*
  Basis Set:
  Basis Set: 6-31G*
  Basis Set:
  @DF-RHF Final Energy:  -388.27934013390842
    Total Energy =                       -388.2793401339094999
  Basis Set: 6-31G*
  Basis Set:
  Basis Set: 6-31G*
  Basis Set:
  @DF-RHF Final Energy:  -388.27934991123919
    Total Energy =                       -388.2793499112390236
  Basis Set: 6-31G*
  Basis Set:
  Charge       = 0
  Multiplicity = 1
  Basis Set: 6-31G*
  Basis Set:

    Orbital Energies (a.u.)
    -----------------------

    Doubly Occupied:

       1A    -20.552355     2A    -11.267099     3A    -11.219857
       4A    -11.217375     5A    -11.216124     6A    -11.215957
       7A    -11.215257     8A    -11.214083     9A    -11.209478
      10A     -1.359105    11A     -1.094802    12A     -1.060865
      13A     -1.011525    14A     -0.948473    15A     -0.888094
      16A     -0.820587    17A     -0.801282    18A     -0.779030
      19A     -0.693828    20A     -0.649208    21A     -0.639029
      22A     -0.614518    23A     -0.597530    24A     -0.584616
      25A     -0.581332    26A     -0.553699    27A     -0.541842
      28A     -0.528907    29A     -0.508554    30A     -0.491689
      31A     -0.483584    32A     -0.477425    33A     -0.467542
      34A     -0.460503    35A     -0.451044    36A     -0.441649
      37A     -0.422848

  @DF-RHF Final Energy:  -388.27934972446826

   => Energetics <=

    Nuclear Repulsion Energy =            459.1341061080557893
    One-Electron Energy =               -1436.2655208500154913
    Two-Electron Energy =                 588.8520650174912134
    DFT Exchange-Correlation Energy =       0.0000000000000000
    Empirical Dispersion Energy =           0.0000000000000000
    PCM Polarization Energy =               0.0000000000000000
    EFP Energy =                            0.0000000000000000
    Total Energy =                       -388.2793497244684886
    Molecular point group: c1
  Basis Set: 6-31G*
  Basis Set:

  -Total Gradient:
     Atom            X                  Y                   Z
    ------   -----------------  -----------------  -----------------
       1        0.000025040489    -0.000006247326    -0.000001580810
       2        0.000030096843     0.000004621728    -0.000014187668
       3       -0.000029584427    -0.000014749468     0.000060167258
       4       -0.000008437468     0.000015100157    -0.000029393389
       5       -0.000004108305     0.000006424683     0.000004875764
       6        0.000008251225     0.000000468676     0.000008692910
       7        0.000003359390    -0.000008751731     0.000013241663
       8       -0.000010097261     0.000013769811    -0.000000584212
       9       -0.000010797526     0.000007042232    -0.000016517486
      10       -0.000007918092    -0.000022500165    -0.000001153970
      11       -0.000021251510    -0.000017487938    -0.000034195204
      12        0.000011310508     0.000015689637     0.000006718933
      13        0.000038038544     0.000031917436     0.000026973235
      14       -0.000012122891    -0.000002162693     0.000009433924
      15        0.000009114526    -0.000007489216    -0.000002857426
      16       -0.001606413634    -0.005019797513    -0.003577162939
      17        0.000008484859     0.000018618214    -0.000006060084
      18        0.000002265010    -0.000017216902    -0.000001071787
      19        0.001705006910     0.002879120884     0.004017445984
      20        0.000980345127     0.003591839713     0.002026389818
      21        0.000002839920    -0.000021621719     0.000002392557
      22       -0.001076381323    -0.001460582444    -0.002505900053
      23       -0.000009428756     0.000020586935     0.000003590912
      24       -0.000026377154     0.000004245857     0.000011138911
      25        0.000003513547    -0.000006746089    -0.000001547462
      26       -0.000006873673     0.000012126162    -0.000000655226
      27        0.000002125125    -0.000016218922     0.000001805845

  **** Optimization is complete! (in 7 steps) ****
    Final optimized geometry and variables:
    Molecular point group: c1

    Geometry (in Angstrom), charge = 0, multiplicity = 1:

    H            2.855243691476     1.229083830597     1.260352006706
    O            3.573015088518     1.020206778861     0.680488711366
    C            3.585043373963    -0.360463729238     0.420489091153
    C            2.461444774242    -0.807105805209    -0.508407185439
    H            4.542972101080    -0.564473009214    -0.040360687689
    H            3.548037600325    -0.924126885925     1.351987814256
    C            1.058735586203    -0.606565942640     0.070418241265
    H            2.551079309962    -0.262781571754    -1.444905623853
    H            2.610499617354    -1.860785295719    -0.738384618340
    C           -0.043569036698    -1.120981283480    -0.859871383913
    H            0.902812882608     0.449863441700     0.269877506485
    H            0.985642984809    -1.120907205586     1.028746384224
    C           -1.465064338023    -1.017882412000    -0.295151252108
    H            0.007025437001    -0.585548622202    -1.806281385783
    H            0.159532725078    -2.164448812097    -1.091401475188
    C           -1.991136364203     0.408879856679    -0.128665623867
    H           -2.137505454624    -1.557497514415    -0.958473760330
    H           -1.510193744073    -1.532942355311     0.663548260609
    C           -3.420472558193     0.472233923469     0.431713961649
    H           -1.945661600327     0.939402760451    -1.078291589339
    H           -1.337295092452     0.969408546324     0.535484874067
    C           -4.171677865101     1.738811942099     0.022130238789
    H           -3.984650854895    -0.388323672801     0.077801305298
    H           -3.393460241785     0.388202271651     1.515064603560
    H           -4.280611317284     1.790421487087    -1.057114373666
    H           -5.165457946363     1.766504994445     0.458468376300
    H           -3.645441045996     2.633929734819     0.343211516771

  Mulliken Charges: (a.u.)
   Center  Symbol    Alpha    Beta     Spin     Total
       1     H     0.27992  0.27992  0.00000  0.44015
       2     O     4.37092  4.37092  0.00000 -0.74184
       3     C     2.99741  2.99741  0.00000  0.00517
       4     C     3.16091  3.16091  0.00000 -0.32182
       5     H     0.41444  0.41444  0.00000  0.17113
       6     H     0.43203  0.43203  0.00000  0.13595
       7     C     3.16318  3.16318  0.00000 -0.32635
       8     H     0.41492  0.41492  0.00000  0.17016
       9     H     0.42434  0.42434  0.00000  0.15132
      10     C     3.15256  3.15256  0.00000 -0.30512
      11     H     0.42295  0.42295  0.00000  0.15410
      12     H     0.42542  0.42542  0.00000  0.14915
      13     C     3.15408  3.15408  0.00000 -0.30816
      14     H     0.42147  0.42147  0.00000  0.15705
      15     H     0.42140  0.42140  0.00000  0.15720
      16     C     3.15456  3.15456  0.00000 -0.30911
      17     H     0.42085  0.42085  0.00000  0.15831
      18     H     0.42406  0.42406  0.00000  0.15187
      19     C     3.15209  3.15209  0.00000 -0.30419
      20     H     0.42245  0.42245  0.00000  0.15510
      21     H     0.42288  0.42288  0.00000  0.15423
      22     C     3.23967  3.23967  0.00000 -0.47935
      23     H     0.42286  0.42286  0.00000  0.15428
      24     H     0.42163  0.42163  0.00000  0.15674
      25     H     0.42114  0.42114  0.00000  0.15772
      26     H     0.41978  0.41978  0.00000  0.16045
      27     H     0.42208  0.42208  0.00000  0.15584

   Total alpha = 37.00000, Total beta = 37.00000, Total charge = -0.00000
