  ==> Input File <==

--------------------------------------------------------------------------
set {
	reference rhf
	basis 6-31G*
}

set_num_threads( 4 )
memory 2 gb

molecule MOL {
0 1

H	 -2.435671	 -2.106314	 -2.573427
O	 -2.439892	 -1.607273	 -1.769160
C	 -1.133130	 -1.193145	 -1.463443
C	 -1.177863	 -0.397191	 -0.171080
H	 -0.475464	 -2.053752	 -1.348816
H	 -0.728429	 -0.578187	 -2.266178
C	 0.198102	 0.111031	 0.262842
H	 -1.605771	 -1.027323	 0.603876
H	 -1.860248	 0.437294	 -0.306954
C	 1.331804	 -0.827780	 -0.158768
H	 0.361943	 1.100838	 -0.156218
H	 0.217265	 0.229072	 1.345532
C	 2.723619	 -0.410569	 0.329459
H	 1.342964	 -0.912588	 -1.244120
H	 1.116806	 -1.824343	 0.220779
C	 3.243875	 0.895854	 -0.272975
H	 3.424222	 -1.207124	 0.091250
H	 2.714788	 -0.329854	 1.414619
H	 3.251977	 0.848779	 -1.358681
H	 2.637085	 1.747371	 0.016682
H	 4.259473	 1.094070	 0.055697

	symmetry c1
}
set optking {
	frozen_dihedral = ("
		8 4 7 10
	")
}

ee = optimize('scf')
oeprop('DIPOLE', 'QUADRUPOLE', 'MULLIKEN_CHARGES')
f=open( 'psi4out.xyz', 'w' )
f.write( "21  " )
f.write( str(ee) + "\n" )
f.write( MOL.save_string_xyz() )
f.close()
--------------------------------------------------------------------------

    Molecular point group: c1
  Charge       = 0
  Multiplicity = 1
  Basis Set: 6-31G*
  Basis Set:
  @DF-RHF Final Energy:  -310.20455796306652
    Total Energy =                       -310.2045579630667476
    Molecular point group: c1
  Basis Set: 6-31G*
  Basis Set:
  Basis Set: 6-31G*
  Basis Set:
  @DF-RHF Final Energy:  -310.20553182849028
    Total Energy =                       -310.2055318284903933
  Basis Set: 6-31G*
  Basis Set:
  Basis Set: 6-31G*
  Basis Set:
  @DF-RHF Final Energy:  -310.20727507196762
    Total Energy =                       -310.2072750719678993
  Basis Set: 6-31G*
  Basis Set:
  Basis Set: 6-31G*
  Basis Set:
  @DF-RHF Final Energy:  -310.20745219067078
    Total Energy =                       -310.2074521906708355
  Basis Set: 6-31G*
  Basis Set:
  @DF-RHF Final Energy:  -310.20746636491845
    Total Energy =                       -310.2074663649185027
  @DF-RHF Final Energy:  -310.20747789938343
    Total Energy =                       -310.2074778993834343
  Basis Set: 6-31G*
  Basis Set:
  @DF-RHF Final Energy:  -310.20747656787989
    Total Energy =                       -310.2074765678799508
  Basis Set: 6-31G*
  Basis Set:
  Basis Set: 6-31G*
  Basis Set:
  @DF-RHF Final Energy:  -310.20747835035081
    Total Energy =                       -310.2074783503509252
  Basis Set: 6-31G*
  Basis Set:
  Basis Set: 6-31G*
  Basis Set:
  @DF-RHF Final Energy:  -310.20747963064042
    Total Energy =                       -310.2074796306401367
  Basis Set: 6-31G*
  Basis Set:
  Charge       = 0
  Multiplicity = 1
  Basis Set: 6-31G*
  Basis Set:

    Orbital Energies (a.u.)
    -----------------------

    Doubly Occupied:

       1A    -20.551586     2A    -11.266950     3A    -11.216761
       4A    -11.216106     5A    -11.215534     6A    -11.210527
       7A    -11.209177     8A     -1.358427     9A     -1.085900
      10A     -1.030871    11A     -0.951016    12A     -0.886233
      13A     -0.815678    14A     -0.764605    15A     -0.695342
      16A     -0.657621    17A     -0.620428    18A     -0.607698
      19A     -0.593047    20A     -0.560898    21A     -0.545430
      22A     -0.517933    23A     -0.515450    24A     -0.493239
      25A     -0.479344    26A     -0.457455    27A     -0.451348
      28A     -0.445240    29A     -0.429872

  @DF-RHF Final Energy:  -310.20747965330798

   => Energetics <=

    Nuclear Repulsion Energy =            317.0615562762489503
    One-Electron Energy =               -1048.8386416160501540
    Two-Electron Energy =                 421.5696056864932757
    DFT Exchange-Correlation Energy =       0.0000000000000000
    Empirical Dispersion Energy =           0.0000000000000000
    PCM Polarization Energy =               0.0000000000000000
    EFP Energy =                            0.0000000000000000
    Total Energy =                       -310.2074796533079848
    Molecular point group: c1
  Basis Set: 6-31G*
  Basis Set:

  -Total Gradient:
     Atom            X                  Y                   Z
    ------   -----------------  -----------------  -----------------
       1        0.000004497334     0.000001562813     0.000001359486
       2       -0.000001929178     0.000005053226     0.000004955754
       3        0.000000946396    -0.000009201866    -0.000002579235
       4        0.003307741073    -0.005382259452    -0.004627724675
       5        0.000001634772    -0.000000572971    -0.000000249046
       6       -0.000001305156     0.000002236703     0.000001939234
       7       -0.001146105785    -0.001655000862     0.006262230603
       8       -0.002525454112     0.005013735139     0.002318713593
       9       -0.000003063871    -0.000000214329     0.000010862382
      10        0.000362224890     0.002021837278    -0.003963239783
      11        0.000002781061     0.000000551123    -0.000002916790
      12        0.000000108136     0.000000970333    -0.000000960431
      13        0.000001068156    -0.000001012290    -0.000005260929
      14       -0.000001533688     0.000001516442     0.000002573925
      15        0.000001001277    -0.000001228258     0.000001454409
      16        0.000000923071     0.000003985788     0.000001877025
      17       -0.000004459227    -0.000003852158    -0.000001248688
      18        0.000000929180    -0.000000025341     0.000000179131
      19        0.000003335798     0.000000401384    -0.000000808359
      20       -0.000001799589    -0.000000001837    -0.000002673365
      21       -0.000001540539     0.000001519137     0.000001515761

  **** Optimization is complete! (in 10 steps) ****
    Final optimized geometry and variables:
    Molecular point group: c1

    Geometry (in Angstrom), charge = 0, multiplicity = 1:

    H           -3.016684919010    -1.503666051717    -2.036023483221
    O           -2.931942109541    -0.995655388061    -1.241888920129
    C           -1.574091712017    -0.731201605641    -0.994803066548
    C           -1.492476450198     0.047638952083     0.306531092065
    H           -1.014227401805    -1.660496186307    -0.928912498220
    H           -1.145294167832    -0.146573282408    -1.808028703560
    C           -0.095958912584     0.567542089969     0.699176020419
    H           -1.921222179494    -0.541250778712     1.112440698178
    H           -2.159679038501     0.899279914441     0.205973196854
    C            1.081153063880    -0.348173348128     0.340500144266
    H            0.059180194533     1.528967779296     0.217041897413
    H           -0.087676814470     0.763176533054     1.768128817795
    C            2.433156734558     0.130912335646     0.883042663778
    H            1.153434732074    -0.451036783444    -0.739838930324
    H            0.892344123938    -1.346513969062     0.731091768641
    C            2.927295838875     1.451136745079     0.288429748196
    H            3.174774089813    -0.639096444458     0.684838448074
    H            2.373152095520     0.222305683053     1.965558585055
    H            2.980638822966     1.395434888282    -0.795716459503
    H            2.278774291388     2.281756603477     0.545696781301
    H            3.921108423022     1.689375641759     0.654797452031

  Mulliken Charges: (a.u.)
   Center  Symbol    Alpha    Beta     Spin     Total
       1     H     0.28128  0.28128  0.00000  0.43744
       2     O     4.37240  4.37240  0.00000 -0.74479
       3     C     2.99320  2.99320  0.00000  0.01360
       4     C     3.16180  3.16180  0.00000 -0.32360
       5     H     0.42982  0.42982  0.00000  0.14037
       6     H     0.43268  0.43268  0.00000  0.13464
       7     C     3.16059  3.16059  0.00000 -0.32119
       8     H     0.41472  0.41472  0.00000  0.17056
       9     H     0.41241  0.41241  0.00000  0.17518
      10     C     3.15873  3.15873  0.00000 -0.31745
      11     H     0.42012  0.42012  0.00000  0.15975
      12     H     0.41905  0.41905  0.00000  0.16189
      13     C     3.15180  3.15180  0.00000 -0.30359
      14     H     0.42399  0.42399  0.00000  0.15201
      15     H     0.42132  0.42132  0.00000  0.15737
      16     C     3.24161  3.24161  0.00000 -0.48322
      17     H     0.42099  0.42099  0.00000  0.15801
      18     H     0.42263  0.42263  0.00000  0.15474
      19     H     0.42281  0.42281  0.00000  0.15438
      20     H     0.41915  0.41915  0.00000  0.16171
      21     H     0.41891  0.41891  0.00000  0.16219

   Total alpha = 29.00000, Total beta = 29.00000, Total charge =  0.00000
