  ==> Input File <==

--------------------------------------------------------------------------
set {
	reference rhf
	basis 6-31G*
}

set_num_threads( 4 )
memory 2 gb

molecule MOL {
0 1

H	 3.741655	 -0.903794	 0.014297
O	 2.838830	 -1.133557	 0.211458
C	 2.077727	 -0.067559	 -0.035091
C	 0.624473	 -0.343591	 0.253101
O	 2.533056	 0.954986	 -0.432699
C	 -0.265902	 0.883932	 0.072916
H	 0.324016	 -1.163849	 -0.390541
H	 0.565024	 -0.726111	 1.268924
C	 -1.728698	 0.646073	 0.462102
H	 -0.209144	 1.219470	 -0.958188
H	 0.135059	 1.692851	 0.673903
C	 -2.482460	 -0.343073	 -0.431425
H	 -2.245265	 1.602650	 0.432430
H	 -1.779332	 0.308348	 1.496285
C	 -3.960546	 -0.461025	 -0.060175
H	 -2.395034	 -0.026811	 -1.468912
H	 -2.024850	 -1.327147	 -0.371646
H	 -4.472726	 -1.168004	 -0.705284
H	 -4.465146	 0.496508	 -0.151489
H	 -4.081218	 -0.800940	 0.964585

	symmetry c1
}
set optking {
	frozen_dihedral = ("
		5 3 4 7
	")
}

ee = optimize('scf')
oeprop('DIPOLE', 'QUADRUPOLE', 'MULLIKEN_CHARGES')
f=open( 'psi4out.xyz', 'w' )
f.write( "20  " )
f.write( str(ee) + "\n" )
f.write( MOL.save_string_xyz() )
f.close()
--------------------------------------------------------------------------

    Molecular point group: c1
  Charge       = 0
  Multiplicity = 1
  Basis Set: 6-31G*
  Basis Set:
  @DF-RHF Final Energy:  -383.94873900491706
    Total Energy =                       -383.9487390049171154
    Molecular point group: c1
  Basis Set: 6-31G*
  Basis Set:
  Basis Set: 6-31G*
  Basis Set:
  @DF-RHF Final Energy:  -383.94866335247661
    Total Energy =                       -383.9486633524765580
  Basis Set: 6-31G*
  Basis Set:
  Basis Set: 6-31G*
  Basis Set:
  @DF-RHF Final Energy:  -383.94874584805530
    Total Energy =                       -383.9487458480551823
  Basis Set: 6-31G*
  Basis Set:
  Basis Set: 6-31G*
  Basis Set:
  @DF-RHF Final Energy:  -383.94874765026140
    Total Energy =                       -383.9487476502615664
  Basis Set: 6-31G*
  Basis Set:
  Charge       = 0
  Multiplicity = 1
  Basis Set: 6-31G*
  Basis Set:

    Orbital Energies (a.u.)
    -----------------------

    Doubly Occupied:

       1A    -20.612527     2A    -20.551574     3A    -11.381161
       4A    -11.240215     5A    -11.222981     6A    -11.220711
       7A    -11.220122     8A    -11.212414     9A     -1.474577
      10A     -1.365621    11A     -1.096239    12A     -1.040950
      13A     -0.961255    14A     -0.868845    15A     -0.816362
      16A     -0.776728    17A     -0.699503    18A     -0.690030
      19A     -0.664257    20A     -0.635591    21A     -0.602896
      22A     -0.593936    23A     -0.575486    24A     -0.555899
      25A     -0.539899    26A     -0.513182    27A     -0.495593
      28A     -0.479409    29A     -0.470415    30A     -0.467406
      31A     -0.457485    32A     -0.443562

  @DF-RHF Final Energy:  -383.94874723306026

   => Energetics <=

    Nuclear Repulsion Energy =            375.9546010566652399
    One-Electron Energy =               -1267.9130335035463304
    Two-Electron Energy =                 508.0096852138208305
    DFT Exchange-Correlation Energy =       0.0000000000000000
    Empirical Dispersion Energy =           0.0000000000000000
    PCM Polarization Energy =               0.0000000000000000
    EFP Energy =                            0.0000000000000000
    Total Energy =                       -383.9487472330602031
    Molecular point group: c1
  Basis Set: 6-31G*
  Basis Set:

  -Total Gradient:
     Atom            X                  Y                   Z
    ------   -----------------  -----------------  -----------------
       1        0.000000643553     0.000004693097     0.000011003628
       2       -0.000004031886    -0.000005965844    -0.000010704808
       3        0.000042747893     0.000120795041     0.000271880629
       4        0.000023238854    -0.000188690616     0.000006639651
       5       -0.000029950382    -0.000067061725    -0.000196812885
       6        0.000014935685     0.000024575056     0.000073675084
       7       -0.000080211434     0.000085762455    -0.000125096801
       8        0.000013509073     0.000017261587    -0.000013017745
       9       -0.000014094123     0.000026441820    -0.000025923063
      10        0.000000048835     0.000011908325     0.000003002540
      11        0.000006967421    -0.000012489962     0.000001478224
      12        0.000013812999    -0.000013431747     0.000007412213
      13       -0.000011354823    -0.000005131519    -0.000012945874
      14       -0.000003573031     0.000017864939     0.000000343998
      15       -0.000000901184    -0.000005602249     0.000003347539
      16       -0.000001698399     0.000003044550     0.000012150478
      17        0.000032106608    -0.000014142243    -0.000007306962
      18       -0.000000622804     0.000000151355    -0.000000167688
      19        0.000000544134     0.000001237128     0.000000718386
      20       -0.000002117000    -0.000001219449     0.000000323456

  **** Optimization is complete! (in 5 steps) ****
    Final optimized geometry and variables:
    Molecular point group: c1

    Geometry (in Angstrom), charge = 0, multiplicity = 1:

    H            3.736585795198    -0.912563275337    -0.011338264765
    O            2.835234817299    -1.138876239995     0.196277822934
    C            2.076154402093    -0.068392080955    -0.036557421610
    C            0.623592263439    -0.342117225296     0.256992265306
    O            2.531558726880     0.954299340916    -0.433742683380
    C           -0.265936464674     0.885809492363     0.074299645674
    H            0.322265003163    -1.160773431401    -0.388982150108
    H            0.562974915727    -0.725619768793     1.271875214735
    C           -1.729938342759     0.648060065675     0.459027493107
    H           -0.205405882652     1.221615474152    -0.956261636490
    H            0.132859954071     1.694755338382     0.677090453311
    C           -2.479096796705    -0.345675729243    -0.433285743947
    H           -2.247432843487     1.603925103521     0.423293290364
    H           -1.784285310467     0.314596985375     1.494392844565
    C           -3.958460800978    -0.463829890922    -0.067227880154
    H           -2.388014354927    -0.033601949274    -1.471712524264
    H           -2.020609026199    -1.328983811919    -0.367639640058
    H           -4.467331955092    -1.174063368306    -0.711373020267
    H           -4.463818958607     0.492727329636    -0.164444386915
    H           -4.082681641588    -0.799658623812     0.958454661559

  Mulliken Charges: (a.u.)
   Center  Symbol    Alpha    Beta     Spin     Total
       1     H     0.26786  0.26786  0.00000  0.46427
       2     O     4.35158  4.35158  0.00000 -0.70316
       3     C     2.62225  2.62225  0.00000  0.75551
       4     C     3.21277  3.21277  0.00000 -0.42554
       5     O     4.27929  4.27929  0.00000 -0.55857
       6     C     3.15437  3.15437  0.00000 -0.30874
       7     H     0.39669  0.39669  0.00000  0.20662
       8     H     0.39922  0.39922  0.00000  0.20156
       9     C     3.15545  3.15545  0.00000 -0.31091
      10     H     0.41136  0.41136  0.00000  0.17727
      11     H     0.40898  0.40898  0.00000  0.18203
      12     C     3.15495  3.15495  0.00000 -0.30989
      13     H     0.41788  0.41788  0.00000  0.16425
      14     H     0.42368  0.42368  0.00000  0.15264
      15     C     3.23921  3.23921  0.00000 -0.47843
      16     H     0.42138  0.42138  0.00000  0.15724
      17     H     0.42280  0.42280  0.00000  0.15440
      18     H     0.41833  0.41833  0.00000  0.16334
      19     H     0.42063  0.42063  0.00000  0.15873
      20     H     0.42131  0.42131  0.00000  0.15738

   Total alpha = 32.00000, Total beta = 32.00000, Total charge = -0.00000
