                              Psi4 1.0.54 Driver

  ==> Input File <==

--------------------------------------------------------------------------
set {
	reference rhf
	basis cc-pvtz
}

set_num_threads( 4 )
memory 2 gb

molecule MOL {
0 1

H	 1.646927	 -1.679580	 0.307060
O	 2.012307	 -0.863440	 0.000222
C	 1.050374	 0.054877	 0.000135
C	 -0.318151	 -0.570512	 0.000144
O	 1.286319	 1.213453	 -0.000040
C	 -1.454884	 0.441630	 -0.000560
H	 -0.371613	 -1.223646	 -0.864985
H	 -0.371920	 -1.222758	 0.865929
C	 -2.822577	 -0.232186	 0.000063
H	 -1.359760	 1.084704	 -0.867077
H	 -1.359641	 1.085996	 0.864983
H	 -2.954352	 -0.858985	 -0.875745
H	 -3.615886	 0.505352	 0.000019
H	 -2.953878	 -0.858359	 0.876394

	symmetry c1
}
set optking {
	frozen_dihedral = ("
		1 2 3 5
	")
}

ee,wfn = optimize('scf', return_wfn=True)
oeprop( wfn, 'DIPOLE', 'QUADRUPOLE', 'MULLIKEN_CHARGES')
f=open( 'psi4out.xyz', 'w' )
f.write( "14  " )
f.write( str(ee) + "\n" )
f.write( MOL.save_string_xyz() )
f.close()
--------------------------------------------------------------------------

    Molecular point group: c1
  Charge       = 0
  Multiplicity = 1
  Basis Set: CC-PVTZ
  Basis Set:
  @DF-RHF Final Energy:  -305.98898290215135
    Total Energy =                       -305.9889829021514629
    Molecular point group: c1
  Basis Set: CC-PVTZ
  Basis Set:
  Basis Set: CC-PVTZ
  Basis Set:
  @DF-RHF Final Energy:  -305.99013685223190
    Total Energy =                       -305.9901368522316716
  Basis Set: CC-PVTZ
  Basis Set:
  Basis Set: CC-PVTZ
  Basis Set:
  @DF-RHF Final Energy:  -305.99030422627288
    Total Energy =                       -305.9903042262732242
  Basis Set: CC-PVTZ
  Basis Set:
  Basis Set: CC-PVTZ
  Basis Set:
  @DF-RHF Final Energy:  -305.99024363789897
    Total Energy =                       -305.9902436378991410
  Basis Set: CC-PVTZ
  Basis Set:
  Basis Set: CC-PVTZ
  Basis Set:
  @DF-RHF Final Energy:  -305.99040821347864
    Total Energy =                       -305.9904082134785313
  Basis Set: CC-PVTZ
  Basis Set:
  Charge       = 0
  Multiplicity = 1
  Basis Set: CC-PVTZ
  Basis Set:

    Orbital Energies (a.u.)
    -----------------------

    Doubly Occupied:

       1A    -20.602913     2A    -20.538124     3A    -11.373257
       4A    -11.250481     5A    -11.229279     6A    -11.220505
       7A     -1.470851     8A     -1.373782     9A     -1.088864
      10A     -0.979246    11A     -0.854544    12A     -0.819552
      13A     -0.721819    14A     -0.674738    15A     -0.663030
      16A     -0.623678    17A     -0.591191    18A     -0.583300
      19A     -0.553122    20A     -0.510799    21A     -0.496675
      22A     -0.489325    23A     -0.482006    24A     -0.444260

  @DF-RHF Final Energy:  -305.99040857625891

   => Energetics <=

    Nuclear Repulsion Energy =            240.3549441074951289
    One-Electron Energy =                -893.4200226871357700
    Two-Electron Energy =                 347.0746700033815273
    DFT Exchange-Correlation Energy =       0.0000000000000000
    Empirical Dispersion Energy =           0.0000000000000000
    PCM Polarization Energy =               0.0000000000000000
    EFP Energy =                            0.0000000000000000
    Total Energy =                       -305.9904085762590853
    Molecular point group: c1
  Basis Set: CC-PVTZ
  Basis Set:

  -Total Gradient:
     Atom            X                  Y                   Z
    ------   -----------------  -----------------  -----------------
       1        0.001041832034     0.000981078037     0.004293343597
       2       -0.001284186747    -0.001294965598    -0.003710523683
       3        0.000170702037     0.000490659523    -0.004474830690
       4        0.000005134357    -0.000005960707    -0.000029094974
       5        0.000082484511    -0.000163124395     0.003899536315
       6       -0.000000348404     0.000002316423     0.000009251471
       7       -0.000008969092    -0.000007229358     0.000014604103
       8        0.000002250279     0.000002452448     0.000009080870
       9       -0.000005820658    -0.000000132293    -0.000001677873
      10       -0.000000042544     0.000001220299    -0.000003568121
      11        0.000001475011    -0.000003767900    -0.000005647397
      12       -0.000001791415    -0.000001429521    -0.000002849929
      13       -0.000002648368     0.000000921301    -0.000000074865
      14       -0.000000071001    -0.000002038257     0.000002451177

  **** Optimization is complete! (in 6 steps) ****
    Final optimized geometry and variables:
    Molecular point group: c1

    Geometry (in Angstrom), charge = 0, multiplicity = 1:

    H            1.813029039982    -1.673111440321     0.196126546840
    O            2.076078153284    -0.809069542854    -0.068702160690
    C            1.060880986769     0.060994274378    -0.018908158042
    C           -0.315395042337    -0.565327028649    -0.026689707599
    O            1.273397011089     1.216300734758     0.028203492519
    C           -1.450959675686     0.446055215967     0.042056634523
    H           -0.392011680694    -1.172539121557    -0.924434097045
    H           -0.371547033233    -1.256843792253     0.811661150708
    C           -2.820612500404    -0.223526413695     0.031272140822
    H           -1.364800683446     1.129800302865    -0.793032206042
    H           -1.337381639662     1.045981641744     0.936353711676
    H           -2.969137860159    -0.805945874784    -0.872112624482
    H           -3.610413050391     0.515926491878     0.079663458439
    H           -2.941833920953    -0.890931364636     0.878330121848

  Mulliken Charges: (a.u.)
   Center  Symbol    Alpha    Beta     Spin     Total
       1     H     0.38804  0.38804  0.00000  0.22393
       2     O     4.14781  4.14781  0.00000 -0.29562
       3     C     2.80416  2.80416  0.00000  0.39169
       4     C     3.12200  3.12200  0.00000 -0.24400
       5     O     4.17396  4.17396  0.00000 -0.34793
       6     C     3.08329  3.08329  0.00000 -0.16658
       7     H     0.43859  0.43859  0.00000  0.12281
       8     H     0.44973  0.44973  0.00000  0.10053
       9     C     3.15033  3.15033  0.00000 -0.30067
      10     H     0.44271  0.44271  0.00000  0.11459
      11     H     0.44383  0.44383  0.00000  0.11235
      12     H     0.45554  0.45554  0.00000  0.08891
      13     H     0.44380  0.44380  0.00000  0.11239
      14     H     0.45621  0.45621  0.00000  0.08759

   Total alpha = 24.00000, Total beta = 24.00000, Total charge =  0.00000

*** Psi4 exiting successfully. Buy a developer a beer!
