                              Psi4 1.0.54 Driver

  ==> Input File <==

--------------------------------------------------------------------------
set {
	reference rhf
	basis cc-pvtz
}

set_num_threads( 4 )
memory 2 gb

molecule MOL {
0 1

H	 -0.000105	 1.988529	 0.748933
O	 -0.000098	 1.879786	 -0.188206
C	 -0.000014	 0.545691	 -0.532416
C	 -1.285981	 -0.125181	 -0.046620
C	 1.286035	 -0.125021	 -0.046621
H	 -0.000010	 0.481103	 -1.610604
F	 -2.317768	 0.468461	 -0.594219
F	 -1.336434	 -1.393916	 -0.365175
F	 -1.414472	 -0.024985	 1.259070
F	 2.317749	 0.468734	 -0.594233
F	 1.336636	 -1.393755	 -0.365162
F	 1.414523	 -0.024795	 1.259067

	symmetry c1
}
set optking {
	frozen_dihedral = ("
		6 3 2 1
	")
}

ee,wfn = optimize('scf', return_wfn=True)
oeprop( wfn, 'DIPOLE', 'QUADRUPOLE', 'MULLIKEN_CHARGES')
f=open( 'psi4out.xyz', 'w' )
f.write( "12  " )
f.write( str(ee) + "\n" )
f.write( MOL.save_string_xyz() )
f.close()
--------------------------------------------------------------------------

    Molecular point group: c1
  Charge       = 0
  Multiplicity = 1
  Basis Set: CC-PVTZ
  Basis Set:

    Orbital Energies (a.u.)
    -----------------------

    Doubly Occupied:

       1A    -26.358448     2A    -26.358446     3A    -26.357258
       4A    -26.357255     5A    -26.353748     6A    -26.353748
       7A    -20.610000     8A    -11.519767     9A    -11.519758
      10A    -11.351634    11A     -1.771976    12A     -1.766484
      13A     -1.667730    14A     -1.663336    15A     -1.663042
      16A     -1.660973    17A     -1.439953    18A     -1.103127
      19A     -1.001909    20A     -0.945378    21A     -0.870841
      22A     -0.869071    23A     -0.859410    24A     -0.852223
      25A     -0.839896    26A     -0.822223    27A     -0.749701
      28A     -0.733966    29A     -0.731509    30A     -0.725480
      31A     -0.696272    32A     -0.691747    33A     -0.690246
      34A     -0.681641    35A     -0.677603    36A     -0.669301
      37A     -0.663404    38A     -0.657992    39A     -0.625465
      40A     -0.554079    41A     -0.510344

  @DF-RHF Final Energy:  -786.58951682743418

   => Energetics <=

    Nuclear Repulsion Energy =            670.8233770472679680
    One-Electron Energy =               -2428.8330247294961737
    Two-Electron Energy =                 971.4201308547944791
    DFT Exchange-Correlation Energy =       0.0000000000000000
    Empirical Dispersion Energy =           0.0000000000000000
    PCM Polarization Energy =               0.0000000000000000
    EFP Energy =                            0.0000000000000000
    Total Energy =                       -786.5895168274337266
    Molecular point group: c1
  Basis Set: CC-PVTZ
  Basis Set:

  -Total Gradient:
     Atom            X                  Y                   Z
    ------   -----------------  -----------------  -----------------
       1       -0.000000029064     0.000002514249    -0.000001056743
       2       -0.000000247289    -0.000083974541    -0.000020063096
       3        0.000000760414     0.000075120092     0.000027197434
       4        0.000008527777     0.000015897164     0.000036098303
       5       -0.000009155140     0.000017655708     0.000035713123
       6        0.000000056853    -0.000004026967     0.000013315097
       7       -0.000061685492     0.000030700334    -0.000041049329
       8       -0.000016134133     0.000000545039     0.000034459879
       9        0.000031588874    -0.000042083252    -0.000039026796
      10        0.000061328521     0.000029912911    -0.000040698689
      11        0.000016400393    -0.000000222068     0.000034085716
      12       -0.000031411706    -0.000042038659    -0.000038974897

  **** Optimization is complete! (in 1 steps) ****
    Final optimized geometry and variables:
    Molecular point group: c1

    Geometry (in Angstrom), charge = 0, multiplicity = 1:

    H           -0.000124298844     1.988528929728     0.748932890052
    O           -0.000117298844     1.879785929728    -0.188206109948
    C           -0.000033298844     0.545690929728    -0.532416109948
    C           -1.286000298844    -0.125181070272    -0.046620109948
    C            1.286015701156    -0.125021070272    -0.046621109948
    H           -0.000029298844     0.481102929728    -1.610604109948
    F           -2.317787298844     0.468460929728    -0.594219109948
    F           -1.336453298844    -1.393916070272    -0.365175109948
    F           -1.414491298844    -0.024985070272     1.259069890052
    F            2.317729701156     0.468733929728    -0.594233109948
    F            1.336616701156    -1.393755070272    -0.365162109948
    F            1.414503701156    -0.024795070272     1.259066890052

  Mulliken Charges: (a.u.)
   Center  Symbol    Alpha    Beta     Spin     Total
       1     H     0.38122  0.38122  0.00000  0.23756
       2     O     4.18994  4.18994  0.00000 -0.37989
       3     C     3.00495  3.00495  0.00000 -0.00990
       4     C     2.68545  2.68545  0.00000  0.62910
       5     C     2.68545  2.68545  0.00000  0.62910
       6     H     0.42416  0.42416  0.00000  0.15168
       7     F     4.60197  4.60197  0.00000 -0.20395
       8     F     4.60234  4.60234  0.00000 -0.20467
       9     F     4.61010  4.61010  0.00000 -0.22021
      10     F     4.60197  4.60197  0.00000 -0.20395
      11     F     4.60234  4.60234  0.00000 -0.20468
      12     F     4.61010  4.61010  0.00000 -0.22021

   Total alpha = 41.00000, Total beta = 41.00000, Total charge = -0.00000

*** Psi4 exiting successfully. Buy a developer a beer!
