                              Psi4 1.0.54 Driver

  ==> Input File <==

--------------------------------------------------------------------------
set {
	reference rhf
	basis cc-pvtz
}

set_num_threads( 4 )
memory 2 gb

molecule MOL {
0 1

H	 -2.556457	 -0.318348	 1.785036
C	 -2.493167	 -0.664262	 0.755851
O	 -1.202971	 -0.543661	 0.257461
H	 -2.763902	 -1.709501	 0.723224
H	 -3.207048	 -0.099603	 0.158844
C	 -0.718530	 0.758693	 0.228682
C	 0.718529	 0.758687	 -0.228709
H	 -1.307726	 1.365350	 -0.458911
H	 -0.779916	 1.214111	 1.214712
O	 1.401606	 -0.295166	 0.366636
H	 0.748705	 0.673477	 -1.312803
H	 1.176496	 1.708671	 0.046552
C	 2.714315	 -0.441627	 -0.061017
H	 2.765292	 -0.641548	 -1.128869
H	 3.305661	 0.447341	 0.150952
H	 3.143725	 -1.278506	 0.470147

	symmetry c1
}
set optking {
	frozen_dihedral = ("
		3 6 7 11
	")
}

ee,wfn = optimize('scf', return_wfn=True)
oeprop( wfn, 'DIPOLE', 'QUADRUPOLE', 'MULLIKEN_CHARGES')
f=open( 'psi4out.xyz', 'w' )
f.write( "16  " )
f.write( str(ee) + "\n" )
f.write( MOL.save_string_xyz() )
f.close()
--------------------------------------------------------------------------

    Molecular point group: c1
  Charge       = 0
  Multiplicity = 1
  Basis Set: CC-PVTZ
  Basis Set:
  @DF-RHF Final Energy:  -307.09269372992054
    Total Energy =                       -307.0926937299205974
    Molecular point group: c1
  Basis Set: CC-PVTZ
  Basis Set:
  Basis Set: CC-PVTZ
  Basis Set:
  @DF-RHF Final Energy:  -307.09350452833860
    Total Energy =                       -307.0935045283384852
  Basis Set: CC-PVTZ
  Basis Set:
  Basis Set: CC-PVTZ
  Basis Set:
  @DF-RHF Final Energy:  -307.09365108876710
    Total Energy =                       -307.0936510887670465
  Basis Set: CC-PVTZ
  Basis Set:
  Charge       = 0
  Multiplicity = 1
  Basis Set: CC-PVTZ
  Basis Set:

    Orbital Energies (a.u.)
    -----------------------

    Doubly Occupied:

       1A    -20.548250     2A    -20.546360     3A    -11.268909
       4A    -11.268257     5A    -11.261793     6A    -11.260911
       7A     -1.393536     8A     -1.374030     9A     -1.030545
      10A     -0.936244    11A     -0.896738    12A     -0.820655
      13A     -0.688524    14A     -0.679461    15A     -0.661071
      16A     -0.643981    17A     -0.625691    18A     -0.596318
      19A     -0.564866    20A     -0.523499    21A     -0.509466
      22A     -0.476816    23A     -0.468032    24A     -0.419259
      25A     -0.412305

  @DF-RHF Final Energy:  -307.09365873298287

   => Energetics <=

    Nuclear Repulsion Energy =            259.7568234871235404
    One-Electron Energy =                -933.9499322429786616
    Two-Electron Energy =                 367.0994500228725883
    DFT Exchange-Correlation Energy =       0.0000000000000000
    Empirical Dispersion Energy =           0.0000000000000000
    PCM Polarization Energy =               0.0000000000000000
    EFP Energy =                            0.0000000000000000
    Total Energy =                       -307.0936587329824761
    Molecular point group: c1
  Basis Set: CC-PVTZ
  Basis Set:

  -Total Gradient:
     Atom            X                  Y                   Z
    ------   -----------------  -----------------  -----------------
       1       -0.000009019238     0.000005200805     0.000007156052
       2       -0.000011433075    -0.000020285238     0.000001761214
       3        0.001951972652    -0.000616754411     0.005789529362
       4       -0.000028754867     0.000001730518    -0.000001418485
       5       -0.000021196552    -0.000010725561     0.000005578519
       6       -0.002516019244     0.002853520706    -0.007764135582
       7        0.000434025095    -0.009823345969     0.002333977962
       8        0.000014404567    -0.000047935779    -0.000015527738
       9        0.000009179849    -0.000025781441     0.000009131783
      10        0.000021735076    -0.000072511542     0.000002180524
      11        0.000089916196     0.007768385009    -0.000373482948
      12        0.000033237061    -0.000025340228    -0.000002627364
      13       -0.000099090507     0.000019436735     0.000016729976
      14        0.000012455626     0.000003542223     0.000003280018
      15        0.000048730343     0.000005000663    -0.000011077819
      16        0.000069857020    -0.000014136491    -0.000001055474

  **** Optimization is complete! (in 4 steps) ****
    Final optimized geometry and variables:
    Molecular point group: c1

    Geometry (in Angstrom), charge = 0, multiplicity = 1:

    H           -2.708054759083    -0.155466329624     1.516462773825
    C           -2.627752460037    -0.530813990660     0.498315608609
    O           -1.319589770533    -0.473155233783     0.038104592049
    H           -2.937433759987    -1.565533050423     0.484288018740
    H           -3.301977664585     0.044542181814    -0.133516889394
    C           -0.780996424856     0.804382164594     0.015564061100
    C            0.654343422600     0.774666272783    -0.469795296295
    H           -1.353158554484     1.465099950296    -0.634982751326
    H           -0.809342744233     1.226666696798     1.019426312453
    O            1.368523416821    -0.237672867100     0.143627973817
    H            0.688006671550     0.708414935613    -1.556533316418
    H            1.091491721663     1.746163379276    -0.228233879691
    C            2.700955241454    -0.307470825097    -0.240547305194
    H            2.798128817180    -0.489472630039    -1.308561210492
    H            3.236186767777     0.608739404018     0.002010888035
    H            3.155963649979    -1.127942279216     0.294662825301

  Mulliken Charges: (a.u.)
   Center  Symbol    Alpha    Beta     Spin     Total
       1     H     0.47198  0.47198  0.00000  0.05604
       2     C     3.03117  3.03117  0.00000 -0.06233
       3     O     4.16356  4.16356  0.00000 -0.32712
       4     H     0.44576  0.44576  0.00000  0.10848
       5     H     0.47349  0.47349  0.00000  0.05301
       6     C     2.96323  2.96323  0.00000  0.07354
       7     C     2.96197  2.96197  0.00000  0.07605
       8     H     0.47616  0.47616  0.00000  0.04767
       9     H     0.47499  0.47499  0.00000  0.05002
      10     O     4.16206  4.16206  0.00000 -0.32412
      11     H     0.47434  0.47434  0.00000  0.05133
      12     H     0.47964  0.47964  0.00000  0.04071
      13     C     3.03188  3.03188  0.00000 -0.06376
      14     H     0.47093  0.47093  0.00000  0.05814
      15     H     0.47321  0.47321  0.00000  0.05357
      16     H     0.44563  0.44563  0.00000  0.10875

   Total alpha = 25.00000, Total beta = 25.00000, Total charge = -0.00000

*** Psi4 exiting successfully. Buy a developer a beer!
