  ==> Input File <==

--------------------------------------------------------------------------
set {
	reference rhf
	basis cc-pvtz
}

set_num_threads( 4 )
memory 2 gb

molecule MOL {
0 1

H	 5.269878	 0.195679	 1.068175
C	 4.673900	 -0.208485	 0.258034
C	 3.190199	 -0.204714	 0.610086
H	 4.865136	 0.391893	 -0.624684
H	 5.027838	 -1.214511	 0.056939
C	 2.319208	 -0.778154	 -0.505491
H	 2.876954	 0.809861	 0.827925
H	 3.035335	 -0.782733	 1.518235
C	 2.141805	 -2.291487	 -0.433105
H	 1.344199	 -0.307363	 -0.482241
H	 2.765849	 -0.533043	 -1.464770
C	 1.248654	 -2.772212	 0.698120
H	 1.686938	 -2.653662	 -1.351631
H	 3.102735	 -2.792779	 -0.363553
C	 1.334231	 -4.236548	 1.082525
O	 0.493759	 -2.039478	 1.251752
C	 0.897480	 -5.193677	 -0.031709
H	 0.710717	 -4.371856	 1.955887
H	 2.359973	 -4.457476	 1.365790
C	 0.903931	 -6.652199	 0.418116
H	 -0.102087	 -4.924362	 -0.361755
H	 1.548709	 -5.085485	 -0.893217
C	 0.464007	 -7.615051	 -0.679385
H	 0.251866	 -6.763391	 1.279231
H	 1.902153	 -6.918864	 0.754295
H	 -0.543503	 -7.392586	 -1.014219
H	 1.119625	 -7.553140	 -1.541587
H	 0.476544	 -8.640077	 -0.327993

	symmetry c1
}
set optking {
	frozen_dihedral = ("
		10 6 3 2
	")
}

ee = optimize('scf')
oeprop('DIPOLE', 'QUADRUPOLE', 'MULLIKEN_CHARGES')
f=open( 'psi4out.xyz', 'w' )
f.write( "28  " )
f.write( str(ee) + "\n" )
f.write( MOL.save_string_xyz() )
f.close()
--------------------------------------------------------------------------

    Molecular point group: c1
  Charge       = 0
  Multiplicity = 1
  Basis Set: CC-PVTZ
  Basis Set:
  @DF-RHF Final Energy:  -426.31651826976531
    Total Energy =                       -426.3165182697662203
    Molecular point group: c1
  Basis Set: CC-PVTZ
  Basis Set:
  Basis Set: CC-PVTZ
  Basis Set:
  @DF-RHF Final Energy:  -426.31678289558590
    Total Energy =                       -426.3167828955859022
  Basis Set: CC-PVTZ
  Basis Set:
  Basis Set: CC-PVTZ
  Basis Set:
  @DF-RHF Final Energy:  -426.31663922343944
    Total Energy =                       -426.3166392234395516
  Basis Set: CC-PVTZ
  Basis Set:
  Basis Set: CC-PVTZ
  Basis Set:
  @DF-RHF Final Energy:  -426.31682287323656
    Total Energy =                       -426.3168228732371290
  Basis Set: CC-PVTZ
  Basis Set:
  Basis Set: CC-PVTZ
  Basis Set:
  @DF-RHF Final Energy:  -426.31681460088146
    Total Energy =                       -426.3168146008820258
  Basis Set: CC-PVTZ
  Basis Set:
  Basis Set: CC-PVTZ
  Basis Set:
  @DF-RHF Final Energy:  -426.31682631809679
    Total Energy =                       -426.3168263180967870
  Basis Set: CC-PVTZ
  Basis Set:
  Charge       = 0
  Multiplicity = 1
  Basis Set: CC-PVTZ
  Basis Set:

    Orbital Energies (a.u.)
    -----------------------

    Doubly Occupied:

       1A    -20.536622     2A    -11.316223     3A    -11.229777
       4A    -11.228379     5A    -11.226819     6A    -11.223754
       7A    -11.214469     8A    -11.214189     9A    -11.211410
      10A    -11.207518    11A     -1.396460    12A     -1.096056
      13A     -1.078587    14A     -1.023072    15A     -0.990960
      16A     -0.910026    17A     -0.878029    18A     -0.809299
      19A     -0.798818    20A     -0.722140    21A     -0.667162
      22A     -0.652190    23A     -0.641828    24A     -0.621656
      25A     -0.603676    26A     -0.598398    27A     -0.577442
      28A     -0.567795    29A     -0.541634    30A     -0.538285
      31A     -0.525463    32A     -0.510060    33A     -0.503261
      34A     -0.485516    35A     -0.480466    36A     -0.476547
      37A     -0.470217    38A     -0.460555    39A     -0.458752
      40A     -0.394331

  @DF-RHF Final Energy:  -426.31682718859042

   => Energetics <=

    Nuclear Repulsion Energy =            534.7428111953136067
    One-Electron Energy =               -1637.9435958018466408
    Two-Electron Energy =                 676.8839574179424972
    DFT Exchange-Correlation Energy =       0.0000000000000000
    Empirical Dispersion Energy =           0.0000000000000000
    PCM Polarization Energy =               0.0000000000000000
    EFP Energy =                            0.0000000000000000
    Total Energy =                       -426.3168271885905369
    Molecular point group: c1
  Basis Set: CC-PVTZ
  Basis Set:

  -Total Gradient:
     Atom            X                  Y                   Z
    ------   -----------------  -----------------  -----------------
       1       -0.000006016630    -0.000002311990     0.000013400902
       2       -0.000301140328     0.001943094227    -0.000915279496
       3        0.000627319617    -0.002223942898     0.000722365491
       4       -0.000026096576    -0.000008276528     0.000001116889
       5        0.000017226858     0.000003269265    -0.000001754437
       6       -0.001245939681    -0.001888893038     0.002099786520
       7       -0.000008112372     0.000060468837    -0.000004824847
       8       -0.000013043226    -0.000046112377     0.000002509158
       9        0.000001942957     0.000043658336    -0.000019519430
      10        0.000966886930     0.002096469251    -0.001913030957
      11        0.000031146246     0.000028049892    -0.000022445030
      12        0.000008883865    -0.000004442801     0.000042815048
      13       -0.000008824927     0.000004302133     0.000002291569
      14       -0.000002131849     0.000013050100    -0.000002464406
      15       -0.000063403758    -0.000015922535    -0.000054376077
      16       -0.000014088403    -0.000029520896     0.000015370926
      17        0.000020681163    -0.000001781383     0.000022413513
      18        0.000003467553     0.000002739470     0.000001581501
      19        0.000017050895     0.000022136766     0.000016852898
      20        0.000000875834     0.000001626659     0.000002335765
      21       -0.000008458840    -0.000006125745    -0.000006140190
      22       -0.000002146358     0.000006722267    -0.000002832115
      23        0.000003097564     0.000001866653    -0.000001084090
      24        0.000000392875     0.000000214316    -0.000000627229
      25        0.000000775579    -0.000000841715     0.000001840415
      26       -0.000000454552     0.000000181055     0.000000126012
      27       -0.000000184261    -0.000000731798    -0.000001055723
      28        0.000000293827     0.000001054474     0.000000627421

  **** Optimization is complete! (in 7 steps) ****
    Final optimized geometry and variables:
    Molecular point group: c1

    Geometry (in Angstrom), charge = 0, multiplicity = 1:

    H            3.466130252098     3.493128691304     0.817000597309
    C            2.894701996694     3.060360102575     0.003776380193
    C            1.403354200270     3.040103658382     0.329761289175
    H            3.087189393041     3.649077481420    -0.886644594183
    H            3.284603053944     2.062680198706    -0.172676126641
    C            0.542591726763     2.411660732939    -0.774642214853
    H            1.074876839962     4.061608556287     0.488307128448
    H            1.233207512393     2.526768421298     1.269426334011
    C            0.404699241847     0.895632188292    -0.681531700513
    H           -0.440471217055     2.861963295939    -0.775414139826
    H            0.982415574249     2.652651052545    -1.738341972321
    C           -0.492956293113     0.413297995082     0.445508587236
    H           -0.022895285753     0.505747605661    -1.601537641219
    H            1.374475454632     0.416574383845    -0.585841706713
    C           -0.420361834741    -1.055507063676     0.816699728497
    O           -1.239100129320     1.147527207792     1.008566528460
    C           -0.888035738229    -1.997824421057    -0.297616486347
    H           -1.032486704567    -1.189296040357     1.698310130789
    H            0.606200136319    -1.293451150847     1.082507898117
    C           -0.898016550064    -3.459279577019     0.142339535178
    H           -1.887864784538    -1.710625114327    -0.611262832589
    H           -0.247585561552    -1.894046508852    -1.167658736434
    C           -1.363479684059    -4.407952324192    -0.956909725402
    H           -1.542467191851    -3.566959055105     1.009597996745
    H            0.099746018302    -3.742691863544     0.465923453006
    H           -2.371508796354    -4.169211876763    -1.278680719223
    H           -0.716793411964    -4.348791262238    -1.826014702919
    H           -1.361143012492    -5.435554512183    -0.612927572854

  Mulliken Charges: (a.u.)
   Center  Symbol    Alpha    Beta     Spin     Total
       1     H     0.44744  0.44744  0.00000  0.10512
       2     C     3.14817  3.14817  0.00000 -0.29633
       3     C     3.08999  3.08999  0.00000 -0.17999
       4     H     0.45476  0.45476  0.00000  0.09048
       5     H     0.45897  0.45897  0.00000  0.08206
       6     C     3.09435  3.09435  0.00000 -0.18870
       7     H     0.44750  0.44750  0.00000  0.10499
       8     H     0.44929  0.44929  0.00000  0.10142
       9     C     3.13052  3.13052  0.00000 -0.26103
      10     H     0.43804  0.43804  0.00000  0.12392
      11     H     0.44979  0.44979  0.00000  0.10041
      12     C     2.86483  2.86483  0.00000  0.27033
      13     H     0.43352  0.43352  0.00000  0.13297
      14     H     0.44199  0.44199  0.00000  0.11602
      15     C     3.09318  3.09318  0.00000 -0.18636
      16     O     4.17771  4.17771  0.00000 -0.35541
      17     C     3.10115  3.10115  0.00000 -0.20230
      18     H     0.43772  0.43772  0.00000  0.12457
      19     H     0.44957  0.44957  0.00000  0.10086
      20     C     3.08721  3.08721  0.00000 -0.17443
      21     H     0.44557  0.44557  0.00000  0.10886
      22     H     0.45067  0.45067  0.00000  0.09865
      23     C     3.14921  3.14921  0.00000 -0.29841
      24     H     0.44979  0.44979  0.00000  0.10041
      25     H     0.45363  0.45363  0.00000  0.09273
      26     H     0.45341  0.45341  0.00000  0.09318
      27     H     0.45521  0.45521  0.00000  0.08957
      28     H     0.44680  0.44680  0.00000  0.10640

   Total alpha = 40.00000, Total beta = 40.00000, Total charge = -0.00000
