  ==> Input File <==

--------------------------------------------------------------------------
set {
	reference rhf
	basis 6-31G*
}

set_num_threads( 1 )
memory 2 gb

molecule MOL {
0 1

H	 1.225363	 -1.607489	 1.494207
O	 0.550353	 -1.039178	 1.152046
C	 1.135793	 0.118896	 0.612333
C	 0.031547	 1.023609	 0.088541
H	 1.805954	 -0.139105	 -0.205720
H	 1.728305	 0.633437	 1.365512
C	 -1.134819	 0.293262	 -0.585751
H	 0.474374	 1.714721	 -0.623187
H	 -0.338529	 1.620940	 0.920081
C	 -1.917817	 -0.639439	 0.339494
H	 -0.758119	 -0.268455	 -1.433105
H	 -1.813832	 1.041889	 -0.986690
H	 -2.777680	 -1.057197	 -0.174994
H	 -1.310268	 -1.471279	 0.680599
H	 -2.283753	 -0.111424	 1.216626

	symmetry c1
}
set optking {
	frozen_dihedral = ("
		8 4 7 11,
		1 2 3 4
	")
}

ee = energy('scf')
oeprop('DIPOLE', 'QUADRUPOLE', 'MULLIKEN_CHARGES')
f=open( 'psi4out.xyz', 'w' )
f.write( "15  " )
f.write( str(ee) + "\n" )
f.write( MOL.save_string_xyz() )
f.close()
--------------------------------------------------------------------------

    Molecular point group: c1

    Geometry (in Angstrom), charge = 0, multiplicity = 1:

       Center              X                  Y                   Z               Mass
    ------------   -----------------  -----------------  -----------------  -----------------
           H          1.467023592554    -1.516946043166     1.141133889102     1.007825032070
           O          0.792013592554    -0.948635043166     0.798972889102    15.994914619560
           C          1.377453592554     0.209438956834     0.259259889102    12.000000000000
           C          0.273207592554     1.114151956834    -0.264532110898    12.000000000000
           H          2.047614592554    -0.048562043166    -0.558793110898     1.007825032070
           H          1.969965592554     0.723979956834     1.012438889102     1.007825032070
           C         -0.893158407446     0.383804956834    -0.938824110898    12.000000000000
           H          0.716034592554     1.805263956834    -0.976260110898     1.007825032070
           H         -0.096868407446     1.711482956834     0.567007889102     1.007825032070
           C         -1.676156407446    -0.548896043166    -0.013579110898    12.000000000000
           H         -0.516458407446    -0.177912043166    -1.786178110898     1.007825032070
           H         -1.572171407446     1.132431956834    -1.339763110898     1.007825032070
           H         -2.536019407446    -0.966654043166    -0.528067110898     1.007825032070
           H         -1.068607407446    -1.380736043166     0.327525889102     1.007825032070
           H         -2.042092407446    -0.020881043166     0.863552889102     1.007825032070

  Charge       = 0
  Multiplicity = 1
  Basis Set: 6-31G*
  Basis Set:

    Orbital Energies (a.u.)
    -----------------------

    Doubly Occupied:

       1A    -20.555409     2A    -11.269824     3A    -11.212282
       4A    -11.206620     5A    -11.180594     6A     -1.365874
       7A     -1.058446     8A     -0.967660     9A     -0.856648
      10A     -0.775144    11A     -0.710896    12A     -0.652629
      13A     -0.601556    14A     -0.572165    15A     -0.542519
      16A     -0.531609    17A     -0.516146    18A     -0.464721
      19A     -0.461788    20A     -0.435580    21A     -0.427294

  @DF-RHF Final Energy:  -232.13094514575099

   => Energetics <=

    Nuclear Repulsion Energy =            196.3420781774485420
    One-Electron Energy =                -704.2151937359411704
    Two-Electron Energy =                 275.7421704127420981
    DFT Exchange-Correlation Energy =       0.0000000000000000
    Empirical Dispersion Energy =           0.0000000000000000
    PCM Polarization Energy =               0.0000000000000000
    EFP Energy =                            0.0000000000000000
    Total Energy =                       -232.1309451457505020

  Mulliken Charges: (a.u.)
   Center  Symbol    Alpha    Beta     Spin     Total
       1     H     0.28062  0.28062  0.00000  0.43876
       2     O     4.36993  4.36993  0.00000 -0.73986
       3     C     2.99191  2.99191  0.00000  0.01619
       4     C     3.16770  3.16770  0.00000 -0.33539
       5     H     0.43189  0.43189  0.00000  0.13622
       6     H     0.42869  0.42869  0.00000  0.14262
       7     C     3.14976  3.14976  0.00000 -0.29952
       8     H     0.42123  0.42123  0.00000  0.15753
       9     H     0.41953  0.41953  0.00000  0.16094
      10     C     3.23897  3.23897  0.00000 -0.47794
      11     H     0.42467  0.42467  0.00000  0.15066
      12     H     0.42307  0.42307  0.00000  0.15386
      13     H     0.43133  0.43133  0.00000  0.13734
      14     H     0.39128  0.39128  0.00000  0.21745
      15     H     0.42943  0.42943  0.00000  0.14113

   Total alpha = 21.00000, Total beta = 21.00000, Total charge = -0.00000
