  ==> Input File <==

--------------------------------------------------------------------------
set {
	reference rhf
	basis cc-pvtz
}

set_num_threads( 4 )
memory 2 gb

molecule MOL {
0 1

O	 -2.440701	 -0.934798	 -0.415053
C	 -1.922978	 0.063265	 -0.045005
C	 -2.632749	 1.372204	 0.158357
O	 -0.637375	 0.157174	 0.243149
H	 -2.187724	 2.129143	 -0.474664
H	 -3.677681	 1.257276	 -0.079438
H	 -2.516788	 1.693160	 1.185542
C	 0.162530	 -1.009518	 0.097799
C	 1.587210	 -0.664190	 0.477086
H	 0.096803	 -1.356267	 -0.924704
H	 -0.233803	 -1.785900	 0.736810
C	 2.256770	 0.342732	 -0.454344
H	 2.154716	 -1.590834	 0.479041
H	 1.598751	 -0.289614	 1.496104
C	 3.431129	 1.060669	 0.202209
H	 2.601811	 -0.172354	 -1.346942
H	 1.524350	 1.071180	 -0.782627
H	 3.889958	 1.765529	 -0.481191
H	 4.196422	 0.358185	 0.515634
H	 3.110943	 1.612249	 1.079851

	symmetry c1
}
set optking {
	frozen_dihedral = ("
		16 12 9 8
	")
}

ee = optimize('scf')
oeprop('DIPOLE', 'QUADRUPOLE', 'MULLIKEN_CHARGES')
f=open( 'psi4out.xyz', 'w' )
f.write( "20  " )
f.write( str(ee) + "\n" )
f.write( MOL.save_string_xyz() )
f.close()
--------------------------------------------------------------------------

    Molecular point group: c1
  Charge       = 0
  Multiplicity = 1
  Basis Set: CC-PVTZ
  Basis Set:
  @DF-RHF Final Energy:  -384.08590651606494
    Total Energy =                       -384.0859065160647106
    Molecular point group: c1
  Basis Set: CC-PVTZ
  Basis Set:
  Basis Set: CC-PVTZ
  Basis Set:
  @DF-RHF Final Energy:  -384.08606420255779
    Total Energy =                       -384.0860642025581910
  Basis Set: CC-PVTZ
  Basis Set:
  Basis Set: CC-PVTZ
  Basis Set:
  @DF-RHF Final Energy:  -384.08590197296780
    Total Energy =                       -384.0859019729676902
  Basis Set: CC-PVTZ
  Basis Set:
  Basis Set: CC-PVTZ
  Basis Set:
  @DF-RHF Final Energy:  -384.08609991518153
    Total Energy =                       -384.0860999151814212
  Basis Set: CC-PVTZ
  Basis Set:
  Charge       = 0
  Multiplicity = 1
  Basis Set: CC-PVTZ
  Basis Set:

    Orbital Energies (a.u.)
    -----------------------

    Doubly Occupied:

       1A    -20.594710     2A    -20.532864     3A    -11.366928
       4A    -11.280248     5A    -11.231896     6A    -11.223363
       7A    -11.218776     8A    -11.211181     9A     -1.471381
      10A     -1.365548    11A     -1.086466    12A     -1.029252
      13A     -0.982151    14A     -0.881016    15A     -0.811297
      16A     -0.778180    17A     -0.693078    18A     -0.686179
      19A     -0.670261    20A     -0.631276    21A     -0.604240
      22A     -0.593775    23A     -0.574156    24A     -0.552497
      25A     -0.540965    26A     -0.535071    27A     -0.514557
      28A     -0.483078    29A     -0.475245    30A     -0.473124
      31A     -0.451645    32A     -0.442304

  @DF-RHF Final Energy:  -384.08610075802534

   => Energetics <=

    Nuclear Repulsion Energy =            386.4722433589225261
    One-Electron Energy =               -1289.1432657689551888
    Two-Electron Energy =                 518.5849216520073242
    DFT Exchange-Correlation Energy =       0.0000000000000000
    Empirical Dispersion Energy =           0.0000000000000000
    PCM Polarization Energy =               0.0000000000000000
    EFP Energy =                            0.0000000000000000
    Total Energy =                       -384.0861007580253954
    Molecular point group: c1
  Basis Set: CC-PVTZ
  Basis Set:

  -Total Gradient:
     Atom            X                  Y                   Z
    ------   -----------------  -----------------  -----------------
       1       -0.000001884517    -0.000001728865    -0.000000627322
       2        0.000012167932     0.000005333517    -0.000003038065
       3       -0.000000679245     0.000003101886    -0.000008963843
       4        0.000042798669    -0.000013284967    -0.000039474256
       5        0.000000869204    -0.000001211672     0.000005457191
       6        0.000000730968    -0.000001308813     0.000001146749
       7       -0.000002138924    -0.000001101971     0.000004482813
       8       -0.000935196890     0.001970234579     0.001532647410
       9        0.001962022813    -0.002905765147    -0.001736059061
      10       -0.000010907308     0.000009921381    -0.000014263840
      11        0.000014234397    -0.000007599964    -0.000009332654
      12       -0.004147071971     0.001522007016    -0.001340011149
      13        0.000001856541     0.000009281007    -0.000005070667
      14        0.000007530202     0.000010234693     0.000004562734
      15       -0.000015522724    -0.000011078719    -0.000005764303
      16        0.003077740427    -0.000596170524     0.001588183171
      17       -0.000029096747    -0.000006943806     0.000014110692
      18        0.000008755430    -0.000000451300    -0.000001653569
      19        0.000004709884     0.000005289334     0.000009514678
      20        0.000009081859     0.000011242332     0.000004153291

  **** Optimization is complete! (in 5 steps) ****
    Final optimized geometry and variables:
    Molecular point group: c1

    Geometry (in Angstrom), charge = 0, multiplicity = 1:

    O           -2.401029285745    -0.986026117364    -0.477021247731
    C           -1.891957660140     0.006350135982    -0.080960091704
    C           -2.609727095602     1.307516140729     0.141446585458
    O           -0.609541468191     0.100083802685     0.221650427404
    H           -2.162837885526     2.078538186112    -0.472944459869
    H           -3.651964970975     1.192347547413    -0.107791795770
    H           -2.504150435516     1.608856820116     1.175602460658
    C            0.196776517990    -1.059866002974     0.062162434433
    C            1.617160481069    -0.705179609162     0.451480845429
    H            0.133197206650    -1.394394309343    -0.964819956644
    H           -0.195448864910    -1.846628370828     0.690830559497
    C            2.293246172223     0.296434137444    -0.487642469947
    H            2.195327136323    -1.622770062563     0.493269842381
    H            1.596222194117    -0.305265815501     1.460633566259
    C            3.483523440549     0.995944114716     0.163123379233
    H            2.647994459639    -0.227536794544    -1.370380807560
    H            1.574671835598     1.037391331046    -0.815354745152
    H            3.974136086562     1.664426011901    -0.534802211397
    H            4.221309900102     0.277581451721     0.505948651173
    H            3.171031879634     1.581990060434     1.020657494116

  Mulliken Charges: (a.u.)
   Center  Symbol    Alpha    Beta     Spin     Total
       1     O     4.19703  4.19703  0.00000 -0.39405
       2     C     2.80909  2.80909  0.00000  0.38183
       3     C     3.13819  3.13819  0.00000 -0.27638
       4     O     4.15336  4.15336  0.00000 -0.30671
       5     H     0.44625  0.44625  0.00000  0.10750
       6     H     0.43780  0.43780  0.00000  0.12440
       7     H     0.44568  0.44568  0.00000  0.10865
       8     C     2.99209  2.99209  0.00000  0.01582
       9     C     3.08531  3.08531  0.00000 -0.17062
      10     H     0.45122  0.45122  0.00000  0.09755
      11     H     0.44446  0.44446  0.00000  0.11109
      12     C     3.08661  3.08661  0.00000 -0.17322
      13     H     0.44909  0.44909  0.00000  0.10183
      14     H     0.45409  0.45409  0.00000  0.09183
      15     C     3.14944  3.14944  0.00000 -0.29887
      16     H     0.45365  0.45365  0.00000  0.09270
      17     H     0.44906  0.44906  0.00000  0.10187
      18     H     0.44812  0.44812  0.00000  0.10376
      19     H     0.45531  0.45531  0.00000  0.08938
      20     H     0.45417  0.45417  0.00000  0.09166

   Total alpha = 32.00000, Total beta = 32.00000, Total charge = -0.00000
