                              Psi4 1.0.54 Driver

  ==> Input File <==

--------------------------------------------------------------------------
set {
	reference rhf
	basis cc-pvtz
}

set_num_threads( 4 )
memory 2 gb

molecule MOL {
0 1

O	 2.335603	 0.397969	 -0.961769
C	 1.704209	 0.119472	 -0.000093
C	 0.380337	 -0.600947	 -0.000234
O	 2.091198	 0.413197	 1.230509
C	 -0.824290	 0.329213	 -0.000115
H	 0.371455	 -1.255476	 -0.865660
H	 0.371410	 -1.255787	 0.864952
C	 -2.146151	 -0.432825	 -0.000068
H	 -0.773936	 0.979158	 -0.866319
H	 -0.773838	 0.979034	 0.866186
C	 -3.366283	 0.483552	 0.000557
H	 -2.189286	 -1.084450	 -0.869996
H	 -2.188867	 -1.085083	 0.869399
C	 -4.687436	 -0.278003	 0.000108
H	 -3.325150	 1.134819	 -0.867957
H	 -3.325087	 1.133730	 0.869885
H	 -4.773783	 -0.912098	 -0.876078
H	 -5.531922	 0.401392	 0.000363
H	 -4.773901	 -0.912898	 0.875703
C	 3.321517	 1.092572	 1.379135
H	 4.133025	 0.504012	 0.977557
H	 3.455527	 1.237148	 2.438845
H	 3.293986	 2.046274	 0.873263

	symmetry c1
}
set optking {
	frozen_dihedral = ("
		1 2 3 6
	")
}

ee,wfn = optimize('scf', return_wfn=True)
oeprop( wfn, 'DIPOLE', 'QUADRUPOLE', 'MULLIKEN_CHARGES')
f=open( 'psi4out.xyz', 'w' )
f.write( "23  " )
f.write( str(ee) + "\n" )
f.write( MOL.save_string_xyz() )
f.close()
--------------------------------------------------------------------------

    Molecular point group: c1
  Charge       = 0
  Multiplicity = 1
  Basis Set: CC-PVTZ
  Basis Set:
  @DF-RHF Final Energy:  -423.12925152835777
    Total Energy =                       -423.1292515283575995
    Molecular point group: c1
  Basis Set: CC-PVTZ
  Basis Set:
  Basis Set: CC-PVTZ
  Basis Set:
  @DF-RHF Final Energy:  -423.12884005330932
    Total Energy =                       -423.1288400533094318
  Basis Set: CC-PVTZ
  Basis Set:
  Basis Set: CC-PVTZ
  Basis Set:
  @DF-RHF Final Energy:  -423.12940975740639
    Total Energy =                       -423.1294097574063926
  Basis Set: CC-PVTZ
  Basis Set:
  Basis Set: CC-PVTZ
  Basis Set:
  @DF-RHF Final Energy:  -423.12992837882325
    Total Energy =                       -423.1299283788238199
  Basis Set: CC-PVTZ
  Basis Set:
  Basis Set: CC-PVTZ
  Basis Set:
  @DF-RHF Final Energy:  -423.12994272362812
    Total Energy =                       -423.1299427236281190
  Basis Set: CC-PVTZ
  Basis Set:
  Charge       = 0
  Multiplicity = 1
  Basis Set: CC-PVTZ
  Basis Set:

    Orbital Energies (a.u.)
    -----------------------

    Doubly Occupied:

       1A    -20.597320     2A    -20.531684     3A    -11.363061
       4A    -11.278215     5A    -11.231792     6A    -11.227411
       7A    -11.219696     8A    -11.218033     9A    -11.210176
      10A     -1.471571    11A     -1.364145    12A     -1.098347
      13A     -1.046525    14A     -0.986061    15A     -0.935178
      16A     -0.846878    17A     -0.798982    18A     -0.775009
      19A     -0.696415    20A     -0.683184    21A     -0.675710
      22A     -0.655133    23A     -0.608603    24A     -0.596578
      25A     -0.580015    26A     -0.573024    27A     -0.539257
      28A     -0.539091    29A     -0.525231    30A     -0.506809
      31A     -0.492669    32A     -0.477143    33A     -0.471253
      34A     -0.467666    35A     -0.457193    36A     -0.430888

  @DF-RHF Final Energy:  -423.12994431020257

   => Energetics <=

    Nuclear Repulsion Energy =            455.2363637375571557
    One-Electron Energy =               -1478.3807135756624120
    Two-Electron Energy =                 600.0144055279027953
    DFT Exchange-Correlation Energy =       0.0000000000000000
    Empirical Dispersion Energy =           0.0000000000000000
    PCM Polarization Energy =               0.0000000000000000
    EFP Energy =                            0.0000000000000000
    Total Energy =                       -423.1299443102024043
    Molecular point group: c1
  Basis Set: CC-PVTZ
  Basis Set:

  -Total Gradient:
     Atom            X                  Y                   Z
    ------   -----------------  -----------------  -----------------
       1       -0.000177763972     0.000258082686     0.000090392587
       2        0.000292433432    -0.000443546605    -0.000201583745
       3       -0.000195370892     0.000360072184    -0.000114986175
       4        0.000055419638     0.000065538306     0.000136097349
       5        0.000010430872     0.000017555437     0.000006236859
       6        0.000114673603    -0.000216727406     0.000126530129
       7       -0.000003346277    -0.000000315898    -0.000009222858
       8       -0.000018671543    -0.000013028058    -0.000006923694
       9        0.000001461799     0.000011143222    -0.000006972363
      10        0.000000969688     0.000021163353     0.000012441553
      11        0.000003964772     0.000004150809     0.000009591499
      12       -0.000001596020    -0.000021575554    -0.000016862772
      13       -0.000003061491    -0.000013791600     0.000020766246
      14        0.000009375840    -0.000003490477    -0.000010113799
      15       -0.000000062303     0.000016077250    -0.000019343492
      16        0.000001370302     0.000016216969     0.000014571010
      17       -0.000004714119    -0.000015584810    -0.000016441387
      18       -0.000012923941     0.000016459150    -0.000001427587
      19       -0.000003031615    -0.000013316670     0.000021541511
      20       -0.000021022378    -0.000022754238    -0.000006444993
      21       -0.000019760888     0.000000469835     0.000007845155
      22       -0.000018963272    -0.000012124621    -0.000045495197
      23       -0.000009811230    -0.000010673263     0.000009804166

  **** Optimization is complete! (in 6 steps) ****
    Final optimized geometry and variables:
    Molecular point group: c1

    Geometry (in Angstrom), charge = 0, multiplicity = 1:

    O            2.402178131540     0.106383785621    -1.122852394921
    C            1.793508009791    -0.146134019911    -0.138761083389
    C            0.471069227993    -0.865871277095    -0.113199900918
    O            2.192306564295     0.210857942971     1.071040101918
    C           -0.696759237137     0.124207960799    -0.192469014103
    H            0.450747780755    -1.534988413354    -0.962348259643
    H            0.400423120290    -1.450482832673     0.794704094788
    C           -2.052698624751    -0.574789908948    -0.194289658287
    H           -0.592415696179     0.720537297920    -1.092998722553
    H           -0.642362265594     0.809350858563     0.647693216613
    C           -3.227316389100     0.395721127999    -0.278297033569
    H           -2.098449200489    -1.267005575326    -1.031349674430
    H           -2.148364638332    -1.177056132688     0.705929707133
    C           -4.581911671693    -0.304722102283    -0.281116376787
    H           -3.131002578697     0.997726365074    -1.177491736140
    H           -3.181191379847     1.087742533450     0.558063474945
    H           -4.672165747127    -0.978885799754    -1.126325142088
    H           -5.393271797594     0.411312112263    -0.341648202491
    H           -4.722785464565    -0.888477517486     0.622510471196
    C            3.399050823443     0.940404494131     1.165934564141
    H            4.223697408044     0.364430312227     0.773311810724
    H            3.547273908310     1.135596917723     2.215571860061
    H            3.326675645842     1.869374173100     0.620057849133

  Mulliken Charges: (a.u.)
   Center  Symbol    Alpha    Beta     Spin     Total
       1     O     4.20430  4.20430  0.00000 -0.40861
       2     C     2.80670  2.80670  0.00000  0.38661
       3     C     3.07625  3.07625  0.00000 -0.15250
       4     O     4.15005  4.15005  0.00000 -0.30010
       5     C     3.10121  3.10121  0.00000 -0.20243
       6     H     0.43957  0.43957  0.00000  0.12086
       7     H     0.44405  0.44405  0.00000  0.11190
       8     C     3.09083  3.09083  0.00000 -0.18166
       9     H     0.44356  0.44356  0.00000  0.11289
      10     H     0.44742  0.44742  0.00000  0.10516
      11     C     3.08474  3.08474  0.00000 -0.16948
      12     H     0.45294  0.45294  0.00000  0.09413
      13     H     0.45404  0.45404  0.00000  0.09192
      14     C     3.15019  3.15019  0.00000 -0.30038
      15     H     0.45288  0.45288  0.00000  0.09424
      16     H     0.45391  0.45391  0.00000  0.09217
      17     H     0.45449  0.45449  0.00000  0.09102
      18     H     0.44758  0.44758  0.00000  0.10485
      19     H     0.45499  0.45499  0.00000  0.09002
      20     C     3.03730  3.03730  0.00000 -0.07460
      21     H     0.45298  0.45298  0.00000  0.09405
      22     H     0.44552  0.44552  0.00000  0.10896
      23     H     0.45452  0.45452  0.00000  0.09096

   Total alpha = 36.00000, Total beta = 36.00000, Total charge = -0.00000

*** Psi4 exiting successfully. Buy a developer a beer!
