  ==> Input File <==

--------------------------------------------------------------------------
set {
	reference rhf
	basis 6-31G*
}

set_num_threads( 4 )
memory 2 gb

molecule MOL {
0 1

H	 -1.022503	 1.675049	 0.793731
C	 -0.371505	 0.819188	 0.978102
N	 0.538815	 0.649616	 0.000000
O	 -0.487071	 0.134867	 1.951527
C	 1.521968	 -0.411503	 0.000000
H	 0.527984	 1.291898	 -0.758709
H	 2.150599	 -0.357004	 -0.881901
H	 0.999455	 -1.354525	 0.000000
H	 2.150599	 -0.357004	 0.881901

	symmetry c1
}
set optking {
	frozen_dihedral = ("
		6 3 5 7
	")
}

ee = optimize('scf')
oeprop('DIPOLE', 'QUADRUPOLE', 'MULLIKEN_CHARGES')
f=open( 'psi4out.xyz', 'w' )
f.write( "9  " )
f.write( str(ee) + "\n" )
f.write( MOL.save_string_xyz() )
f.close()
--------------------------------------------------------------------------

    Molecular point group: c1
  Charge       = 0
  Multiplicity = 1
  Basis Set: 6-31G*
  Basis Set:
  @DF-RHF Final Energy:  -207.96036478949469
    Total Energy =                       -207.9603647894945766
    Molecular point group: c1
  Basis Set: 6-31G*
  Basis Set:
  Basis Set: 6-31G*
  Basis Set:
  @DF-RHF Final Energy:  -207.96092935980113
    Total Energy =                       -207.9609293598010709
  Basis Set: 6-31G*
  Basis Set:
  Basis Set: 6-31G*
  Basis Set:
  @DF-RHF Final Energy:  -207.96101091880342
    Total Energy =                       -207.9610109188033107
  Basis Set: 6-31G*
  Basis Set:
  Basis Set: 6-31G*
  Basis Set:
  @DF-RHF Final Energy:  -207.96092982503592
    Total Energy =                       -207.9609298250358620
  Basis Set: 6-31G*
  Basis Set:
  Charge       = 0
  Multiplicity = 1
  Basis Set: 6-31G*
  Basis Set:

    Orbital Energies (a.u.)
    -----------------------

    Doubly Occupied:

       1A    -20.525784     2A    -15.590292     3A    -11.342462
       4A    -11.261414     5A     -1.389167     6A     -1.235821
       7A     -0.967788     8A     -0.808218     9A     -0.746721
      10A     -0.640830    11A     -0.626689    12A     -0.592491
      13A     -0.558532    14A     -0.531876    15A     -0.423447
      16A     -0.391074

  @DF-RHF Final Energy:  -207.96103522486158

   => Energetics <=

    Nuclear Repulsion Energy =            122.7273050938096191
    One-Electron Energy =                -526.1114703485877726
    Two-Electron Energy =                 195.4231300299167060
    DFT Exchange-Correlation Energy =       0.0000000000000000
    Empirical Dispersion Energy =           0.0000000000000000
    PCM Polarization Energy =               0.0000000000000000
    EFP Energy =                            0.0000000000000000
    Total Energy =                       -207.9610352248614618
    Molecular point group: c1
  Basis Set: 6-31G*
  Basis Set:

  -Total Gradient:
     Atom            X                  Y                   Z
    ------   -----------------  -----------------  -----------------
       1       -0.000051421929     0.000017097854    -0.000020605061
       2        0.000057921858    -0.000015167423     0.000177738998
       3        0.000069816675    -0.000127055920    -0.000053723320
       4       -0.000039384546     0.000048412027    -0.000094503287
       5       -0.000060256628     0.000169171240     0.000013036320
       6        0.000002710745    -0.000005348549    -0.000000966421
       7       -0.000003805484    -0.000005156784    -0.000011731694
       8        0.000012293040    -0.000043156398    -0.000003620281
       9        0.000012126272    -0.000038796048    -0.000005625257

  **** Optimization is complete! (in 5 steps) ****
    Final optimized geometry and variables:
    Molecular point group: c1

    Geometry (in Angstrom), charge = 0, multiplicity = 1:

    H           -1.338879790195     1.391702859277     0.087065837085
    C           -0.681753221885     0.535694188888     0.249113879888
    N            0.223092062811     0.374849683056    -0.732649463819
    O           -0.778883742203    -0.170274148679     1.209172153826
    C            1.190060781662    -0.702112848514    -0.709355909526
    H            0.223163649273     1.016698024424    -1.490451191244
    H            1.809670883754    -0.631152418189    -1.592883089587
    H            0.695368424393    -1.665109123400    -0.703041314200
    H            1.820076747870    -0.636539362086     0.168581476263

  Mulliken Charges: (a.u.)
   Center  Symbol    Alpha    Beta     Spin     Total
       1     H     0.42696  0.42696  0.00000  0.14609
       2     C     2.74736  2.74736  0.00000  0.50529
       3     N     3.87539  3.87539  0.00000 -0.75077
       4     O     4.28310  4.28310  0.00000 -0.56620
       5     C     3.13573  3.13573  0.00000 -0.27145
       6     H     0.30728  0.30728  0.00000  0.38545
       7     H     0.41610  0.41610  0.00000  0.16779
       8     H     0.40406  0.40406  0.00000  0.19188
       9     H     0.40403  0.40403  0.00000  0.19194

   Total alpha = 16.00000, Total beta = 16.00000, Total charge = -0.00000
