  ==> Input File <==

--------------------------------------------------------------------------
set {
	reference rhf
	basis cc-pvtz
}

set_num_threads( 4 )
memory 2 gb

molecule MOL {
0 1

H	 -2.123894	 -0.667238	 -0.609809
O	 -2.041679	 -0.058866	 0.103463
C	 -0.959304	 0.780994	 -0.094939
C	 0.354905	 0.037902	 -0.006215
H	 -0.985899	 1.279578	 -1.057596
H	 -0.969809	 1.529522	 0.682889
F	 0.237782	 -1.042472	 0.745360
F	 0.742632	 -0.350116	 -1.203172
F	 1.312604	 0.771315	 0.508459

	symmetry c1
}
set optking {
	frozen_dihedral = ("
		7 4 3 5
	")
}

ee = optimize('scf')
oeprop('DIPOLE', 'QUADRUPOLE', 'MULLIKEN_CHARGES')
f=open( 'psi4out.xyz', 'w' )
f.write( "9  " )
f.write( str(ee) + "\n" )
f.write( MOL.save_string_xyz() )
f.close()
--------------------------------------------------------------------------

    Molecular point group: c1
  Charge       = 0
  Multiplicity = 1
  Basis Set: CC-PVTZ
  Basis Set:
  @DF-RHF Final Energy:  -450.84169950336263
    Total Energy =                       -450.8416995033626335
    Molecular point group: c1
  Basis Set: CC-PVTZ
  Basis Set:
  Basis Set: CC-PVTZ
  Basis Set:
  @DF-RHF Final Energy:  -450.84235263083065
    Total Energy =                       -450.8423526308309874
  Basis Set: CC-PVTZ
  Basis Set:
  Basis Set: CC-PVTZ
  Basis Set:
  @DF-RHF Final Energy:  -450.84259321226352
    Total Energy =                       -450.8425932122637505
  Basis Set: CC-PVTZ
  Basis Set:
  Basis Set: CC-PVTZ
  Basis Set:
  @DF-RHF Final Energy:  -450.84261448686965
    Total Energy =                       -450.8426144868698202
  Basis Set: CC-PVTZ
  Basis Set:
  Basis Set: CC-PVTZ
  Basis Set:
  @DF-RHF Final Energy:  -450.84261715742502
    Total Energy =                       -450.8426171574250816
  Basis Set: CC-PVTZ
  Basis Set:
  Charge       = 0
  Multiplicity = 1
  Basis Set: CC-PVTZ
  Basis Set:

    Orbital Energies (a.u.)
    -----------------------

    Doubly Occupied:

       1A    -26.339189     2A    -26.335680     3A    -26.334620
       4A    -20.582633     5A    -11.493622     6A    -11.310342
       7A     -1.746714     8A     -1.644917     9A     -1.639311
      10A     -1.405510    11A     -1.046777    12A     -0.929145
      13A     -0.835693    14A     -0.834833    15A     -0.809339
      16A     -0.733525    17A     -0.719314    18A     -0.701839
      19A     -0.670787    20A     -0.663439    21A     -0.647206
      22A     -0.631966    23A     -0.614603    24A     -0.532359
      25A     -0.484162

  @DF-RHF Final Energy:  -450.84261749387008

   => Energetics <=

    Nuclear Repulsion Energy =            276.9717582692472888
    One-Electron Energy =               -1176.2537040395004624
    Two-Electron Energy =                 448.4393282763830939
    DFT Exchange-Correlation Energy =       0.0000000000000000
    Empirical Dispersion Energy =           0.0000000000000000
    PCM Polarization Energy =               0.0000000000000000
    EFP Energy =                            0.0000000000000000
    Total Energy =                       -450.8426174938700797
    Molecular point group: c1
  Basis Set: CC-PVTZ
  Basis Set:

  -Total Gradient:
     Atom            X                  Y                   Z
    ------   -----------------  -----------------  -----------------
       1        0.000010027342    -0.000016730557    -0.000001582328
       2       -0.000026517198     0.000008845625     0.000007520030
       3        0.002557786253     0.004551410637     0.001343823828
       4        0.001109909043     0.002489476113     0.004701583456
       5       -0.002430060632    -0.004510261478    -0.002161489753
       6       -0.000008896408     0.000011277050     0.000006634758
       7       -0.001244478372    -0.002524172440    -0.003890895860
       8       -0.000014231275    -0.000056325338    -0.000059815471
       9        0.000046461243     0.000046480393     0.000054221340

  **** Optimization is complete! (in 6 steps) ****
    Final optimized geometry and variables:
    Molecular point group: c1

    Geometry (in Angstrom), charge = 0, multiplicity = 1:

    H           -2.166197453776    -0.618597494748    -0.652931850266
    O           -2.062688722513    -0.043936313278     0.084765495811
    C           -0.965773451405     0.787237618514    -0.083420558596
    C            0.358696267436     0.035018890346     0.003767111328
    H           -0.991434340415     1.270698047586    -1.052423002170
    H           -0.991359464026     1.526806841289     0.700618360397
    F            0.284593670966    -1.034621290416     0.755383022928
    F            0.744155735839    -0.374332458227    -1.195865659625
    F            1.311390074109     0.810994130292     0.472728667016

  Mulliken Charges: (a.u.)
   Center  Symbol    Alpha    Beta     Spin     Total
       1     H     0.38922  0.38922  0.00000  0.22157
       2     O     4.18755  4.18755  0.00000 -0.37510
       3     C     2.99817  2.99817  0.00000  0.00366
       4     C     2.68507  2.68507  0.00000  0.62987
       5     H     0.46039  0.46039  0.00000  0.07922
       6     H     0.44688  0.44688  0.00000  0.10624
       7     F     4.60470  4.60470  0.00000 -0.20941
       8     F     4.61743  4.61743  0.00000 -0.23487
       9     F     4.61059  4.61059  0.00000 -0.22119

   Total alpha = 25.00000, Total beta = 25.00000, Total charge =  0.00000
