  ==> Input File <==

--------------------------------------------------------------------------
set {
	reference rhf
	basis 6-31G*
}

set_num_threads( 1 )
memory 2 gb

molecule MOL {
0 1

H	 -4.015554	 0.698403	 -0.552379
C	 -3.330434	 0.066476	 -0.021400
C	 -2.076860	 -0.007332	 -0.404944
H	 -3.694820	 -0.494061	 0.818797
O	 -1.180634	 -0.819263	 0.215062
H	 -1.690501	 0.551267	 -1.239144
C	 0.051604	 -1.018856	 -0.387932
C	 1.043764	 0.054862	 -0.001873
H	 -0.017620	 -1.041351	 -1.469781
H	 0.437898	 -1.966374	 -0.042284
F	 2.212596	 -0.199467	 -0.571921
F	 0.652529	 1.252447	 -0.405055
F	 1.230877	 0.110694	 1.300533

	symmetry c1
}
set optking {
	frozen_dihedral = ("
		11 8 7 9,
		3 5 7 9,
		6 3 2 1
	")
}

ee = energy('scf')
oeprop('DIPOLE', 'QUADRUPOLE', 'MULLIKEN_CHARGES')
f=open( 'psi4out.xyz', 'w' )
f.write( "13  " )
f.write( str(ee) + "\n" )
f.write( MOL.save_string_xyz() )
f.close()
--------------------------------------------------------------------------

    Molecular point group: c1

    Geometry (in Angstrom), charge = 0, multiplicity = 1:

       Center              X                  Y                   Z               Mass
    ------------   -----------------  -----------------  -----------------  -----------------
           H         -4.000790563002     0.731125822365    -0.530867661155     1.007825032070
           C         -3.315670563002     0.099198822365     0.000111338845    12.000000000000
           C         -2.062096563002     0.025390822365    -0.383432661155    12.000000000000
           H         -3.680056563002    -0.461338177635     0.840308338845     1.007825032070
           O         -1.165870563002    -0.786540177635     0.236573338845    15.994914619560
           H         -1.675737563002     0.583989822365    -1.217632661155     1.007825032070
           C          0.066367436998    -0.986133177635    -0.366420661155    12.000000000000
           C          1.058527436998     0.087584822365     0.019638338845    12.000000000000
           H         -0.002856563002    -1.008628177635    -1.448269661155     1.007825032070
           H          0.452661436998    -1.933651177635    -0.020772661155     1.007825032070
           F          2.227359436998    -0.166744177635    -0.550409661155    18.998403224000
           F          0.667292436998     1.285169822365    -0.383543661155    18.998403224000
           F          1.245640436998     0.143416822365     1.322044338845    18.998403224000

  Charge       = 0
  Multiplicity = 1
  Basis Set: 6-31G*
  Basis Set:

    Orbital Energies (a.u.)
    -----------------------

    Doubly Occupied:

       1A    -26.345822     2A    -26.345290     3A    -26.341307
       4A    -20.607408     5A    -11.503995     6A    -11.318775
       7A    -11.298709     8A    -11.216323     9A     -1.742922
      10A     -1.641261    11A     -1.639277    12A     -1.437657
      13A     -1.084369    14A     -1.016581    15A     -0.926213
      16A     -0.837179    17A     -0.832084    18A     -0.824061
      19A     -0.787809    20A     -0.724773    21A     -0.712038
      22A     -0.699094    23A     -0.676212    24A     -0.660106
      25A     -0.655620    26A     -0.644297    27A     -0.630754
      28A     -0.588927    29A     -0.563744    30A     -0.527942
      31A     -0.506761    32A     -0.352066

  @DF-RHF Final Energy:  -527.53565832885545

   => Energetics <=

    Nuclear Repulsion Energy =            412.8449573539431867
    One-Electron Energy =               -1549.3823521584754417
    Two-Electron Energy =                 609.0017364756770348
    DFT Exchange-Correlation Energy =       0.0000000000000000
    Empirical Dispersion Energy =           0.0000000000000000
    PCM Polarization Energy =               0.0000000000000000
    EFP Energy =                            0.0000000000000000
    Total Energy =                       -527.5356583288551064

  Mulliken Charges: (a.u.)
   Center  Symbol    Alpha    Beta     Spin     Total
       1     H     0.40695  0.40695  0.00000  0.18610
       2     C     3.23495  3.23495  0.00000 -0.46990
       3     C     2.89832  2.89832  0.00000  0.20336
       4     H     0.40215  0.40215  0.00000  0.19570
       5     O     4.30257  4.30257  0.00000 -0.60514
       6     H     0.40369  0.40369  0.00000  0.19261
       7     C     3.06477  3.06477  0.00000 -0.12954
       8     C     2.45615  2.45615  0.00000  1.08770
       9     H     0.40469  0.40469  0.00000  0.19062
      10     H     0.38895  0.38895  0.00000  0.22209
      11     F     4.68278  4.68278  0.00000 -0.36557
      12     F     4.67971  4.67971  0.00000 -0.35943
      13     F     4.67430  4.67430  0.00000 -0.34861

   Total alpha = 32.00000, Total beta = 32.00000, Total charge = -0.00000
