                              Psi4 1.0.54 Driver

  ==> Input File <==

--------------------------------------------------------------------------
set {
	reference rhf
	basis cc-pvtz
}

set_num_threads( 4 )
memory 2 gb

molecule MOL {
0 1

H	 1.357854	 -1.360862	 0.008286
C	 0.788062	 -0.429851	 0.010289
N	 -0.537714	 -0.645117	 0.000000
O	 1.323820	 0.632964	 0.020573
C	 -1.522613	 0.412524	 0.000000
H	 -0.845867	 -1.585841	 -0.007983
H	 -2.150256	 0.356137	 -0.880771
H	 -1.005621	 1.357208	 0.000000
H	 -2.150256	 0.356137	 0.880771

	symmetry c1
}
set optking {
	frozen_dihedral = ("
		6 3 5 7
	")
}

ee,wfn = optimize('scf', return_wfn=True)
oeprop( wfn, 'DIPOLE', 'QUADRUPOLE', 'MULLIKEN_CHARGES')
f=open( 'psi4out.xyz', 'w' )
f.write( "9  " )
f.write( str(ee) + "\n" )
f.write( MOL.save_string_xyz() )
f.close()
--------------------------------------------------------------------------

    Molecular point group: c1
  Charge       = 0
  Multiplicity = 1
  Basis Set: CC-PVTZ
  Basis Set:
  @DF-RHF Final Energy:  -208.04356662711626
    Total Energy =                       -208.0435666271162347
    Molecular point group: c1
  Basis Set: CC-PVTZ
  Basis Set:
  Charge       = 0
  Multiplicity = 1
  Basis Set: CC-PVTZ
  Basis Set:

    Orbital Energies (a.u.)
    -----------------------

    Doubly Occupied:

       1A    -20.515811     2A    -15.585161     3A    -11.337656
       4A    -11.259120     5A     -1.393441     6A     -1.239927
       7A     -0.970566     8A     -0.808237     9A     -0.748859
      10A     -0.646331    11A     -0.629214    12A     -0.596976
      13A     -0.554676    14A     -0.542886    15A     -0.428022
      16A     -0.395749

  @DF-RHF Final Energy:  -208.04356693004993

   => Energetics <=

    Nuclear Repulsion Energy =            122.6911186549712909
    One-Electron Energy =                -526.1641055989166489
    Two-Electron Energy =                 195.4294200138952817
    DFT Exchange-Correlation Energy =       0.0000000000000000
    Empirical Dispersion Energy =           0.0000000000000000
    PCM Polarization Energy =               0.0000000000000000
    EFP Energy =                            0.0000000000000000
    Total Energy =                       -208.0435669300500479
    Molecular point group: c1
  Basis Set: CC-PVTZ
  Basis Set:

  -Total Gradient:
     Atom            X                  Y                   Z
    ------   -----------------  -----------------  -----------------
       1        0.000016411064    -0.000023601372    -0.000004246496
       2       -0.000033974604    -0.000125305850     0.000011309569
       3        0.000103956124     0.000054792180     0.000013571747
       4       -0.000073354910     0.000045857597    -0.000012484318
       5       -0.000025589449     0.000033557371     0.000015282396
       6        0.000021650442    -0.000003067570    -0.000018066477
       7        0.000004478445    -0.000008175888     0.000004344629
       8        0.000000846319     0.000015544621    -0.000001373160
       9       -0.000014423427     0.000010398912    -0.000008337891

  **** Optimization is complete! (in 2 steps) ****
    Final optimized geometry and variables:
    Molecular point group: c1

    Geometry (in Angstrom), charge = 0, multiplicity = 1:

    H            1.358475392599    -1.361198297062     0.000198129543
    C            0.788449824536    -0.430106942408     0.002584062304
    N           -0.537441035786    -0.645187786708    -0.007883496940
    O            1.323004285535     0.633246353079     0.013124352013
    C           -1.522253621204     0.412581489541    -0.007611331265
    H           -0.845441697657    -1.586063308992    -0.015870207345
    H           -2.149853397424     0.355950164903    -0.888415639381
    H           -1.005347903043     1.357467066487    -0.007900168448
    H           -2.150200392319     0.356902877997     0.873089793166

  Mulliken Charges: (a.u.)
   Center  Symbol    Alpha    Beta     Spin     Total
       1     H     0.46270  0.46270  0.00000  0.07460
       2     C     2.88099  2.88099  0.00000  0.23801
       3     N     3.60831  3.60831  0.00000 -0.21662
       4     O     4.21535  4.21535  0.00000 -0.43070
       5     C     3.08128  3.08128  0.00000 -0.16256
       6     H     0.40932  0.40932  0.00000  0.18135
       7     H     0.45469  0.45469  0.00000  0.09062
       8     H     0.43264  0.43264  0.00000  0.13472
       9     H     0.45472  0.45472  0.00000  0.09057

   Total alpha = 16.00000, Total beta = 16.00000, Total charge =  0.00000

*** Psi4 exiting successfully. Buy a developer a beer!
