  ==> Input File <==

--------------------------------------------------------------------------
set {
	reference rhf
	basis cc-pvtz
}

set_num_threads( 4 )
memory 2 gb

molecule MOL {
0 1

H	 -0.988015	 -0.318454	 -0.997794
N	 -0.712187	 0.000026	 -0.093397
C	 0.734067	 -0.000020	 0.038424
H	 -1.131302	 -0.611699	 0.574120
H	 1.140372	 -0.872115	 -0.458226
H	 1.140363	 0.872301	 -0.457869
H	 1.095085	 -0.000244	 1.065614

	symmetry c1
}
set optking {
	frozen_dihedral = ("
		1 2 3 7
	")
}

ee = optimize('scf')
oeprop('DIPOLE', 'QUADRUPOLE', 'MULLIKEN_CHARGES')
f=open( 'psi4out.xyz', 'w' )
f.write( "7  " )
f.write( str(ee) + "\n" )
f.write( MOL.save_string_xyz() )
f.close()
--------------------------------------------------------------------------

    Molecular point group: c1
  Charge       = 0
  Multiplicity = 1
  Basis Set: CC-PVTZ
  Basis Set:
  @DF-RHF Final Energy:   -95.25121617099322
    Total Energy =                        -95.2512161709932030
    Molecular point group: c1
  Basis Set: CC-PVTZ
  Basis Set:
  Basis Set: CC-PVTZ
  Basis Set:
  @DF-RHF Final Energy:   -95.25273902091172
    Total Energy =                        -95.2527390209117328
  Basis Set: CC-PVTZ
  Basis Set:
  Basis Set: CC-PVTZ
  Basis Set:
  @DF-RHF Final Energy:   -95.25292890102156
    Total Energy =                        -95.2529289010215194
  Basis Set: CC-PVTZ
  Basis Set:
  Charge       = 0
  Multiplicity = 1
  Basis Set: CC-PVTZ
  Basis Set:

    Orbital Energies (a.u.)
    -----------------------

    Doubly Occupied:

       1A    -15.528809     2A    -11.235740     3A     -1.172210
       4A     -0.897405     5A     -0.664893     6A     -0.603175
       7A     -0.558338     8A     -0.517353     9A     -0.387710

  @DF-RHF Final Energy:   -95.25293037230131

   => Energetics <=

    Nuclear Repulsion Energy =             42.3636167074311558
    One-Electron Energy =                -212.1018242480155322
    Two-Electron Energy =                  74.4852771682831190
    DFT Exchange-Correlation Energy =       0.0000000000000000
    Empirical Dispersion Energy =           0.0000000000000000
    PCM Polarization Energy =               0.0000000000000000
    EFP Energy =                            0.0000000000000000
    Total Energy =                        -95.2529303723012504
    Molecular point group: c1
  Basis Set: CC-PVTZ
  Basis Set:

  -Total Gradient:
     Atom            X                  Y                   Z
    ------   -----------------  -----------------  -----------------
       1       -0.000019626207    -0.002223465973     0.000854292789
       2        0.000200548739     0.002244300509    -0.001024193455
       3       -0.000102045605     0.002133743712     0.000108913137
       4        0.000045740923     0.000023384287     0.000014108832
       5       -0.000015397396    -0.000013578808    -0.000012605607
       6       -0.000035617962     0.000010642870     0.000011110613
       7       -0.000073602493    -0.002175026598     0.000048373690

  **** Optimization is complete! (in 4 steps) ****
    Final optimized geometry and variables:
    Molecular point group: c1

    Geometry (in Angstrom), charge = 0, multiplicity = 1:

    H           -1.021441287943    -0.279548300338    -0.937076524027
    N           -0.717636228364     0.039992066867    -0.041904151672
    C            0.733927968410     0.019453257066     0.051950023142
    H           -1.118327303616    -0.581468826947     0.628032121146
    H            1.195839565209    -0.851877175512    -0.408688651317
    H            1.150042491889     0.904419285017    -0.412929319068
    H            1.026221070559     0.021184633557     1.094333308629

  Mulliken Charges: (a.u.)
   Center  Symbol    Alpha    Beta     Spin     Total
       1     H     0.42981  0.42981  0.00000  0.14038
       2     N     3.68483  3.68483  0.00000 -0.36965
       3     C     3.07085  3.07085  0.00000 -0.14169
       4     H     0.42880  0.42880  0.00000  0.14239
       5     H     0.47149  0.47149  0.00000  0.05702
       6     H     0.45687  0.45687  0.00000  0.08626
       7     H     0.45736  0.45736  0.00000  0.08529

   Total alpha =  9.00000, Total beta =  9.00000, Total charge = -0.00000
