  ==> Input File <==

--------------------------------------------------------------------------
set {
	reference rhf
	basis 6-31G*
}

set_num_threads( 4 )
memory 2 gb

molecule MOL {
0 1

O	 -3.408300	 0.116241	 -0.931597
C	 -2.668563	 0.129746	 -0.000350
C	 -2.977175	 0.812312	 1.307369
O	 -1.481751	 -0.454642	 0.000584
H	 -3.888003	 0.389438	 1.714102
H	 -2.171925	 0.703151	 2.018773
H	 -3.160348	 1.863007	 1.116666
C	 -0.334255	 0.388708	 0.000906
C	 0.891947	 -0.504646	 0.000751
H	 -0.365390	 1.025305	 -0.873475
H	 -0.365484	 1.024911	 0.875569
C	 2.191998	 0.301789	 0.000897
H	 0.855148	 -1.151283	 -0.871571
H	 0.855132	 -1.151660	 0.872805
C	 3.441114	 -0.581407	 0.000108
H	 2.215074	 0.954890	 -0.869742
H	 2.215465	 0.953923	 0.872248
C	 4.739576	 0.224112	 -0.001102
H	 3.419457	 -1.233487	 -0.870178
H	 3.420834	 -1.233096	 0.870717
H	 4.804918	 0.861552	 -0.878265
H	 5.606527	 -0.429058	 -0.001824
H	 4.806469	 0.861674	 0.875853

	symmetry c1
}
set optking {
	frozen_dihedral = ("
		1 2 4 8
	")
}

ee = optimize('scf')
oeprop('DIPOLE', 'QUADRUPOLE', 'MULLIKEN_CHARGES')
f=open( 'psi4out.xyz', 'w' )
f.write( "23  " )
f.write( str(ee) + "\n" )
f.write( MOL.save_string_xyz() )
f.close()
--------------------------------------------------------------------------

    Molecular point group: c1
  Charge       = 0
  Multiplicity = 1
  Basis Set: 6-31G*
  Basis Set:
  @DF-RHF Final Energy:  -422.95695571472652
    Total Energy =                       -422.9569557147262913
    Molecular point group: c1
  Basis Set: 6-31G*
  Basis Set:
  Basis Set: 6-31G*
  Basis Set:
  @DF-RHF Final Energy:  -422.95687182614034
    Total Energy =                       -422.9568718261400591
  Basis Set: 6-31G*
  Basis Set:
  Basis Set: 6-31G*
  Basis Set:
  @DF-RHF Final Energy:  -422.95775754454473
    Total Energy =                       -422.9577575445455295
  Basis Set: 6-31G*
  Basis Set:
  Basis Set: 6-31G*
  Basis Set:
  @DF-RHF Final Energy:  -422.95905710574965
    Total Energy =                       -422.9590571057492525
  Basis Set: 6-31G*
  Basis Set:
  @DF-RHF Final Energy:  -422.95913587607026
    Total Energy =                       -422.9591358760703770
  @DF-RHF Final Energy:  -422.95919202483168
    Total Energy =                       -422.9591920248312817
  @DF-RHF Final Energy:  -422.95936164830050
    Total Energy =                       -422.9593616483008418
  @DF-RHF Final Energy:  -422.95952016727887
    Total Energy =                       -422.9595201672791518
  @DF-RHF Final Energy:  -422.95969747064407
    Total Energy =                       -422.9596974706438459
  @DF-RHF Final Energy:  -422.95975570687455
    Total Energy =                       -422.9597557068741480
  @DF-RHF Final Energy:  -422.95990560747180
    Total Energy =                       -422.9599056074715691
  @DF-RHF Final Energy:  -422.95994697489465
    Total Energy =                       -422.9599469748948195
  @DF-RHF Final Energy:  -422.95997730955276
    Total Energy =                       -422.9599773095530963
  Basis Set: 6-31G*
  Basis Set:
  @DF-RHF Final Energy:  -422.96003295984832
    Total Energy =                       -422.9600329598478083
  Basis Set: 6-31G*
  Basis Set:
  Basis Set: 6-31G*
  Basis Set:
  @DF-RHF Final Energy:  -422.96004728790160
    Total Energy =                       -422.9600472879017161
  Basis Set: 6-31G*
  Basis Set:
  Basis Set: 6-31G*
  Basis Set:
  @DF-RHF Final Energy:  -422.96004852335727
    Total Energy =                       -422.9600485233577274
  Basis Set: 6-31G*
  Basis Set:
  Charge       = 0
  Multiplicity = 1
  Basis Set: 6-31G*
  Basis Set:

    Orbital Energies (a.u.)
    -----------------------

    Doubly Occupied:

       1A    -20.584274     2A    -20.553425     3A    -11.376313
       4A    -11.294587     5A    -11.237905     6A    -11.227678
       7A    -11.226909     8A    -11.223851     9A    -11.215031
      10A     -1.457078    11A     -1.366315    12A     -1.095631
      13A     -1.036150    14A     -1.010449    15A     -0.937307
      16A     -0.844343    17A     -0.805825    18A     -0.775658
      19A     -0.698014    20A     -0.687883    21A     -0.655764
      22A     -0.649021    23A     -0.620349    24A     -0.592151
      25A     -0.579697    26A     -0.577853    27A     -0.565662
      28A     -0.545729    29A     -0.519081    30A     -0.501715
      31A     -0.487147    32A     -0.480121    33A     -0.474365
      34A     -0.473556    35A     -0.452965    36A     -0.433070

  @DF-RHF Final Energy:  -422.96004855428293

   => Energetics <=

    Nuclear Repulsion Energy =            448.9353815997413903
    One-Electron Energy =               -1465.2651120404461835
    Two-Electron Energy =                 593.3696818864218585
    DFT Exchange-Correlation Energy =       0.0000000000000000
    Empirical Dispersion Energy =           0.0000000000000000
    PCM Polarization Energy =               0.0000000000000000
    EFP Energy =                            0.0000000000000000
    Total Energy =                       -422.9600485542829347
    Molecular point group: c1
  Basis Set: 6-31G*
  Basis Set:

  -Total Gradient:
     Atom            X                  Y                   Z
    ------   -----------------  -----------------  -----------------
       1        0.000516501883     0.001006192162    -0.000496547107
       2       -0.000836231836    -0.001459625766     0.000240898950
       3        0.000007644741    -0.000029213135    -0.000018059685
       4        0.000240880203     0.000589356960     0.001254269193
       5        0.000015908580    -0.000007304934    -0.000009309568
       6        0.000003901184    -0.000006574226    -0.000002819819
       7        0.000020177327     0.000011270330    -0.000005811088
       8        0.000084577949    -0.000067611430    -0.000942506468
       9       -0.000010350267    -0.000018918583     0.000026957690
      10       -0.000026388672    -0.000023248021    -0.000000595813
      11       -0.000007620340     0.000000140881    -0.000003378142
      12        0.000005990786     0.000008210730    -0.000012883318
      13        0.000000507513     0.000011106008    -0.000001456082
      14        0.000002246704    -0.000008023504    -0.000005444825
      15        0.000000744739    -0.000007436250    -0.000010232692
      16        0.000002258788    -0.000004347820    -0.000016489286
      17       -0.000010123396     0.000005074171    -0.000012715780
      18       -0.000007836442     0.000004811336     0.000021439288
      19        0.000005894092     0.000007585925    -0.000006200191
      20       -0.000004314001    -0.000010570183    -0.000003350081
      21       -0.000001485247    -0.000004455324    -0.000002271412
      22       -0.000005852967    -0.000002575800     0.000006138038
      23        0.000002968696     0.000006156474     0.000000368200

  **** Optimization is complete! (in 17 steps) ****
    Final optimized geometry and variables:
    Molecular point group: c1

    Geometry (in Angstrom), charge = 0, multiplicity = 1:

    O           -3.368557053239    -0.144223992991    -0.980293015945
    C           -2.710159489035     0.031359548481    -0.015411343564
    C           -3.174012836519     0.817476593904     1.185714204886
    O           -1.481584605972    -0.514969227824     0.099685393085
    H           -4.212484125329     1.086382967778     1.062172295061
    H           -3.043962418468     0.225596615713     2.084415756484
    H           -2.585810708377     1.722037172008     1.299510332049
    C           -0.350309233347     0.339642559844     0.048667060090
    C            0.889266764798    -0.533520274937    -0.005529473892
    H           -0.416733823368     0.968283358498    -0.833631494549
    H           -0.327151710894     0.980987326450     0.924587865695
    C            2.178561608692     0.287634126728    -0.061615513820
    H            0.815242748999    -1.178955987199    -0.875044043273
    H            0.893548227406    -1.179609394675     0.867614392939
    C            3.435429497331    -0.583031165827    -0.115069271637
    H            2.158276316401     0.939071533437    -0.933709085056
    H            2.233981566923     0.941356603849     0.807502725534
    C            4.724449423532     0.235721647498    -0.167760722361
    H            3.384194728870    -1.233664145259    -0.984908073659
    H            3.456932134730    -1.236145428977     0.754346507042
    H            4.748050246893     0.874331380589    -1.046189815441
    H            5.596903914229    -0.408869978731    -0.204416749854
    H            4.820797283675     0.873139631309     0.706657528988

  Mulliken Charges: (a.u.)
   Center  Symbol    Alpha    Beta     Spin     Total
       1     O     4.24810  4.24810  0.00000 -0.49620
       2     C     2.62586  2.62586  0.00000  0.74827
       3     C     3.29490  3.29490  0.00000 -0.58981
       4     O     4.31828  4.31828  0.00000 -0.63657
       5     H     0.39400  0.39400  0.00000  0.21199
       6     H     0.39962  0.39962  0.00000  0.20075
       7     H     0.40532  0.40532  0.00000  0.18935
       8     C     2.99489  2.99489  0.00000  0.01021
       9     C     3.16240  3.16240  0.00000 -0.32479
      10     H     0.41598  0.41598  0.00000  0.16803
      11     H     0.42384  0.42384  0.00000  0.15232
      12     C     3.16122  3.16122  0.00000 -0.32244
      13     H     0.40776  0.40776  0.00000  0.18449
      14     H     0.41240  0.41240  0.00000  0.17520
      15     C     3.15171  3.15171  0.00000 -0.30342
      16     H     0.42087  0.42087  0.00000  0.15825
      17     H     0.42283  0.42283  0.00000  0.15433
      18     C     3.24001  3.24001  0.00000 -0.48001
      19     H     0.41967  0.41967  0.00000  0.16066
      20     H     0.42087  0.42087  0.00000  0.15827
      21     H     0.42075  0.42075  0.00000  0.15850
      22     H     0.41723  0.41723  0.00000  0.16554
      23     H     0.42147  0.42147  0.00000  0.15706

   Total alpha = 36.00000, Total beta = 36.00000, Total charge = -0.00000
