  ==> Input File <==

--------------------------------------------------------------------------
set {
	reference rhf
	basis 6-31G*
}

set_num_threads( 4 )
memory 2 gb

molecule MOL {
0 1

H	 0.270894	 -3.295730	 -1.532300
O	 0.466378	 -2.594242	 -0.918714
C	 -0.544511	 -1.726511	 -0.946590
C	 -0.318135	 -0.576402	 0.000164
O	 -1.490554	 -1.880138	 -1.648301
C	 -1.454360	 0.441875	 -0.000474
H	 -0.166089	 -0.996960	 0.990627
H	 0.626446	 -0.113307	 -0.272440
C	 -2.826123	 -0.230780	 0.000056
H	 -1.357605	 1.085198	 -0.868380
H	 -1.357504	 1.086451	 0.866496
H	 -2.959731	 -0.858053	 -0.876869
H	 -3.619374	 0.509403	 -0.000080
H	 -2.959371	 -0.857318	 0.877556

	symmetry c1
}
set optking {
	frozen_dihedral = ("
		7 4 6 10
	")
}

ee = optimize('scf')
oeprop('DIPOLE', 'QUADRUPOLE', 'MULLIKEN_CHARGES')
f=open( 'psi4out.xyz', 'w' )
f.write( "14  " )
f.write( str(ee) + "\n" )
f.write( MOL.save_string_xyz() )
f.close()
--------------------------------------------------------------------------

    Molecular point group: c1
  Charge       = 0
  Multiplicity = 1
  Basis Set: 6-31G*
  Basis Set:
  @DF-RHF Final Energy:  -305.86849269469701
    Total Energy =                       -305.8684926946970108
    Molecular point group: c1
  Basis Set: 6-31G*
  Basis Set:
  Basis Set: 6-31G*
  Basis Set:
  @DF-RHF Final Energy:  -305.87574619474458
    Total Energy =                       -305.8757461947445790
  Basis Set: 6-31G*
  Basis Set:
  Basis Set: 6-31G*
  Basis Set:
  @DF-RHF Final Energy:  -305.87699215194880
    Total Energy =                       -305.8769921519489117
  Basis Set: 6-31G*
  Basis Set:
  Basis Set: 6-31G*
  Basis Set:
  @DF-RHF Final Energy:  -305.87470788687693
    Total Energy =                       -305.8747078868772178
  Basis Set: 6-31G*
  Basis Set:
  @DF-RHF Final Energy:  -305.87769526350036
    Total Energy =                       -305.8776952635002431
  @DF-RHF Final Energy:  -305.87797318123762
    Total Energy =                       -305.8779731812376781
  Basis Set: 6-31G*
  Basis Set:
  @DF-RHF Final Energy:  -305.87805655984175
    Total Energy =                       -305.8780565598418093
  Basis Set: 6-31G*
  Basis Set:
  Basis Set: 6-31G*
  Basis Set:
  @DF-RHF Final Energy:  -305.87811587137327
    Total Energy =                       -305.8781158713731543
  Basis Set: 6-31G*
  Basis Set:
  Basis Set: 6-31G*
  Basis Set:
  @DF-RHF Final Energy:  -305.87812258621977
    Total Energy =                       -305.8781225862198312
  Basis Set: 6-31G*
  Basis Set:
  Charge       = 0
  Multiplicity = 1
  Basis Set: 6-31G*
  Basis Set:

    Orbital Energies (a.u.)
    -----------------------

    Doubly Occupied:

       1A    -20.614412     2A    -20.551412     3A    -11.382744
       4A    -11.241530     5A    -11.228517     6A    -11.209732
       7A     -1.476021     8A     -1.366355     9A     -1.080585
      10A     -0.976421    11A     -0.863300    12A     -0.787457
      13A     -0.702716    14A     -0.688971    15A     -0.658658
      16A     -0.614592    17A     -0.593252    18A     -0.567635
      19A     -0.554603    20A     -0.500255    21A     -0.489612
      22A     -0.483409    23A     -0.476131    24A     -0.441164

  @DF-RHF Final Energy:  -305.87812369505252

   => Energetics <=

    Nuclear Repulsion Energy =            244.9074766890855415
    One-Electron Energy =                -902.4722326907137813
    Two-Electron Energy =                 351.6866323065756319
    DFT Exchange-Correlation Energy =       0.0000000000000000
    Empirical Dispersion Energy =           0.0000000000000000
    PCM Polarization Energy =               0.0000000000000000
    EFP Energy =                            0.0000000000000000
    Total Energy =                       -305.8781236950525795
    Molecular point group: c1
  Basis Set: 6-31G*
  Basis Set:

  -Total Gradient:
     Atom            X                  Y                   Z
    ------   -----------------  -----------------  -----------------
       1       -0.000013519198     0.000029305495    -0.000000305168
       2        0.000040054050    -0.000043321204     0.000052581412
       3        0.000013552053    -0.000022446659    -0.000065777682
       4       -0.003627462774    -0.004204363968    -0.000598778605
       5       -0.000023115939     0.000025777739     0.000014079112
       6       -0.002701085528    -0.003172017446    -0.003069714427
       7        0.003399139240     0.003977171735     0.000994186616
       8        0.000008565063    -0.000001178463    -0.000022673113
       9       -0.000000220192    -0.000007815536     0.000023613924
      10        0.002932405122     0.003437896907     0.002689541350
      11       -0.000020598616    -0.000008284825    -0.000000262943
      12       -0.000004601185     0.000001227253    -0.000010192987
      13        0.000003802021    -0.000006154930    -0.000007770695
      14       -0.000006914120    -0.000005796098     0.000001473208

  **** Optimization is complete! (in 10 steps) ****
    Final optimized geometry and variables:
    Molecular point group: c1

    Geometry (in Angstrom), charge = 0, multiplicity = 1:

    H            1.216350861721    -2.270688455254    -0.748399144116
    O            1.282506570913    -1.622491774723    -0.053720382424
    C            0.539698615046    -0.572491962957    -0.397702706246
    C            0.638003250376     0.543547591667     0.608592964758
    O           -0.077411146983    -0.541072595957    -1.413158084538
    C           -0.528859614849     1.536215960702     0.607788325292
    H            0.819263589410     0.140881950671     1.598276676537
    H            1.554998223475     1.073331982229     0.354189661323
    C           -1.915136781511     0.907985784420     0.739759947587
    H           -0.465985768752     2.170243681055    -0.269886393038
    H           -0.365324636804     2.201926745963     1.451895243371
    H           -2.160986298076     0.301255342924    -0.121757509228
    H           -2.671708425501     1.680328022138     0.833336360112
    H           -1.974794396482     0.282001575688     1.626710255863

  Mulliken Charges: (a.u.)
   Center  Symbol    Alpha    Beta     Spin     Total
       1     H     0.26792  0.26792  0.00000  0.46415
       2     O     4.34964  4.34964  0.00000 -0.69929
       3     C     2.62180  2.62180  0.00000  0.75639
       4     C     3.21402  3.21402  0.00000 -0.42804
       5     O     4.28125  4.28125  0.00000 -0.56251
       6     C     3.15004  3.15004  0.00000 -0.30009
       7     H     0.39847  0.39847  0.00000  0.20305
       8     H     0.39632  0.39632  0.00000  0.20736
       9     C     3.24987  3.24987  0.00000 -0.49974
      10     H     0.41020  0.41020  0.00000  0.17960
      11     H     0.41795  0.41795  0.00000  0.16410
      12     H     0.40126  0.40126  0.00000  0.19747
      13     H     0.41763  0.41763  0.00000  0.16475
      14     H     0.42360  0.42360  0.00000  0.15279

   Total alpha = 24.00000, Total beta = 24.00000, Total charge =  0.00000
