                              Psi4 1.0.54 Driver

  ==> Input File <==

--------------------------------------------------------------------------
set {
	reference rhf
	basis cc-pvtz
}

set_num_threads( 4 )
memory 2 gb

molecule MOL {
0 1

O	 3.219313	 0.959291	 -0.614106
C	 2.698710	 0.058177	 -0.050237
C	 1.246364	 -0.005813	 0.348416
O	 3.344101	 -1.038700	 0.312317
C	 0.453207	 1.232821	 -0.049003
H	 0.839270	 -0.907818	 -0.092281
H	 1.216683	 -0.160521	 1.422434
C	 -0.998367	 1.217982	 0.432195
H	 0.481498	 1.345443	 -1.127236
H	 0.951413	 2.105557	 0.354893
C	 -1.882951	 0.151251	 -0.211235
H	 -1.429490	 2.193659	 0.228843
H	 -1.019755	 1.099323	 1.513279
C	 -3.342450	 0.243269	 0.226009
H	 -1.826223	 0.246578	 -1.293162
H	 -1.508033	 -0.839650	 0.027695
C	 -3.649024	 -0.552198	 1.491717
H	 -3.981529	 -0.107877	 -0.580598
H	 -3.603883	 1.286553	 0.387491
C	 -5.109267	 -0.456806	 1.921096
H	 -3.388497	 -1.594926	 1.331823
H	 -3.013042	 -0.200552	 2.299634
H	 -5.292645	 -1.031771	 2.821524
H	 -5.769976	 -0.834193	 1.147693
H	 -5.391751	 0.571294	 2.122147
C	 4.720529	 -1.114346	 0.001449
H	 4.874321	 -1.055557	 -1.065852
H	 5.057824	 -2.067950	 0.373977
H	 5.264321	 -0.313596	 0.480350

	symmetry c1
}
set optking {
	frozen_dihedral = ("
		17 14 11 15
	")
}

ee,wfn = optimize('scf', return_wfn=True)
oeprop( wfn, 'DIPOLE', 'QUADRUPOLE', 'MULLIKEN_CHARGES')
f=open( 'psi4out.xyz', 'w' )
f.write( "29  " )
f.write( str(ee) + "\n" )
f.write( MOL.save_string_xyz() )
f.close()
--------------------------------------------------------------------------

    Molecular point group: c1
  Charge       = 0
  Multiplicity = 1
  Basis Set: CC-PVTZ
  Basis Set:
  @DF-RHF Final Energy:  -501.22171307662677
    Total Energy =                       -501.2217130766264290
    Molecular point group: c1
  Basis Set: CC-PVTZ
  Basis Set:
  Basis Set: CC-PVTZ
  Basis Set:
  @DF-RHF Final Energy:  -501.22191032685453
    Total Energy =                       -501.2219103268548679
  Basis Set: CC-PVTZ
  Basis Set:
  Basis Set: CC-PVTZ
  Basis Set:
  @DF-RHF Final Energy:  -501.22197197019545
    Total Energy =                       -501.2219719701953409
  Basis Set: CC-PVTZ
  Basis Set:
  Basis Set: CC-PVTZ
  Basis Set:
  @DF-RHF Final Energy:  -501.22184505858525
    Total Energy =                       -501.2218450585858136
  Basis Set: CC-PVTZ
  Basis Set:
  Basis Set: CC-PVTZ
  Basis Set:
  @DF-RHF Final Energy:  -501.22199131479942
    Total Energy =                       -501.2219913147996522
  Basis Set: CC-PVTZ
  Basis Set:
  Basis Set: CC-PVTZ
  Basis Set:
  @DF-RHF Final Energy:  -501.22199313685724
    Total Energy =                       -501.2219931368572361
  Basis Set: CC-PVTZ
  Basis Set:
  Charge       = 0
  Multiplicity = 1
  Basis Set: CC-PVTZ
  Basis Set:

    Orbital Energies (a.u.)
    -----------------------

    Doubly Occupied:

       1A    -20.596000     2A    -20.533834     3A    -11.364246
       4A    -11.278244     5A    -11.232947     6A    -11.217057
       7A    -11.215662     8A    -11.214377     9A    -11.213664
      10A    -11.212369    11A    -11.207333    12A     -1.471938
      13A     -1.365500    14A     -1.099038    15A     -1.067379
      16A     -1.019662    17A     -0.977869    18A     -0.929469
      19A     -0.862361    20A     -0.810030    21A     -0.784101
      22A     -0.765146    23A     -0.702864    24A     -0.685466
      25A     -0.675829    26A     -0.637282    27A     -0.631698
      28A     -0.614929    29A     -0.597277    30A     -0.581743
      31A     -0.562278    32A     -0.557006    33A     -0.542868
      34A     -0.526286    35A     -0.515010    36A     -0.511827
      37A     -0.495702    38A     -0.482502    39A     -0.473697
      40A     -0.461193    41A     -0.458609    42A     -0.447825
      43A     -0.446933    44A     -0.438926

  @DF-RHF Final Energy:  -501.22199428251031

   => Energetics <=

    Nuclear Repulsion Energy =            616.1614807060317389
    One-Electron Energy =               -1903.7950033482636627
    Two-Electron Energy =                 786.4115283597216148
    DFT Exchange-Correlation Energy =       0.0000000000000000
    Empirical Dispersion Energy =           0.0000000000000000
    PCM Polarization Energy =               0.0000000000000000
    EFP Energy =                            0.0000000000000000
    Total Energy =                       -501.2219942825104226
    Molecular point group: c1
  Basis Set: CC-PVTZ
  Basis Set:

  -Total Gradient:
     Atom            X                  Y                   Z
    ------   -----------------  -----------------  -----------------
       1       -0.000039858582    -0.000058869467     0.000052470624
       2        0.000050788496    -0.000008225493    -0.000040430098
       3        0.000022697459     0.000007973641     0.000006408593
       4       -0.000013418022     0.000046896228    -0.000014361643
       5       -0.000000684173    -0.000006829182    -0.000030236702
       6        0.000011701362     0.000022152579     0.000006933222
       7       -0.000000949348    -0.000000639477    -0.000013324971
       8        0.000008488935    -0.000006938990     0.000025472274
       9        0.000004656960    -0.000000865806     0.000018890805
      10       -0.000002636151    -0.000016736783    -0.000004247238
      11        0.000060281795     0.002818162668    -0.000068642448
      12        0.000007154234    -0.000001124087    -0.000002853158
      13       -0.000001235453     0.000005685584     0.000004867543
      14        0.000566175180     0.001650362842     0.001606730763
      15       -0.000203278248    -0.002825974381    -0.000350589856
      16       -0.000008710872     0.000004481001     0.000000463977
      17       -0.000432697431    -0.001633002656    -0.001186468322
      18        0.000001220681     0.000004110681    -0.000002929519
      19        0.000004552155    -0.000006500948    -0.000000587840
      20        0.000000428239    -0.000013152596    -0.000015512839
      21       -0.000006351136     0.000004209476     0.000001274677
      22        0.000003342025    -0.000001577401     0.000002476313
      23        0.000002791180    -0.000001768557    -0.000002032407
      24       -0.000005045556     0.000001342018     0.000000721438
      25        0.000007674174    -0.000000738391    -0.000000897575
      26        0.000025925521     0.000025753373    -0.000013695110
      27       -0.000021850483     0.000004777041     0.000027905790
      28       -0.000016784621    -0.000000316199     0.000003275063
      29       -0.000024378318    -0.000012646714    -0.000011081357

  **** Optimization is complete! (in 7 steps) ****
    Final optimized geometry and variables:
    Molecular point group: c1

    Geometry (in Angstrom), charge = 0, multiplicity = 1:

    O            3.115045594973     0.893411420476    -0.963494349036
    C            2.584710649238     0.005189928221    -0.388413031821
    C            1.130562925713    -0.040392541233     0.006154610295
    O            3.219337775978    -1.091813072277    -0.007945679394
    C            0.349989266261     1.199836108721    -0.410944928927
    H            0.717192289377    -0.945032117807    -0.422949850338
    H            1.096073189537    -0.179720972979     1.082082755997
    C           -1.104276529263     1.204635560486     0.062652067439
    H            0.384894373376     1.299321129251    -1.490281839709
    H            0.854064755889     2.072791484365    -0.014880645693
    C           -2.001957771167     0.160418034766    -0.600658372150
    H           -1.519241889037     2.187959583845    -0.136524398404
    H           -1.131176785992     1.079867731134     1.142395900972
    C           -3.459802348952     0.202743407237    -0.124096580444
    H           -1.968610959875     0.290168959158    -1.678438401650
    H           -1.610639655593    -0.836530283420    -0.419410118740
    C           -3.730719967570    -0.636113432176     1.123843015705
    H           -4.104044248990    -0.160156336489    -0.919785159703
    H           -3.756410122473     1.232838012361     0.055348905467
    C           -5.176950409443    -0.548337175742     1.599426466698
    H           -3.484084752104    -1.672438132126     0.910992640029
    H           -3.070881627442    -0.325536235919     1.929076349785
    H           -5.341340295199    -1.166386353441     2.474666374265
    H           -5.863260810028    -0.879616755341     0.827042529592
    H           -5.442212753954     0.470902227830     1.859803928169
    C            4.596036184915    -1.183702475205    -0.313144855817
    H            4.753594214810    -1.141416123755    -1.380635434275
    H            4.923893942390    -2.134760014246     0.074030785610
    H            5.145105272185    -0.380866386454     0.156064881058

  Mulliken Charges: (a.u.)
   Center  Symbol    Alpha    Beta     Spin     Total
       1     O     4.19697  4.19697  0.00000 -0.39394
       2     C     2.80460  2.80460  0.00000  0.39080
       3     C     3.10204  3.10204  0.00000 -0.20408
       4     O     4.14719  4.14719  0.00000 -0.29438
       5     C     3.09226  3.09226  0.00000 -0.18451
       6     H     0.43922  0.43922  0.00000  0.12156
       7     H     0.43981  0.43981  0.00000  0.12038
       8     C     3.10237  3.10237  0.00000 -0.20474
       9     H     0.44614  0.44614  0.00000  0.10771
      10     H     0.43955  0.43955  0.00000  0.12090
      11     C     3.10297  3.10297  0.00000 -0.20593
      12     H     0.44469  0.44469  0.00000  0.11062
      13     H     0.45330  0.45330  0.00000  0.09341
      14     C     3.09406  3.09406  0.00000 -0.18812
      15     H     0.44515  0.44515  0.00000  0.10970
      16     H     0.45490  0.45490  0.00000  0.09021
      17     C     3.08204  3.08204  0.00000 -0.16407
      18     H     0.44768  0.44768  0.00000  0.10464
      19     H     0.45483  0.45483  0.00000  0.09034
      20     C     3.15040  3.15040  0.00000 -0.30080
      21     H     0.45489  0.45489  0.00000  0.09022
      22     H     0.45526  0.45526  0.00000  0.08948
      23     H     0.44843  0.44843  0.00000  0.10314
      24     H     0.45474  0.45474  0.00000  0.09052
      25     H     0.45456  0.45456  0.00000  0.09089
      26     C     3.03816  3.03816  0.00000 -0.07632
      27     H     0.45434  0.45434  0.00000  0.09133
      28     H     0.44527  0.44527  0.00000  0.10946
      29     H     0.45421  0.45421  0.00000  0.09157

   Total alpha = 44.00000, Total beta = 44.00000, Total charge = -0.00000

*** Psi4 exiting successfully. Buy a developer a beer!
