  ==> Input File <==

--------------------------------------------------------------------------
set {
	reference rhf
	basis cc-pvtz
}

set_num_threads( 4 )
memory 2 gb

molecule MOL {
0 1

H	 -2.230928	 0.828079	 2.265870
C	 -1.638909	 0.402589	 3.072936
O	 -0.398198	 -0.026795	 2.621486
H	 -1.473212	 1.163919	 3.821140
H	 -2.204842	 -0.411523	 3.522185
C	 -0.453127	 -1.022455	 1.653354
C	 0.938459	 -1.335386	 1.163552
H	 -0.893172	 -1.928923	 2.068860
H	 -1.066060	 -0.707495	 0.811603
O	 1.401606	 -0.295166	 0.366636
H	 1.593272	 -1.485776	 2.019142
H	 0.911499	 -2.264106	 0.593707
C	 2.714315	 -0.441627	 -0.061017
H	 2.765292	 -0.641548	 -1.128869
H	 3.305661	 0.447341	 0.150952
H	 3.143725	 -1.278506	 0.470147

	symmetry c1
}
set optking {
	frozen_dihedral = ("
		7 10 13 14
	")
}

ee = optimize('scf')
oeprop('DIPOLE', 'QUADRUPOLE', 'MULLIKEN_CHARGES')
f=open( 'psi4out.xyz', 'w' )
f.write( "16  " )
f.write( str(ee) + "\n" )
f.write( MOL.save_string_xyz() )
f.close()
--------------------------------------------------------------------------

    Molecular point group: c1
  Charge       = 0
  Multiplicity = 1
  Basis Set: CC-PVTZ
  Basis Set:
  @DF-RHF Final Energy:  -307.09333308109530
    Total Energy =                       -307.0933330810954089
    Molecular point group: c1
  Basis Set: CC-PVTZ
  Basis Set:
  Basis Set: CC-PVTZ
  Basis Set:
  @DF-RHF Final Energy:  -307.09426219971209
    Total Energy =                       -307.0942621997121478
  Basis Set: CC-PVTZ
  Basis Set:
  Basis Set: CC-PVTZ
  Basis Set:
  @DF-RHF Final Energy:  -307.09454299400937
    Total Energy =                       -307.0945429940094300
  Basis Set: CC-PVTZ
  Basis Set:
  Basis Set: CC-PVTZ
  Basis Set:
  @DF-RHF Final Energy:  -307.09454582468027
    Total Energy =                       -307.0945458246803241
  Basis Set: CC-PVTZ
  Basis Set:
  Charge       = 0
  Multiplicity = 1
  Basis Set: CC-PVTZ
  Basis Set:

    Orbital Energies (a.u.)
    -----------------------

    Doubly Occupied:

       1A    -20.547428     2A    -20.544398     3A    -11.267800
       4A    -11.266571     5A    -11.261342     6A    -11.261050
       7A     -1.389616     8A     -1.371621     9A     -1.031771
      10A     -0.937314    11A     -0.892116    12A     -0.823946
      13A     -0.684835    14A     -0.681107    15A     -0.658816
      16A     -0.636543    17A     -0.630254    18A     -0.597583
      19A     -0.554291    20A     -0.537712    21A     -0.509064
      22A     -0.479211    23A     -0.463851    24A     -0.421077
      25A     -0.410208

  @DF-RHF Final Energy:  -307.09454603416515

   => Energetics <=

    Nuclear Repulsion Energy =            258.6447662355465695
    One-Electron Energy =                -931.7595756532016367
    Two-Electron Energy =                 366.0202633834901462
    DFT Exchange-Correlation Energy =       0.0000000000000000
    Empirical Dispersion Energy =           0.0000000000000000
    PCM Polarization Energy =               0.0000000000000000
    EFP Energy =                            0.0000000000000000
    Total Energy =                       -307.0945460341649778
    Molecular point group: c1
  Basis Set: CC-PVTZ
  Basis Set:

  -Total Gradient:
     Atom            X                  Y                   Z
    ------   -----------------  -----------------  -----------------
       1        0.000000309211    -0.000000518258    -0.000000242497
       2       -0.000000896533     0.000001288586     0.000002922243
       3        0.000004152873    -0.000003777893    -0.000001584322
       4       -0.000001452151     0.000000601274     0.000000209557
       5        0.000000477101    -0.000000011873    -0.000000788131
       6       -0.000004545270    -0.000004511866    -0.000002008657
       7        0.000379894963     0.000578413058     0.001038475710
       8       -0.000002598690    -0.000000799802     0.000002397795
       9        0.000003330144    -0.000002793835    -0.000001538498
      10       -0.000535141343    -0.000426127888    -0.001556572896
      11        0.000002440149    -0.000000985264     0.000002852829
      12        0.000001370931     0.000010517250    -0.000001178344
      13        0.000077506384    -0.001652264997     0.000772992623
      14        0.000058098831     0.001503865086    -0.000255593662
      15        0.000010758581    -0.000001739577    -0.000001757384
      16        0.000006294816    -0.000001153999     0.000001413636

  **** Optimization is complete! (in 5 steps) ****
    Final optimized geometry and variables:
    Molecular point group: c1

    Geometry (in Angstrom), charge = 0, multiplicity = 1:

    H           -2.644264392680     1.302701933817     0.785434170646
    C           -2.062323482986     0.868140695960     1.594985672774
    O           -0.826311053779     0.420171107258     1.148923756313
    H           -1.888544767967     1.626701203911     2.344186452742
    H           -2.642546614809     0.062578321365     2.041484488806
    C           -0.891953120938    -0.574189297360     0.180116561868
    C            0.496774758588    -0.907181724387    -0.304702903800
    H           -1.345838493276    -1.474723606328     0.593893708910
    H           -1.497669017901    -0.250438217541    -0.663414480454
    O            0.976814084174     0.133009310232    -1.093171116792
    H            1.143156170085    -1.070708801601     0.553792816717
    H            0.453940218144    -1.833703180747    -0.876796294918
    C            2.295278542536     0.014653314172    -1.529932861884
    H            2.324709224739    -0.168939472367    -2.599203736902
    H            2.817723800312     0.942201751347    -1.330790302768
    H            2.822306638564    -0.787890659256    -1.024566115616

  Mulliken Charges: (a.u.)
   Center  Symbol    Alpha    Beta     Spin     Total
       1     H     0.47017  0.47017  0.00000  0.05966
       2     C     3.03201  3.03201  0.00000 -0.06402
       3     O     4.17033  4.17033  0.00000 -0.34066
       4     H     0.44646  0.44646  0.00000  0.10707
       5     H     0.47375  0.47375  0.00000  0.05250
       6     C     2.96334  2.96334  0.00000  0.07332
       7     C     2.95874  2.95874  0.00000  0.08251
       8     H     0.47623  0.47623  0.00000  0.04753
       9     H     0.47109  0.47109  0.00000  0.05782
      10     O     4.17479  4.17479  0.00000 -0.34958
      11     H     0.47003  0.47003  0.00000  0.05994
      12     H     0.47663  0.47663  0.00000  0.04674
      13     C     3.02742  3.02742  0.00000 -0.05484
      14     H     0.46185  0.46185  0.00000  0.07629
      15     H     0.45362  0.45362  0.00000  0.09276
      16     H     0.47352  0.47352  0.00000  0.05296

   Total alpha = 25.00000, Total beta = 25.00000, Total charge = -0.00000
