  ==> Input File <==

--------------------------------------------------------------------------
set {
	reference rhf
	basis 6-31G*
}

set_num_threads( 1 )
memory 2 gb

molecule MOL {
0 1

H	 3.276176	 0.174363	 -0.109463
N	 2.434251	 -0.367735	 -0.081097
C	 1.267428	 0.496480	 0.024474
H	 2.501951	 -0.965776	 0.720575
C	 -0.016086	 -0.325158	 -0.029487
H	 1.288818	 1.183521	 -0.816092
H	 1.267576	 1.109062	 0.929528
C	 -1.282277	 0.529072	 0.046735
H	 -0.012495	 -0.908639	 -0.945788
H	 -0.015903	 -1.041248	 0.791956
C	 -1.449791	 1.224429	 1.397335
H	 -2.151352	 -0.096914	 -0.145193
H	 -1.264929	 1.277228	 -0.743151
H	 -1.505918	 0.500997	 2.205552
H	 -2.356386	 1.821034	 1.423226
H	 -0.612742	 1.885320	 1.604197

	symmetry c1
}
set optking {
	frozen_dihedral = ("
		6 3 5 9,
		1 2 3 6
	")
}

ee = energy('scf')
oeprop('DIPOLE', 'QUADRUPOLE', 'MULLIKEN_CHARGES')
f=open( 'psi4out.xyz', 'w' )
f.write( "16  " )
f.write( str(ee) + "\n" )
f.write( MOL.save_string_xyz() )
f.close()
--------------------------------------------------------------------------

    Molecular point group: c1

    Geometry (in Angstrom), charge = 0, multiplicity = 1:

       Center              X                  Y                   Z               Mass
    ------------   -----------------  -----------------  -----------------  -----------------
           H          3.047190892931    -0.139309428929    -0.397972124004     1.007825032070
           N          2.205265892931    -0.681407428929    -0.369606124004    14.003074004780
           C          1.038442892931     0.182807571071    -0.264035124004    12.000000000000
           H          2.272965892931    -1.279448428929     0.432065875996     1.007825032070
           C         -0.245071107069    -0.638830428929    -0.317996124004    12.000000000000
           H          1.059832892931     0.869848571071    -1.104601124004     1.007825032070
           H          1.038590892931     0.795389571071     0.641018875996     1.007825032070
           C         -1.511262107069     0.215399571071    -0.241774124004    12.000000000000
           H         -0.241480107069    -1.222311428929    -1.234297124004     1.007825032070
           H         -0.244888107069    -1.354920428929     0.503446875996     1.007825032070
           C         -1.678776107069     0.910756571071     1.108825875996    12.000000000000
           H         -2.380337107069    -0.410586428929    -0.433702124004     1.007825032070
           H         -1.493914107069     0.963555571071    -1.031660124004     1.007825032070
           H         -1.734903107069     0.187324571071     1.917042875996     1.007825032070
           H         -2.585371107069     1.507361571071     1.134716875996     1.007825032070
           H         -0.841727107069     1.571647571071     1.315687875996     1.007825032070

  Charge       = 0
  Multiplicity = 1
  Basis Set: 6-31G*
  Basis Set:

    Orbital Energies (a.u.)
    -----------------------

    Doubly Occupied:

       1A    -15.532407     2A    -11.239224     3A    -11.215114
       4A    -11.209579     5A    -11.208393     6A     -1.176637
       7A     -1.060981     8A     -0.954349     9A     -0.857370
      10A     -0.781668    11A     -0.657000    12A     -0.638109
      13A     -0.621137    14A     -0.565626    15A     -0.563578
      16A     -0.534840    17A     -0.500125    18A     -0.467438
      19A     -0.465216    20A     -0.462061    21A     -0.379526

  @DF-RHF Final Energy:  -212.31457168515902

   => Energetics <=

    Nuclear Repulsion Energy =            189.3404446171607560
    One-Electron Energy =                -661.1292249876612459
    Two-Electron Energy =                 259.4742086853416367
    DFT Exchange-Correlation Energy =       0.0000000000000000
    Empirical Dispersion Energy =           0.0000000000000000
    PCM Polarization Energy =               0.0000000000000000
    EFP Energy =                            0.0000000000000000
    Total Energy =                       -212.3145716851588531

  Mulliken Charges: (a.u.)
   Center  Symbol    Alpha    Beta     Spin     Total
       1     H     0.33256  0.33256  0.00000  0.33487
       2     N     3.92169  3.92169  0.00000 -0.84338
       3     C     3.06249  3.06249  0.00000 -0.12498
       4     H     0.33537  0.33537  0.00000  0.32926
       5     C     3.15217  3.15217  0.00000 -0.30434
       6     H     0.42110  0.42110  0.00000  0.15780
       7     H     0.43250  0.43250  0.00000  0.13500
       8     C     3.15703  3.15703  0.00000 -0.31407
       9     H     0.41133  0.41133  0.00000  0.17735
      10     H     0.42806  0.42806  0.00000  0.14388
      11     C     3.24204  3.24204  0.00000 -0.48407
      12     H     0.41918  0.41918  0.00000  0.16164
      13     H     0.42260  0.42260  0.00000  0.15481
      14     H     0.42211  0.42211  0.00000  0.15578
      15     H     0.41882  0.41882  0.00000  0.16235
      16     H     0.42094  0.42094  0.00000  0.15811

   Total alpha = 21.00000, Total beta = 21.00000, Total charge =  0.00000
