  ==> Input File <==

--------------------------------------------------------------------------
set {
	reference rhf
	basis 6-31G*
}

set_num_threads( 1 )
memory 2 gb

molecule MOL {
0 1

H	 -3.420663	 1.227371	 -1.044276
O	 -3.452007	 0.283848	 -0.965577
C	 -3.181085	 -0.079926	 0.364119
C	 -1.765924	 0.277073	 0.805136
H	 -3.327791	 -1.152017	 0.410903
H	 -3.905698	 0.375695	 1.036898
C	 -0.677594	 -0.417312	 -0.014550
H	 -1.637766	 1.358238	 0.744969
H	 -1.659588	 0.017670	 1.857098
C	 0.423863	 0.537029	 -0.480602
H	 -1.132147	 -0.900163	 -0.874170
H	 -0.236379	 -1.212549	 0.584049
C	 1.512653	 -0.166343	 -1.295397
H	 -0.024392	 1.333829	 -1.069326
H	 0.878356	 1.016165	 0.385694
C	 2.684329	 0.731110	 -1.710013
H	 1.067014	 -0.607860	 -2.185433
H	 1.904002	 -0.995773	 -0.709985
C	 2.316056	 1.844061	 -2.692928
H	 3.452188	 0.107800	 -2.161861
H	 3.134212	 1.168730	 -0.821026
H	 1.852085	 1.436693	 -3.587311
H	 3.199987	 2.393782	 -3.001651
H	 1.625066	 2.558477	 -2.257834

	symmetry c1
}
set optking {
	frozen_dihedral = ("
		20 16 13 17,
		17 13 10 7,
		13 10 7 11,
		1 2 3 5,
		7 4 3 2
	")
}

ee = energy('scf')
oeprop('DIPOLE', 'QUADRUPOLE', 'MULLIKEN_CHARGES')
f=open( 'psi4out.xyz', 'w' )
f.write( "24  " )
f.write( str(ee) + "\n" )
f.write( MOL.save_string_xyz() )
f.close()
--------------------------------------------------------------------------

    Molecular point group: c1

    Geometry (in Angstrom), charge = 0, multiplicity = 1:

       Center              X                  Y                   Z               Mass
    ------------   -----------------  -----------------  -----------------  -----------------
           H         -3.096131313751     0.836068396035    -0.281895349975     1.007825032070
           O         -3.127475313751    -0.107454603965    -0.203196349975    15.994914619560
           C         -2.856553313751    -0.471228603965     1.126499650025    12.000000000000
           C         -1.441392313751    -0.114229603965     1.567516650025    12.000000000000
           H         -3.003259313751    -1.543319603965     1.173283650025     1.007825032070
           H         -3.581166313751    -0.015607603965     1.799278650025     1.007825032070
           C         -0.353062313751    -0.808614603965     0.747830650025    12.000000000000
           H         -1.313234313751     0.966935396035     1.507349650025     1.007825032070
           H         -1.335056313751    -0.373632603965     2.619478650025     1.007825032070
           C          0.748394686249     0.145726396035     0.281778650025    12.000000000000
           H         -0.807615313751    -1.291465603965    -0.111789349975     1.007825032070
           H          0.088152686249    -1.603851603965     1.346429650025     1.007825032070
           C          1.837184686249    -0.557645603965    -0.533016349975    12.000000000000
           H          0.300139686249     0.942526396035    -0.306945349975     1.007825032070
           H          1.202887686249     0.624862396035     1.148074650025     1.007825032070
           C          3.008860686249     0.339807396035    -0.947632349975    12.000000000000
           H          1.391545686249    -0.999162603965    -1.423052349975     1.007825032070
           H          2.228533686249    -1.387075603965     0.052395650025     1.007825032070
           C          2.640587686249     1.452758396035    -1.930547349975    12.000000000000
           H          3.776719686249    -0.283502603965    -1.399480349975     1.007825032070
           H          3.458743686249     0.777427396035    -0.058645349975     1.007825032070
           H          2.176616686249     1.045390396035    -2.824930349975     1.007825032070
           H          3.524518686249     2.002479396035    -2.239270349975     1.007825032070
           H          1.949597686249     2.167174396035    -1.495453349975     1.007825032070

  Charge       = 0
  Multiplicity = 1
  Basis Set: 6-31G*
  Basis Set:

    Orbital Energies (a.u.)
    -----------------------

    Doubly Occupied:

       1A    -20.554257     2A    -11.267779     3A    -11.215993
       4A    -11.213512     5A    -11.212253     6A    -11.210583
       7A    -11.209666     8A    -11.206791     9A     -1.360687
      10A     -1.088003    11A     -1.047832    12A     -0.984973
      13A     -0.914449    14A     -0.850640    15A     -0.800841
      16A     -0.776180    17A     -0.679607    18A     -0.650659
      19A     -0.627215    20A     -0.619015    21A     -0.597950
      22A     -0.581138    23A     -0.559656    24A     -0.533863
      25A     -0.523583    26A     -0.510684    27A     -0.494571
      28A     -0.474498    29A     -0.466149    30A     -0.456603
      31A     -0.452799    32A     -0.448907    33A     -0.420284

  @DF-RHF Final Energy:  -349.24312979856268

   => Energetics <=

    Nuclear Repulsion Energy =            388.4176452828000947
    One-Electron Energy =               -1243.2981320235389830
    Two-Electron Energy =                 505.6373569421765524
    DFT Exchange-Correlation Energy =       0.0000000000000000
    Empirical Dispersion Energy =           0.0000000000000000
    PCM Polarization Energy =               0.0000000000000000
    EFP Energy =                            0.0000000000000000
    Total Energy =                       -349.2431297985623360

  Mulliken Charges: (a.u.)
   Center  Symbol    Alpha    Beta     Spin     Total
       1     H     0.28325  0.28325  0.00000  0.43351
       2     O     4.36816  4.36816  0.00000 -0.73632
       3     C     2.99940  2.99940  0.00000  0.00120
       4     C     3.16998  3.16998  0.00000 -0.33995
       5     H     0.41606  0.41606  0.00000  0.16789
       6     H     0.42870  0.42870  0.00000  0.14260
       7     C     3.15563  3.15563  0.00000 -0.31126
       8     H     0.42571  0.42571  0.00000  0.14857
       9     H     0.42010  0.42010  0.00000  0.15981
      10     C     3.15537  3.15537  0.00000 -0.31074
      11     H     0.40735  0.40735  0.00000  0.18530
      12     H     0.42302  0.42302  0.00000  0.15396
      13     C     3.15322  3.15322  0.00000 -0.30643
      14     H     0.42269  0.42269  0.00000  0.15463
      15     H     0.42525  0.42525  0.00000  0.14950
      16     C     3.15228  3.15228  0.00000 -0.30455
      17     H     0.42235  0.42235  0.00000  0.15530
      18     H     0.42279  0.42279  0.00000  0.15442
      19     C     3.24082  3.24082  0.00000 -0.48165
      20     H     0.42123  0.42123  0.00000  0.15754
      21     H     0.42412  0.42412  0.00000  0.15176
      22     H     0.42159  0.42159  0.00000  0.15683
      23     H     0.41975  0.41975  0.00000  0.16050
      24     H     0.42119  0.42119  0.00000  0.15762

   Total alpha = 33.00000, Total beta = 33.00000, Total charge = -0.00000
