  ==> Input File <==

--------------------------------------------------------------------------
set {
	reference rhf
	basis 6-31G*
}

set_num_threads( 4 )
memory 2 gb

molecule MOL {
0 1

H	 -2.646374	 -0.642757	 1.268656
C	 -2.083525	 -0.384536	 0.393091
O	 -0.807605	 -0.127164	 0.768327
F	 -2.118945	 -1.383102	 -0.486752
F	 -2.621877	 0.670592	 -0.209486
C	 -0.572063	 1.014105	 1.513118
C	 0.630423	 1.711342	 0.890183
Cl	 -0.249202	 0.607347	 3.206494
H	 -1.405165	 1.694803	 1.494038
F	 0.907551	 2.820240	 1.542629
F	 0.337628	 2.031201	 -0.354566
F	 1.695971	 0.948105	 0.883048

	symmetry c1
}
set optking {
	frozen_dihedral = ("
		6 3 2 4
	")
}

ee = optimize('scf')
oeprop('DIPOLE', 'QUADRUPOLE', 'MULLIKEN_CHARGES')
f=open( 'psi4out.xyz', 'w' )
f.write( "12  " )
f.write( str(ee) + "\n" )
f.write( MOL.save_string_xyz() )
f.close()
--------------------------------------------------------------------------

    Molecular point group: c1
  Charge       = 0
  Multiplicity = 1
  Basis Set: 6-31G*
  Basis Set:
  @DF-RHF Final Energy: -1146.30828702137796
    Total Energy =                      -1146.3082870213775095
    Molecular point group: c1
  Basis Set: 6-31G*
  Basis Set:
  Basis Set: 6-31G*
  Basis Set:
  @DF-RHF Final Energy: -1146.31045477770886
    Total Energy =                      -1146.3104547777079461
  Basis Set: 6-31G*
  Basis Set:
  Basis Set: 6-31G*
  Basis Set:
  @DF-RHF Final Energy: -1146.31162417148084
    Total Energy =                      -1146.3116241714815260
  Basis Set: 6-31G*
  Basis Set:
  Basis Set: 6-31G*
  Basis Set:
  @DF-RHF Final Energy: -1146.31238403744169
    Total Energy =                      -1146.3123840374414613
  Basis Set: 6-31G*
  Basis Set:
  Basis Set: 6-31G*
  Basis Set:
  @DF-RHF Final Energy: -1146.31246293402023
    Total Energy =                      -1146.3124629340193223
  Basis Set: 6-31G*
  Basis Set:
  Basis Set: 6-31G*
  Basis Set:
  @DF-RHF Final Energy: -1146.31246016258365
    Total Energy =                      -1146.3124601625836476
  Basis Set: 6-31G*
  Basis Set:
  Basis Set: 6-31G*
  Basis Set:
  @DF-RHF Final Energy: -1146.31247094934020
    Total Energy =                      -1146.3124709493395130
  Basis Set: 6-31G*
  Basis Set:
  Charge       = 0
  Multiplicity = 1
  Basis Set: 6-31G*
  Basis Set:

    Orbital Energies (a.u.)
    -----------------------

    Doubly Occupied:

       1A   -104.851529     2A    -26.362764     3A    -26.360680
       4A    -26.360120     5A    -26.348118     6A    -26.346046
       7A    -20.650582     8A    -11.531622     9A    -11.489860
      10A    -11.405929    11A    -10.586312    12A     -8.055603
      13A     -8.052225    14A     -8.052052    15A     -1.763993
      16A     -1.718659    17A     -1.660354    18A     -1.658783
      19A     -1.641990    20A     -1.488395    21A     -1.180565
      22A     -1.060353    23A     -0.984156    24A     -0.923629
      25A     -0.861354    26A     -0.852912    27A     -0.847647
      28A     -0.831586    29A     -0.814729    30A     -0.790454
      31A     -0.730355    32A     -0.727111    33A     -0.699572
      34A     -0.691836    35A     -0.686255    36A     -0.675119
      37A     -0.665961    38A     -0.660680    39A     -0.660141
      40A     -0.636102    41A     -0.603808    42A     -0.573858
      43A     -0.517373    44A     -0.487097    45A     -0.477510

  @DF-RHF Final Energy: -1146.31247124398033

   => Energetics <=

    Nuclear Repulsion Energy =            728.8874862313602989
    One-Electron Energy =               -3040.3483435689995531
    Two-Electron Energy =                1165.1483860936591554
    DFT Exchange-Correlation Energy =       0.0000000000000000
    Empirical Dispersion Energy =           0.0000000000000000
    PCM Polarization Energy =               0.0000000000000000
    EFP Energy =                            0.0000000000000000
    Total Energy =                      -1146.3124712439798714
    Molecular point group: c1
  Basis Set: 6-31G*
  Basis Set:

  -Total Gradient:
     Atom            X                  Y                   Z
    ------   -----------------  -----------------  -----------------
       1       -0.000043658675    -0.000007471670    -0.000022365605
       2        0.000204251383    -0.000326428289     0.000260370226
       3        0.000222358952    -0.000463146048     0.000567068640
       4       -0.000203745963     0.000433340450    -0.000361174013
       5       -0.000044865460    -0.000048679196    -0.000007970133
       6       -0.000143415623     0.000425362990    -0.000469250127
       7        0.000011186997     0.000008152981    -0.000026748763
       8        0.000010358682     0.000000557291     0.000041903138
       9        0.000028890662    -0.000006559831    -0.000001447265
      10       -0.000013172444    -0.000010487949     0.000026447365
      11       -0.000009932068     0.000005877606    -0.000018412024
      12       -0.000018256457    -0.000010518322     0.000011578621

  **** Optimization is complete! (in 8 steps) ****
    Final optimized geometry and variables:
    Molecular point group: c1

    Geometry (in Angstrom), charge = 0, multiplicity = 1:

    H           -1.874932115796    -1.750073958440     0.357921876974
    C           -1.597289390457    -1.253792053196    -0.555363089261
    O           -0.336738145633    -0.735088850647    -0.513756349959
    F           -1.619820986219    -2.102925809150    -1.558956701509
    F           -2.480289482170    -0.286555343060    -0.803487682756
    C           -0.099188974454     0.333052107708     0.312576475340
    C            1.242499892208     0.917134019468    -0.112293025761
    CL          -0.050658673346    -0.150722104811     2.030470513922
    H           -0.851465889556     1.097234185016     0.222210726864
    F            1.534504231688     1.964623313126     0.628998483453
    F            1.158910258193     1.313089330189    -1.364783201313
    F            2.214819020349     0.044977560821    -0.013056152252

  Mulliken Charges: (a.u.)
   Center  Symbol    Alpha    Beta     Spin     Total
       1     H     0.41014  0.41014  0.00000  0.17971
       2     C     2.56584  2.56584  0.00000  0.86832
       3     O     4.30046  4.30046  0.00000 -0.60093
       4     F     4.67001  4.67001  0.00000 -0.34002
       5     F     4.68570  4.68570  0.00000 -0.37139
       6     C     3.03955  3.03955  0.00000 -0.07910
       7     C     2.43009  2.43009  0.00000  1.13983
       8    CL     8.51514  8.51514  0.00000 -0.03028
       9     H     0.36676  0.36676  0.00000  0.26648
      10     F     4.67474  4.67474  0.00000 -0.34949
      11     F     4.67420  4.67420  0.00000 -0.34841
      12     F     4.66736  4.66736  0.00000 -0.33472

   Total alpha = 45.00000, Total beta = 45.00000, Total charge =  0.00000
