  ==> Input File <==

--------------------------------------------------------------------------
set {
	reference rhf
	basis 6-31G*
}

set_num_threads( 1 )
memory 2 gb

molecule MOL {
0 1

O	 -2.821601	 1.309235	 -0.001213
C	 -2.668563	 0.129746	 -0.000350
C	 -3.801572	 -0.864014	 -0.000442
O	 -1.481751	 -0.454642	 0.000584
H	 -4.417280	 -0.689587	 -0.874708
H	 -3.443784	 -1.883046	 -0.000565
H	 -4.417179	 -0.689832	 0.873954
C	 -0.334255	 0.388708	 0.000906
C	 0.891947	 -0.504646	 0.000751
H	 -0.365390	 1.025305	 -0.873475
H	 -0.365484	 1.024911	 0.875569
C	 2.191998	 0.301789	 0.000897
H	 0.855148	 -1.151283	 -0.871571
H	 0.855132	 -1.151660	 0.872805
C	 3.441114	 -0.581407	 0.000108
H	 2.215074	 0.954890	 -0.869742
H	 2.215465	 0.953923	 0.872248
C	 3.704425	 -1.238709	 -1.353956
H	 3.337260	 -1.351198	 0.761497
H	 4.303846	 0.016281	 0.285648
H	 2.872559	 -1.870719	 -1.651573
H	 4.595409	 -1.857917	 -1.322902
H	 3.846744	 -0.492993	 -2.130914

	symmetry c1
}
set optking {
	frozen_dihedral = ("
		13 9 8 10,
		2 4 8 10,
		16 12 9 13,
		1 2 4 8
	")
}

ee = energy('scf')
oeprop('DIPOLE', 'QUADRUPOLE', 'MULLIKEN_CHARGES')
f=open( 'psi4out.xyz', 'w' )
f.write( "23  " )
f.write( str(ee) + "\n" )
f.write( MOL.save_string_xyz() )
f.close()
--------------------------------------------------------------------------

    Molecular point group: c1

    Geometry (in Angstrom), charge = 0, multiplicity = 1:

       Center              X                  Y                   Z               Mass
    ------------   -----------------  -----------------  -----------------  -----------------
           O         -2.702088404140     1.478123038521     0.154979461559    15.994914619560
           C         -2.549050404140     0.298634038521     0.155842461559    12.000000000000
           C         -3.682059404140    -0.695125961479     0.155750461559    12.000000000000
           O         -1.362238404140    -0.285753961479     0.156776461559    15.994914619560
           H         -4.297767404140    -0.520698961479    -0.718515538441     1.007825032070
           H         -3.324271404140    -1.714157961479     0.155627461559     1.007825032070
           H         -4.297666404140    -0.520943961479     1.030146461559     1.007825032070
           C         -0.214742404140     0.557596038521     0.157098461559    12.000000000000
           C          1.011459595860    -0.335757961479     0.156943461559    12.000000000000
           H         -0.245877404140     1.194193038521    -0.717282538441     1.007825032070
           H         -0.245971404140     1.193799038521     1.031761461559     1.007825032070
           C          2.311510595860     0.470677038521     0.157089461559    12.000000000000
           H          0.974660595860    -0.982394961479    -0.715378538441     1.007825032070
           H          0.974644595860    -0.982771961479     1.028997461559     1.007825032070
           C          3.560626595860    -0.412518961479     0.156300461559    12.000000000000
           H          2.334586595860     1.123778038521    -0.713549538441     1.007825032070
           H          2.334977595860     1.122811038521     1.028440461559     1.007825032070
           C          3.823937595860    -1.069820961479    -1.197763538441    12.000000000000
           H          3.456772595860    -1.182309961479     0.917689461559     1.007825032070
           H          4.423358595860     0.185169038521     0.441840461559     1.007825032070
           H          2.992071595860    -1.701830961479    -1.495380538441     1.007825032070
           H          4.714921595860    -1.689028961479    -1.166709538441     1.007825032070
           H          3.966256595860    -0.324104961479    -1.974721538441     1.007825032070

  Charge       = 0
  Multiplicity = 1
  Basis Set: 6-31G*
  Basis Set:

    Orbital Energies (a.u.)
    -----------------------

    Doubly Occupied:

       1A    -20.602980     2A    -20.540564     3A    -11.374083
       4A    -11.281428     5A    -11.232424     6A    -11.224116
       7A    -11.223514     8A    -11.221460     9A    -11.212876
      10A     -1.467962    11A     -1.360740    12A     -1.095399
      13A     -1.041521    14A     -1.001831    15A     -0.930688
      16A     -0.851862    17A     -0.795004    18A     -0.772445
      19A     -0.691276    20A     -0.685332    21A     -0.669937
      22A     -0.634393    23A     -0.618941    24A     -0.598509
      25A     -0.577305    26A     -0.571456    27A     -0.546312
      28A     -0.536457    29A     -0.526187    30A     -0.507090
      31A     -0.497975    32A     -0.474376    33A     -0.466903
      34A     -0.464894    35A     -0.451124    36A     -0.435323

  @DF-RHF Final Energy:  -422.97747932103061

   => Energetics <=

    Nuclear Repulsion Energy =            454.4108270068538786
    One-Electron Energy =               -1476.4076089990239780
    Two-Electron Energy =                 599.0193026711409630
    DFT Exchange-Correlation Energy =       0.0000000000000000
    Empirical Dispersion Energy =           0.0000000000000000
    PCM Polarization Energy =               0.0000000000000000
    EFP Energy =                            0.0000000000000000
    Total Energy =                       -422.9774793210291364

  Mulliken Charges: (a.u.)
   Center  Symbol    Alpha    Beta     Spin     Total
       1     O     4.28390  4.28390  0.00000 -0.56780
       2     C     2.61535  2.61535  0.00000  0.76930
       3     C     3.28773  3.28773  0.00000 -0.57547
       4     O     4.31268  4.31268  0.00000 -0.62537
       5     H     0.39749  0.39749  0.00000  0.20502
       6     H     0.39989  0.39989  0.00000  0.20021
       7     H     0.39750  0.39750  0.00000  0.20501
       8     C     2.99519  2.99519  0.00000  0.00961
       9     C     3.16680  3.16680  0.00000 -0.33360
      10     H     0.41067  0.41067  0.00000  0.17866
      11     H     0.41068  0.41068  0.00000  0.17863
      12     C     3.16219  3.16219  0.00000 -0.32438
      13     H     0.41285  0.41285  0.00000  0.17430
      14     H     0.41421  0.41421  0.00000  0.17158
      15     C     3.15341  3.15341  0.00000 -0.30682
      16     H     0.42068  0.42068  0.00000  0.15864
      17     H     0.41862  0.41862  0.00000  0.16276
      18     C     3.24183  3.24183  0.00000 -0.48367
      19     H     0.42134  0.42134  0.00000  0.15732
      20     H     0.41842  0.41842  0.00000  0.16317
      21     H     0.42010  0.42010  0.00000  0.15980
      22     H     0.41767  0.41767  0.00000  0.16466
      23     H     0.42078  0.42078  0.00000  0.15843

   Total alpha = 36.00000, Total beta = 36.00000, Total charge =  0.00000
