  ==> Input File <==

--------------------------------------------------------------------------
set {
	reference rhf
	basis 6-31G*
}

set_num_threads( 1 )
memory 2 gb

molecule MOL {
0 1

O	 2.567217	 -0.016674	 -0.805833
C	 1.705091	 0.115954	 0.001797
C	 0.381791	 -0.609817	 0.001258
O	 1.801240	 0.939375	 1.038074
C	 -0.823008	 0.326187	 0.001381
H	 0.371250	 -1.265087	 -0.865474
H	 0.370908	 -1.265746	 0.867490
C	 -2.149452	 -0.435131	 -0.000098
H	 -0.770201	 0.977095	 -0.865636
H	 -0.771220	 0.975655	 0.869608
C	 -3.368779	 0.488503	 -0.000883
H	 -2.193746	 -1.087250	 -0.871175
H	 -2.195311	 -1.087803	 0.870418
C	 -4.693822	 -0.272754	 -0.001129
H	 -3.325798	 1.139422	 -0.871284
H	 -3.326423	 1.139959	 0.869145
H	 -4.781274	 -0.907928	 -0.878124
H	 -5.538651	 0.408946	 -0.001420
H	 -4.781694	 -0.907783	 0.875984
C	 2.999923	 1.683404	 1.158642
H	 3.849029	 1.022575	 1.257900
H	 2.886783	 2.283161	 2.048230
H	 3.142302	 2.317268	 0.295248

	symmetry c1
}
set optking {
	frozen_dihedral = ("
		15 11 8 12,
		9 5 8 12,
		9 5 3 6,
		1 2 4 20
	")
}

ee = energy('scf')
oeprop('DIPOLE', 'QUADRUPOLE', 'MULLIKEN_CHARGES')
f=open( 'psi4out.xyz', 'w' )
f.write( "23  " )
f.write( str(ee) + "\n" )
f.write( MOL.save_string_xyz() )
f.close()
--------------------------------------------------------------------------

    Molecular point group: c1

    Geometry (in Angstrom), charge = 0, multiplicity = 1:

       Center              X                  Y                   Z               Mass
    ------------   -----------------  -----------------  -----------------  -----------------
           O          2.710980544590    -0.278677130633    -0.969364742068    15.994914619560
           C          1.848854544590    -0.146049130633    -0.161734742068    12.000000000000
           C          0.525554544590    -0.871820130633    -0.162273742068    12.000000000000
           O          1.945003544590     0.677371869367     0.874542257932    15.994914619560
           C         -0.679244455410     0.064183869367    -0.162150742068    12.000000000000
           H          0.515013544590    -1.527090130633    -1.029005742068     1.007825032070
           H          0.514671544590    -1.527749130633     0.703958257932     1.007825032070
           C         -2.005688455410    -0.697134130633    -0.163629742068    12.000000000000
           H         -0.626437455410     0.715091869367    -1.029167742068     1.007825032070
           H         -0.627456455410     0.713651869367     0.706076257932     1.007825032070
           C         -3.225015455410     0.226499869367    -0.164414742068    12.000000000000
           H         -2.049982455410    -1.349253130633    -1.034706742068     1.007825032070
           H         -2.051547455410    -1.349806130633     0.706886257932     1.007825032070
           C         -4.550058455410    -0.534757130633    -0.164660742068    12.000000000000
           H         -3.182034455410     0.877418869367    -1.034815742068     1.007825032070
           H         -3.182659455410     0.877955869367     0.705613257932     1.007825032070
           H         -4.637510455410    -1.169931130633    -1.041655742068     1.007825032070
           H         -5.394887455410     0.146942869367    -0.164951742068     1.007825032070
           H         -4.637930455410    -1.169786130633     0.712452257932     1.007825032070
           C          3.143686544590     1.421400869367     0.995110257932    12.000000000000
           H          3.992792544590     0.760571869367     1.094368257932     1.007825032070
           H          3.030546544590     2.021157869367     1.884698257932     1.007825032070
           H          3.286065544590     2.055264869367     0.131716257932     1.007825032070

  Charge       = 0
  Multiplicity = 1
  Basis Set: 6-31G*
  Basis Set:

    Orbital Energies (a.u.)
    -----------------------

    Doubly Occupied:

       1A    -20.604207     2A    -20.544151     3A    -11.371219
       4A    -11.280956     5A    -11.234075     6A    -11.226827
       7A    -11.221500     8A    -11.219757     9A    -11.212015
      10A     -1.469125    11A     -1.361713    12A     -1.097567
      13A     -1.046058    14A     -0.983868    15A     -0.934751
      16A     -0.848117    17A     -0.798715    18A     -0.773768
      19A     -0.693659    20A     -0.680816    21A     -0.672717
      22A     -0.652923    23A     -0.608059    24A     -0.592585
      25A     -0.579559    26A     -0.570391    27A     -0.545887
      28A     -0.529484    29A     -0.524034    30A     -0.508408
      31A     -0.488779    32A     -0.478159    33A     -0.470429
      34A     -0.468771    35A     -0.454521    36A     -0.426676

  @DF-RHF Final Energy:  -422.97467428262655

   => Energetics <=

    Nuclear Repulsion Energy =            455.4560990191051815
    One-Electron Energy =               -1478.5130091233359053
    Two-Electron Energy =                 600.0822358216050816
    DFT Exchange-Correlation Energy =       0.0000000000000000
    Empirical Dispersion Energy =           0.0000000000000000
    PCM Polarization Energy =               0.0000000000000000
    EFP Energy =                            0.0000000000000000
    Total Energy =                       -422.9746742826256423

  Mulliken Charges: (a.u.)
   Center  Symbol    Alpha    Beta     Spin     Total
       1     O     4.28569  4.28569  0.00000 -0.57138
       2     C     2.61386  2.61386  0.00000  0.77228
       3     C     3.19897  3.19897  0.00000 -0.39794
       4     O     4.30198  4.30198  0.00000 -0.60395
       5     C     3.16308  3.16308  0.00000 -0.32615
       6     H     0.39943  0.39943  0.00000  0.20114
       7     H     0.40394  0.40394  0.00000  0.19212
       8     C     3.15268  3.15268  0.00000 -0.30535
       9     H     0.41519  0.41519  0.00000  0.16961
      10     H     0.40693  0.40693  0.00000  0.18613
      11     C     3.15221  3.15221  0.00000 -0.30442
      12     H     0.42136  0.42136  0.00000  0.15728
      13     H     0.42203  0.42203  0.00000  0.15595
      14     C     3.23982  3.23982  0.00000 -0.47963
      15     H     0.42162  0.42162  0.00000  0.15675
      16     H     0.42178  0.42178  0.00000  0.15645
      17     H     0.42097  0.42097  0.00000  0.15806
      18     H     0.41823  0.41823  0.00000  0.16353
      19     H     0.42133  0.42133  0.00000  0.15735
      20     C     3.09234  3.09234  0.00000 -0.18469
      21     H     0.40878  0.40878  0.00000  0.18243
      22     H     0.40888  0.40888  0.00000  0.18224
      23     H     0.40890  0.40890  0.00000  0.18220

   Total alpha = 36.00000, Total beta = 36.00000, Total charge =  0.00000
