                              Psi4 1.0.54 Driver

  ==> Input File <==

--------------------------------------------------------------------------
set {
	reference rhf
	basis cc-pvtz
}

set_num_threads( 4 )
memory 2 gb

molecule MOL {
0 1

H	 -3.258660	 -0.290394	 1.471450
C	 -3.307964	 -0.275695	 0.374072
C	 -2.653809	 0.914422	 -0.273689
O	 -3.855140	 -1.148880	 -0.205112
C	 -1.216901	 1.136108	 0.207794
H	 -2.700131	 0.790676	 -1.347875
H	 -3.256452	 1.781007	 -0.010713
C	 -0.247837	 0.040196	 -0.230469
H	 -0.872882	 2.093195	 -0.169002
H	 -1.209325	 1.218376	 1.291938
C	 1.181757	 0.280428	 0.247371
H	 -0.259600	 -0.030819	 -1.314870
H	 -0.591284	 -0.923375	 0.136958
C	 2.151032	 -0.811012	 -0.202643
H	 1.515939	 1.247397	 -0.115449
H	 1.191514	 0.341223	 1.333422
C	 3.580021	 -0.656538	 0.320835
H	 2.170545	 -0.847575	 -1.289412
H	 1.766632	 -1.772905	 0.124928
C	 3.964521	 0.766810	 0.717477
H	 4.264829	 -0.999611	 -0.448404
H	 3.724097	 -1.318870	 1.170461
H	 3.824236	 1.453277	 -0.111425
H	 3.374980	 1.129770	 1.550776
H	 5.006610	 0.815117	 1.011895

	symmetry c1
}
set optking {
	frozen_dihedral = ("
		20 17 14 18
	")
}

ee,wfn = optimize('scf', return_wfn=True)
oeprop( wfn, 'DIPOLE', 'QUADRUPOLE', 'MULLIKEN_CHARGES')
f=open( 'psi4out.xyz', 'w' )
f.write( "25  " )
f.write( str(ee) + "\n" )
f.write( MOL.save_string_xyz() )
f.close()
--------------------------------------------------------------------------

    Molecular point group: c1
  Charge       = 0
  Multiplicity = 1
  Basis Set: CC-PVTZ
  Basis Set:
  @DF-RHF Final Energy:  -387.25343923339028
    Total Energy =                       -387.2534392333905089
    Molecular point group: c1
  Basis Set: CC-PVTZ
  Basis Set:
  Basis Set: CC-PVTZ
  Basis Set:
  @DF-RHF Final Energy:  -387.25378977325965
    Total Energy =                       -387.2537897732596548
  Basis Set: CC-PVTZ
  Basis Set:
  Basis Set: CC-PVTZ
  Basis Set:
  @DF-RHF Final Energy:  -387.25473592942126
    Total Energy =                       -387.2547359294212583
  Basis Set: CC-PVTZ
  Basis Set:
  Basis Set: CC-PVTZ
  Basis Set:
  @DF-RHF Final Energy:  -387.25469422122848
    Total Energy =                       -387.2546942212291015
  Basis Set: CC-PVTZ
  Basis Set:
  Basis Set: CC-PVTZ
  Basis Set:
  @DF-RHF Final Energy:  -387.25457499833374
    Total Energy =                       -387.2545749983338510
  Basis Set: CC-PVTZ
  Basis Set:
  Basis Set: CC-PVTZ
  Basis Set:
  @DF-RHF Final Energy:  -387.25476761314832
    Total Energy =                       -387.2547676131487151
  Basis Set: CC-PVTZ
  Basis Set:
  Charge       = 0
  Multiplicity = 1
  Basis Set: CC-PVTZ
  Basis Set:

    Orbital Energies (a.u.)
    -----------------------

    Doubly Occupied:

       1A    -20.551381     2A    -11.320984     3A    -11.233801
       4A    -11.232838     5A    -11.221669     6A    -11.218151
       7A    -11.216476     8A    -11.215010     9A    -11.208891
      10A     -1.406400    11A     -1.104922    12A     -1.068853
      13A     -1.013872    14A     -0.943270    15A     -0.879216
      16A     -0.823358    17A     -0.788632    18A     -0.775464
      19A     -0.668039    20A     -0.664712    21A     -0.638224
      22A     -0.624924    23A     -0.603774    24A     -0.591679
      25A     -0.576899    26A     -0.552475    27A     -0.535243
      28A     -0.526387    29A     -0.514331    30A     -0.497673
      31A     -0.491113    32A     -0.481751    33A     -0.462004
      34A     -0.451464    35A     -0.444343    36A     -0.411886

  @DF-RHF Final Energy:  -387.25476809909742

   => Energetics <=

    Nuclear Repulsion Energy =            440.5753261463593162
    One-Electron Energy =               -1397.7399712413746329
    Two-Electron Energy =                 569.9098769959173296
    DFT Exchange-Correlation Energy =       0.0000000000000000
    Empirical Dispersion Energy =           0.0000000000000000
    PCM Polarization Energy =               0.0000000000000000
    EFP Energy =                            0.0000000000000000
    Total Energy =                       -387.2547680990979870
    Molecular point group: c1
  Basis Set: CC-PVTZ
  Basis Set:

  -Total Gradient:
     Atom            X                  Y                   Z
    ------   -----------------  -----------------  -----------------
       1       -0.000015216668     0.000010925175     0.000000159590
       2        0.000050430566    -0.000008917639    -0.000002625458
       3       -0.000042006698     0.000012089170     0.000009629271
       4       -0.000012721352     0.000010421499    -0.000000084838
       5       -0.000016956609    -0.000013289174    -0.000005137043
       6        0.000005757347    -0.000002248912     0.000002493359
       7       -0.000004134191     0.000001676985    -0.000004309994
       8       -0.000006367118     0.000035265520    -0.000007034927
       9       -0.000006231669     0.000000580125     0.000000825355
      10       -0.000004156619    -0.000003593684    -0.000006645948
      11        0.000028279045    -0.000043996679     0.000013470935
      12        0.000010293641    -0.000008401695     0.000003387876
      13        0.000009993269     0.000016845936     0.000004274039
      14       -0.001010020119     0.007070220389     0.001451418243
      15        0.000025376136     0.000003229178     0.000021660696
      16       -0.000008640810    -0.000022828651    -0.000018990933
      17        0.001999555587    -0.000557338661    -0.005951901988
      18        0.000345185277    -0.005981021233     0.000372211298
      19       -0.000030689022     0.000011951245     0.000001331454
      20       -0.001336984780    -0.000511241513     0.004165693390
      21        0.000017687645     0.000028627046    -0.000037566594
      22        0.000008787400    -0.000077661351     0.000002060315
      23        0.000041517726     0.000037733458    -0.000007735307
      24       -0.000055050418    -0.000036314009    -0.000038332892
      25        0.000006312442     0.000027287474     0.000031750099

  **** Optimization is complete! (in 7 steps) ****
    Final optimized geometry and variables:
    Molecular point group: c1

    Geometry (in Angstrom), charge = 0, multiplicity = 1:

    H           -3.244976051652    -0.377216162937     1.339838282634
    C           -3.283260090428    -0.342175460094     0.242464320080
    C           -2.640323038672     0.869632844566    -0.375632134474
    O           -3.811879591759    -1.211715271684    -0.358988519967
    C           -1.212806628700     1.104644403387     0.126792667358
    H           -2.672326787097     0.765151135678    -1.452391662222
    H           -3.259670925619     1.721662170487    -0.104031177420
    C           -0.221662678506     0.032362741846    -0.320700517986
    H           -0.879727262047     2.073965437013    -0.227865118968
    H           -1.219155098738     1.166456539630     1.212302195083
    C            1.199029470214     0.288646335900     0.175249240397
    H           -0.221675210305    -0.019958175032    -1.406178476294
    H           -0.552741173082    -0.942853826659     0.026662398316
    C            2.181296828430    -0.782629007614    -0.289013908721
    H            1.521221431823     1.266735255484    -0.167103173574
    H            1.193604848464     0.331459098922     1.261615727643
    C            3.637663967470    -0.661089588623     0.209550453471
    H            2.173494176776    -0.853251393965    -1.373182351456
    H            1.803154097543    -1.747427188578     0.038618093230
    C            4.122587187595     0.742948883158     0.567570899057
    H            4.298391780287    -1.089391591520    -0.535722589659
    H            3.751622328519    -1.278883760852     1.095419760394
    H            4.063633172795     1.421400542632    -0.277425434437
    H            3.546191468645     1.172137027088     1.377256936098
    H            5.158377163761     0.709404017671     0.885554429062

  Mulliken Charges: (a.u.)
   Center  Symbol    Alpha    Beta     Spin     Total
       1     H     0.46417  0.46417  0.00000  0.07167
       2     C     2.90484  2.90484  0.00000  0.19032
       3     C     3.08903  3.08903  0.00000 -0.17807
       4     O     4.16630  4.16630  0.00000 -0.33260
       5     C     3.11604  3.11604  0.00000 -0.23208
       6     H     0.44290  0.44290  0.00000  0.11419
       7     H     0.44048  0.44048  0.00000  0.11904
       8     C     3.09170  3.09170  0.00000 -0.18340
       9     H     0.44316  0.44316  0.00000  0.11367
      10     H     0.44998  0.44998  0.00000  0.10004
      11     C     3.09188  3.09188  0.00000 -0.18375
      12     H     0.44980  0.44980  0.00000  0.10039
      13     H     0.44788  0.44788  0.00000  0.10424
      14     C     3.09771  3.09771  0.00000 -0.19542
      15     H     0.44962  0.44962  0.00000  0.10075
      16     H     0.45293  0.45293  0.00000  0.09413
      17     C     3.08821  3.08821  0.00000 -0.17641
      18     H     0.45127  0.45127  0.00000  0.09747
      19     H     0.45110  0.45110  0.00000  0.09780
      20     C     3.15770  3.15770  0.00000 -0.31540
      21     H     0.44897  0.44897  0.00000  0.10206
      22     H     0.45347  0.45347  0.00000  0.09306
      23     H     0.45395  0.45395  0.00000  0.09211
      24     H     0.45261  0.45261  0.00000  0.09478
      25     H     0.44430  0.44430  0.00000  0.11140

   Total alpha = 36.00000, Total beta = 36.00000, Total charge = -0.00000

*** Psi4 exiting successfully. Buy a developer a beer!
