  ==> Input File <==

--------------------------------------------------------------------------
set {
	reference rhf
	basis 6-31G*
}

set_num_threads( 4 )
memory 2 gb

molecule MOL {
0 1

H	 2.614610	 0.512126	 0.373222
O	 2.064459	 -0.086912	 -0.111827
C	 0.745630	 0.005118	 0.354752
H	 0.739005	 0.037656	 1.444976
C	 -0.064159	 -1.194875	 -0.122754
C	 -0.046302	 1.193543	 -0.190431
H	 0.197384	 -1.376065	 -1.160690
H	 0.162855	 -2.097978	 0.431858
C	 -1.535782	 -0.752177	 0.006642
H	 0.154512	 1.271315	 -1.255561
H	 0.226209	 2.140461	 0.267302
C	 -1.509193	 0.801505	 0.065617
H	 -2.127797	 -1.112194	 -0.826847
H	 -1.986849	 -1.158408	 0.905561
H	 -2.183670	 1.254107	 -0.651985
H	 -1.821727	 1.144320	 1.047089

	symmetry c1
}
set optking {
	frozen_dihedral = ("
		1 2 3 6
	")
}

ee = optimize('scf')
oeprop('DIPOLE', 'QUADRUPOLE', 'MULLIKEN_CHARGES')
f=open( 'psi4out.xyz', 'w' )
f.write( "16  " )
f.write( str(ee) + "\n" )
f.write( MOL.save_string_xyz() )
f.close()
--------------------------------------------------------------------------

    Molecular point group: c1
  Charge       = 0
  Multiplicity = 1
  Basis Set: 6-31G*
  Basis Set:
  @DF-RHF Final Energy:  -270.01425563712405
    Total Energy =                       -270.0142556371239380
    Molecular point group: c1
  Basis Set: 6-31G*
  Basis Set:
  Basis Set: 6-31G*
  Basis Set:
  @DF-RHF Final Energy:  -270.01426515291018
    Total Energy =                       -270.0142651529099567
  Basis Set: 6-31G*
  Basis Set:
  Charge       = 0
  Multiplicity = 1
  Basis Set: 6-31G*
  Basis Set:

    Orbital Energies (a.u.)
    -----------------------

    Doubly Occupied:

       1A    -20.552214     2A    -11.268875     3A    -11.215807
       4A    -11.214369     5A    -11.209614     6A    -11.207789
       7A     -1.361027     8A     -1.112375     9A     -0.964404
      10A     -0.947710    11A     -0.785542    12A     -0.775773
      13A     -0.707694    14A     -0.654053    15A     -0.618446
      16A     -0.582846    17A     -0.562435    18A     -0.522844
      19A     -0.510175    20A     -0.480478    21A     -0.469415
      22A     -0.456065    23A     -0.450382    24A     -0.415072

  @DF-RHF Final Energy:  -270.01426613311816

   => Energetics <=

    Nuclear Repulsion Energy =            255.0867051317313212
    One-Electron Energy =                -872.1111367473999962
    Two-Electron Energy =                 347.0101654825505761
    DFT Exchange-Correlation Energy =       0.0000000000000000
    Empirical Dispersion Energy =           0.0000000000000000
    PCM Polarization Energy =               0.0000000000000000
    EFP Energy =                            0.0000000000000000
    Total Energy =                       -270.0142661331180420
    Molecular point group: c1
  Basis Set: 6-31G*
  Basis Set:

  -Total Gradient:
     Atom            X                  Y                   Z
    ------   -----------------  -----------------  -----------------
       1        0.000203573965    -0.000894469164     0.000766484710
       2       -0.000469817866     0.000913313047    -0.001200789047
       3        0.000447397139     0.000402869126     0.001029539301
       4       -0.000008911510    -0.000004947709     0.000005007262
       5       -0.000002004912    -0.000034571284     0.000021200950
       6       -0.000196799325    -0.000385636653    -0.000603621662
       7        0.000000798757    -0.000011423165    -0.000017735827
       8        0.000009224215    -0.000012722662    -0.000006198840
       9        0.000022758596     0.000017196730    -0.000008304282
      10       -0.000008182021     0.000015378567     0.000019992575
      11       -0.000003251525    -0.000002780046    -0.000014317222
      12       -0.000023410630    -0.000011866689    -0.000000663744
      13        0.000013891975    -0.000004635494     0.000008418774
      14        0.000005260320    -0.000009509510     0.000007955954
      15        0.000006337832     0.000013622562    -0.000004128422
      16        0.000003134986     0.000010182344    -0.000002840481

  **** Optimization is complete! (in 3 steps) ****
    Final optimized geometry and variables:
    Molecular point group: c1

    Geometry (in Angstrom), charge = 0, multiplicity = 1:

    H            2.616781144890     0.516939220118     0.360430969561
    O            2.063147332100    -0.082655826096    -0.118774036788
    C            0.746134227118     0.005963478148     0.356108592721
    H            0.743868182325     0.036103867881     1.445915579634
    C           -0.065368368383    -1.194039629071    -0.121296118442
    C           -0.046387093538     1.194108108292    -0.189225032239
    H            0.199328817009    -1.376719770185    -1.158285607334
    H            0.160467795195    -2.096876323918     0.434472205135
    C           -1.536972176192    -0.750970310305     0.002834645371
    H            0.158059086696     1.270767571326    -1.253418347914
    H            0.226138662544     2.141331929768     0.267354045022
    C           -1.509727710901     0.802678996865     0.063468601763
    H           -2.126229871312    -1.109741004479    -0.833188702660
    H           -1.991685652991    -1.158146411137     0.899614194580
    H           -2.182878355981     1.256192769471    -0.654873218902
    H           -1.824400829463     1.144448137818     1.044745771615

  Mulliken Charges: (a.u.)
   Center  Symbol    Alpha    Beta     Spin     Total
       1     H     0.28153  0.28153  0.00000  0.43694
       2     O     4.37612  4.37612  0.00000 -0.75223
       3     C     2.90951  2.90951  0.00000  0.18099
       4     H     0.43107  0.43107  0.00000  0.13787
       5     C     3.16690  3.16690  0.00000 -0.33380
       6     C     3.17245  3.17245  0.00000 -0.34489
       7     H     0.41083  0.41083  0.00000  0.17833
       8     H     0.41361  0.41361  0.00000  0.17278
       9     C     3.16891  3.16891  0.00000 -0.33781
      10     H     0.41354  0.41354  0.00000  0.17292
      11     H     0.42127  0.42127  0.00000  0.15745
      12     C     3.16940  3.16940  0.00000 -0.33879
      13     H     0.41467  0.41467  0.00000  0.17066
      14     H     0.41738  0.41738  0.00000  0.16523
      15     H     0.41410  0.41410  0.00000  0.17180
      16     H     0.41872  0.41872  0.00000  0.16256

   Total alpha = 24.00000, Total beta = 24.00000, Total charge =  0.00000
