                              Psi4 1.0.54 Driver

  ==> Input File <==

--------------------------------------------------------------------------
set {
	reference rhf
	basis cc-pvtz
}

set_num_threads( 4 )
memory 2 gb

molecule MOL {
0 1

H	 -1.786976	 -1.388272	 1.328315
C	 -2.294336	 -0.946863	 0.473548
O	 -1.401606	 -0.295183	 -0.366624
H	 -2.768040	 -1.734371	 -0.094188
H	 -3.063526	 -0.270467	 0.841949
C	 -0.718530	 0.758693	 0.228682
C	 0.718529	 0.758687	 -0.228709
H	 -1.176498	 1.708665	 -0.046615
H	 -0.748705	 0.673525	 1.312779
O	 1.401606	 -0.295166	 0.366636
H	 0.748705	 0.673477	 -1.312803
H	 1.176496	 1.708671	 0.046552
C	 2.714315	 -0.441627	 -0.061017
H	 2.765292	 -0.641548	 -1.128869
H	 3.305661	 0.447341	 0.150952
H	 3.143725	 -1.278506	 0.470147

	symmetry c1
}
set optking {
	frozen_dihedral = ("
		2 3 6 7
	")
}

ee,wfn = optimize('scf', return_wfn=True)
oeprop( wfn, 'DIPOLE', 'QUADRUPOLE', 'MULLIKEN_CHARGES')
f=open( 'psi4out.xyz', 'w' )
f.write( "16  " )
f.write( str(ee) + "\n" )
f.write( MOL.save_string_xyz() )
f.close()
--------------------------------------------------------------------------

    Molecular point group: c1
  Charge       = 0
  Multiplicity = 1
  Basis Set: CC-PVTZ
  Basis Set:
  @DF-RHF Final Energy:  -307.09618570931048
    Total Energy =                       -307.0961857093104754
    Molecular point group: c1
  Basis Set: CC-PVTZ
  Basis Set:
  Basis Set: CC-PVTZ
  Basis Set:
  @DF-RHF Final Energy:  -307.09633147441167
    Total Energy =                       -307.0963314744117838
  Basis Set: CC-PVTZ
  Basis Set:
  Basis Set: CC-PVTZ
  Basis Set:
  @DF-RHF Final Energy:  -307.09636442119955
    Total Energy =                       -307.0963644211996098
  Basis Set: CC-PVTZ
  Basis Set:
  Charge       = 0
  Multiplicity = 1
  Basis Set: CC-PVTZ
  Basis Set:

    Orbital Energies (a.u.)
    -----------------------

    Doubly Occupied:

       1A    -20.549032     2A    -20.544611     3A    -11.266745
       4A    -11.266067     5A    -11.262551     6A    -11.259690
       7A     -1.390553     8A     -1.371896     9A     -1.031260
      10A     -0.938574    11A     -0.890626    12A     -0.824018
      13A     -0.684089    14A     -0.682713    15A     -0.658836
      16A     -0.634474    17A     -0.631576    18A     -0.601743
      19A     -0.544526    20A     -0.540309    21A     -0.512481
      22A     -0.478710    23A     -0.465469    24A     -0.420023
      25A     -0.412490

  @DF-RHF Final Energy:  -307.09636525530425

   => Energetics <=

    Nuclear Repulsion Energy =            260.3661078566034348
    One-Electron Energy =                -935.1988284838014351
    Two-Electron Energy =                 367.7363553718938647
    DFT Exchange-Correlation Energy =       0.0000000000000000
    Empirical Dispersion Energy =           0.0000000000000000
    PCM Polarization Energy =               0.0000000000000000
    EFP Energy =                            0.0000000000000000
    Total Energy =                       -307.0963652553041356
    Molecular point group: c1
  Basis Set: CC-PVTZ
  Basis Set:

  -Total Gradient:
     Atom            X                  Y                   Z
    ------   -----------------  -----------------  -----------------
       1        0.000011951124     0.000024386238    -0.000010264044
       2        0.000779274093    -0.000734368694     0.000310455479
       3       -0.001068709683     0.000779719688    -0.000089953893
       4       -0.000014906376    -0.000007648118    -0.000001216148
       5        0.000028839931     0.000006518685    -0.000015657315
       6        0.000008019781     0.000501153273    -0.000981798153
       7        0.000266340759    -0.000568077020     0.000856002812
       8        0.000007869799     0.000011013548     0.000004960904
       9        0.000000745746    -0.000021971019    -0.000016039386
      10       -0.000024769904     0.000005725283    -0.000053311113
      11       -0.000003374120    -0.000018532383     0.000013494194
      12        0.000003459428     0.000026650989    -0.000011589694
      13        0.000006460362    -0.000004219346    -0.000003053115
      14        0.000006087877    -0.000001572033    -0.000002203515
      15       -0.000005643315     0.000001003741     0.000001223186
      16       -0.000001645505     0.000000217167    -0.000001050197

  **** Optimization is complete! (in 4 steps) ****
    Final optimized geometry and variables:
    Molecular point group: c1

    Geometry (in Angstrom), charge = 0, multiplicity = 1:

    H           -1.869338492417    -1.299343183456     1.269583755855
    C           -2.371711995093    -0.870922463184     0.406962355356
    O           -1.474678730631    -0.210012107931    -0.423901255814
    H           -2.821498676967    -1.668698317630    -0.166405782762
    H           -3.161352136405    -0.209010834592     0.756898324854
    C           -0.787490454753     0.857202008425     0.151837036839
    C            0.649389164175     0.857505461801    -0.308982181732
    H           -1.257184338048     1.796339370657    -0.132297358811
    H           -0.802670057791     0.789674680344     1.235434992367
    O            1.327782332425    -0.195155397882     0.295517523173
    H            0.679422044304     0.761730276710    -1.392181439379
    H            1.110662844132     1.808701762273    -0.042708362761
    C            2.634431414188    -0.364277426360    -0.143044181357
    H            2.671650180919    -0.581606816808    -1.207947044789
    H            3.238179226058     0.520731740387     0.048766521375
    H            3.059675138703    -1.197630953544     0.397071231254

  Mulliken Charges: (a.u.)
   Center  Symbol    Alpha    Beta     Spin     Total
       1     H     0.46778  0.46778  0.00000  0.06444
       2     C     3.02985  3.02985  0.00000 -0.05970
       3     O     4.17810  4.17810  0.00000 -0.35620
       4     H     0.44968  0.44968  0.00000  0.10065
       5     H     0.47263  0.47263  0.00000  0.05475
       6     C     2.96316  2.96316  0.00000  0.07367
       7     C     2.96298  2.96298  0.00000  0.07405
       8     H     0.46471  0.46471  0.00000  0.07058
       9     H     0.46985  0.46985  0.00000  0.06030
      10     O     4.17317  4.17317  0.00000 -0.34634
      11     H     0.47136  0.47136  0.00000  0.05727
      12     H     0.47539  0.47539  0.00000  0.04923
      13     C     3.03121  3.03121  0.00000 -0.06242
      14     H     0.46973  0.46973  0.00000  0.06054
      15     H     0.47319  0.47319  0.00000  0.05362
      16     H     0.44723  0.44723  0.00000  0.10554

   Total alpha = 25.00000, Total beta = 25.00000, Total charge =  0.00000

*** Psi4 exiting successfully. Buy a developer a beer!
