  ==> Input File <==

--------------------------------------------------------------------------
set {
	reference rhf
	basis cc-pvtz
}

set_num_threads( 4 )
memory 2 gb

molecule MOL {
0 1

O	 1.193569	 1.340228	 0.202460
C	 1.055638	 0.228897	 0.585837
C	 -0.235526	 -0.548364	 0.570812
O	 2.044389	 -0.491405	 1.089736
C	 -1.413045	 0.229353	 0.001137
H	 -0.055695	 -1.458030	 0.007207
H	 -0.430467	 -0.866173	 1.589859
C	 -2.702562	 -0.586401	 0.000228
H	 -1.178109	 0.546036	 -1.008842
H	 -1.553699	 1.138065	 0.575596
C	 -3.953810	 0.284959	 -0.000782
H	 -2.717793	 -1.238567	 -0.869075
H	 -2.719108	 -1.238472	 0.869576
H	 -3.983727	 0.924403	 -0.876454
H	 -4.852989	 -0.320147	 -0.001515
H	 -3.985140	 0.924399	 0.874841
C	 3.317948	 0.116768	 1.163849
H	 3.665273	 0.395497	 0.180029
H	 3.975189	 -0.620541	 1.595448
H	 3.284313	 0.997275	 1.788188

	symmetry c1
}
set optking {
	frozen_dihedral = ("
		9 5 8 12
	")
}

ee = optimize('scf')
oeprop('DIPOLE', 'QUADRUPOLE', 'MULLIKEN_CHARGES')
f=open( 'psi4out.xyz', 'w' )
f.write( "20  " )
f.write( str(ee) + "\n" )
f.write( MOL.save_string_xyz() )
f.close()
--------------------------------------------------------------------------

    Molecular point group: c1
  Charge       = 0
  Multiplicity = 1
  Basis Set: CC-PVTZ
  Basis Set:
  @DF-RHF Final Energy:  -384.08122869355390
    Total Energy =                       -384.0812286935539532
    Molecular point group: c1
  Basis Set: CC-PVTZ
  Basis Set:
  Basis Set: CC-PVTZ
  Basis Set:
  @DF-RHF Final Energy:  -384.08145517593874
    Total Energy =                       -384.0814551759384585
  Basis Set: CC-PVTZ
  Basis Set:
  Basis Set: CC-PVTZ
  Basis Set:
  @DF-RHF Final Energy:  -384.08115202180903
    Total Energy =                       -384.0811520218087480
  Basis Set: CC-PVTZ
  Basis Set:
  Basis Set: CC-PVTZ
  Basis Set:
  @DF-RHF Final Energy:  -384.08150182228064
    Total Energy =                       -384.0815018222806430
  Basis Set: CC-PVTZ
  Basis Set:
  Basis Set: CC-PVTZ
  Basis Set:
  @DF-RHF Final Energy:  -384.08150550010714
    Total Energy =                       -384.0815055001074825
  Basis Set: CC-PVTZ
  Basis Set:
  Charge       = 0
  Multiplicity = 1
  Basis Set: CC-PVTZ
  Basis Set:

    Orbital Energies (a.u.)
    -----------------------

    Doubly Occupied:

       1A    -20.596333     2A    -20.534196     3A    -11.364517
       4A    -11.278512     5A    -11.233833     6A    -11.218464
       7A    -11.217426     8A    -11.208718     9A     -1.472227
      10A     -1.365809    11A     -1.089307    12A     -1.025169
      13A     -0.969863    14A     -0.885885    15A     -0.804522
      16A     -0.769391    17A     -0.699633    18A     -0.686603
      19A     -0.675826    20A     -0.645915    21A     -0.598754
      22A     -0.595474    23A     -0.579107    24A     -0.542985
      25A     -0.534536    26A     -0.523809    27A     -0.503751
      28A     -0.476994    29A     -0.474712    30A     -0.471265
      31A     -0.459276    32A     -0.439762

  @DF-RHF Final Energy:  -384.08150557711116

   => Energetics <=

    Nuclear Repulsion Energy =            381.7117258227502248
    One-Electron Energy =               -1279.7013174861342577
    Two-Electron Energy =                 513.9080860862734426
    DFT Exchange-Correlation Energy =       0.0000000000000000
    Empirical Dispersion Energy =           0.0000000000000000
    PCM Polarization Energy =               0.0000000000000000
    EFP Energy =                            0.0000000000000000
    Total Energy =                       -384.0815055771106472
    Molecular point group: c1
  Basis Set: CC-PVTZ
  Basis Set:

  -Total Gradient:
     Atom            X                  Y                   Z
    ------   -----------------  -----------------  -----------------
       1       -0.000001463875    -0.000001535585     0.000006401947
       2       -0.000001044797     0.000006336480     0.000001373591
       3       -0.000002181058    -0.000002807190    -0.000021872284
       4        0.000003852012    -0.000004661698    -0.000006243112
       5       -0.003141603002     0.004800315317     0.000203243020
       6       -0.000001687976    -0.000001456740     0.000010318586
       7        0.000002106318     0.000003464573     0.000010190141
       8        0.002762201008    -0.004327615128     0.002480693046
       9        0.002187211949    -0.003337006811    -0.000548139613
      10        0.000004639569    -0.000003544286    -0.000002568890
      11        0.000005320706    -0.000004447717     0.000007186447
      12       -0.001818064934     0.002854933575    -0.002136224439
      13        0.000006761255     0.000010260727    -0.000005526315
      14       -0.000000959518     0.000001663388    -0.000001866507
      15       -0.000002691704     0.000000941435     0.000001790737
      16       -0.000003054793     0.000004155860    -0.000000374925
      17        0.000000612262     0.000000857851     0.000000948180
      18       -0.000000017998    -0.000000129658     0.000000297086
      19       -0.000000019941     0.000000087309     0.000000085249
      20        0.000000084520     0.000000188292     0.000000288054

  **** Optimization is complete! (in 6 steps) ****
    Final optimized geometry and variables:
    Molecular point group: c1

    Geometry (in Angstrom), charge = 0, multiplicity = 1:

    O            1.248673437074     1.258842606294    -0.258938909186
    C            1.110231656319     0.149575374806     0.130385601097
    C           -0.186384131990    -0.618685556841     0.141359956486
    O            2.103075143577    -0.575579449374     0.619177639584
    C           -1.371904588587     0.168055496901    -0.404034757705
    H           -0.025058089746    -1.528855896964    -0.427565863925
    H           -0.362040084063    -0.937126432871     1.163515990567
    C           -2.652416981460    -0.669947764714    -0.437985271783
    H           -1.123455171598     0.495312518274    -1.406443269961
    H           -1.516331965658     1.058842347938     0.195199027159
    C           -3.912920394540     0.188633398809    -0.506128608021
    H           -2.635270598797    -1.312572638347    -1.313217469750
    H           -2.704562916350    -1.314648764062     0.433990631494
    H           -3.892131240028     0.842839137963    -1.371402300308
    H           -4.803233735299    -0.425595842646    -0.577132197592
    H           -4.009053763597     0.812956158099     0.375602833815
    C            3.381594593632     0.024460221508     0.669021779826
    H            3.713542990538     0.297734201264    -0.321623656802
    H            4.041521287354    -0.715692892866     1.091576048574
    H            3.364609595516     0.907216563127     1.290869505733

  Mulliken Charges: (a.u.)
   Center  Symbol    Alpha    Beta     Spin     Total
       1     O     4.19684  4.19684  0.00000 -0.39367
       2     C     2.80685  2.80685  0.00000  0.38630
       3     C     3.10067  3.10067  0.00000 -0.20134
       4     O     4.14668  4.14668  0.00000 -0.29335
       5     C     3.08218  3.08218  0.00000 -0.16436
       6     H     0.43981  0.43981  0.00000  0.12038
       7     H     0.44041  0.44041  0.00000  0.11918
       8     C     3.08726  3.08726  0.00000 -0.17453
       9     H     0.44569  0.44569  0.00000  0.10863
      10     H     0.44731  0.44731  0.00000  0.10539
      11     C     3.14848  3.14848  0.00000 -0.29695
      12     H     0.45313  0.45313  0.00000  0.09374
      13     H     0.45602  0.45602  0.00000  0.08796
      14     H     0.45308  0.45308  0.00000  0.09383
      15     H     0.44900  0.44900  0.00000  0.10200
      16     H     0.45487  0.45487  0.00000  0.09025
      17     C     3.03767  3.03767  0.00000 -0.07533
      18     H     0.45435  0.45435  0.00000  0.09130
      19     H     0.44534  0.44534  0.00000  0.10933
      20     H     0.45438  0.45438  0.00000  0.09125

   Total alpha = 32.00000, Total beta = 32.00000, Total charge = -0.00000
