  ==> Input File <==

--------------------------------------------------------------------------
set {
	reference rhf
	basis 6-31G*
}

set_num_threads( 4 )
memory 2 gb

molecule MOL {
0 1

O	 0.625848	 1.349995	 -0.000749
C	 0.486307	 0.169203	 0.000779
C	 1.608116	 -0.841643	 0.000302
O	 -0.698257	 -0.426125	 0.001050
C	 2.990107	 -0.200498	 -0.000684
H	 1.468623	 -1.481519	 -0.865924
H	 1.469683	 -1.481289	 0.866878
H	 3.129736	 0.423364	 -0.875135
H	 3.757882	 -0.966877	 -0.001197
H	 3.130964	 0.423383	 0.873533
C	 -1.777321	 0.255703	 -0.629927
C	 -3.005787	 -0.619520	 -0.498908
H	 -1.523238	 0.435494	 -1.665640
H	 -1.916838	 1.214990	 -0.150454
H	 -2.848051	 -1.578398	 -0.979357
H	 -3.855938	 -0.135639	 -0.968751
H	 -3.243934	 -0.794651	 0.544103

	symmetry c1
}
set optking {
	frozen_dihedral = ("
		11 4 2 3
	")
}

ee = optimize('scf')
oeprop('DIPOLE', 'QUADRUPOLE', 'MULLIKEN_CHARGES')
f=open( 'psi4out.xyz', 'w' )
f.write( "17  " )
f.write( str(ee) + "\n" )
f.write( MOL.save_string_xyz() )
f.close()
--------------------------------------------------------------------------

    Molecular point group: c1
  Charge       = 0
  Multiplicity = 1
  Basis Set: 6-31G*
  Basis Set:
  @DF-RHF Final Energy:  -344.90693144762776
    Total Energy =                       -344.9069314476278691
    Molecular point group: c1
  Basis Set: 6-31G*
  Basis Set:
  Basis Set: 6-31G*
  Basis Set:
  @DF-RHF Final Energy:  -344.90438850971680
    Total Energy =                       -344.9043885097167959
  Basis Set: 6-31G*
  Basis Set:
  Basis Set: 6-31G*
  Basis Set:
  @DF-RHF Final Energy:  -344.90740611702552
    Total Energy =                       -344.9074061170253458
  Basis Set: 6-31G*
  Basis Set:
  Basis Set: 6-31G*
  Basis Set:
  @DF-RHF Final Energy:  -344.90753103981473
    Total Energy =                       -344.9075310398148417
  Basis Set: 6-31G*
  Basis Set:
  Basis Set: 6-31G*
  Basis Set:
  @DF-RHF Final Energy:  -344.90756718872802
    Total Energy =                       -344.9075671887280805
  Basis Set: 6-31G*
  Basis Set:
  Basis Set: 6-31G*
  Basis Set:
  @DF-RHF Final Energy:  -344.90757387034131
    Total Energy =                       -344.9075738703413663
  Basis Set: 6-31G*
  Basis Set:
  Charge       = 0
  Multiplicity = 1
  Basis Set: 6-31G*
  Basis Set:

    Orbital Energies (a.u.)
    -----------------------

    Doubly Occupied:

       1A    -20.596858     2A    -20.546152     3A    -11.371950
       4A    -11.286661     5A    -11.238396     6A    -11.222838
       7A    -11.216299     8A     -1.465069     9A     -1.362308
      10A     -1.069209    11A     -1.032600    12A     -0.909927
      13A     -0.850111    14A     -0.771992    15A     -0.696762
      16A     -0.686073    17A     -0.664560    18A     -0.629631
      19A     -0.585817    20A     -0.572155    21A     -0.557571
      22A     -0.525109    23A     -0.521609    24A     -0.514110
      25A     -0.503640    26A     -0.492985    27A     -0.451830
      28A     -0.434984

  @DF-RHF Final Energy:  -344.90757412082297

   => Energetics <=

    Nuclear Repulsion Energy =            314.5595176301413289
    One-Electron Energy =               -1093.3797710594606087
    Two-Electron Energy =                 433.9126793084963083
    DFT Exchange-Correlation Energy =       0.0000000000000000
    Empirical Dispersion Energy =           0.0000000000000000
    PCM Polarization Energy =               0.0000000000000000
    EFP Energy =                            0.0000000000000000
    Total Energy =                       -344.9075741208230284
    Molecular point group: c1
  Basis Set: 6-31G*
  Basis Set:

  -Total Gradient:
     Atom            X                  Y                   Z
    ------   -----------------  -----------------  -----------------
       1       -0.000059456917    -0.000067003775     0.000043528815
       2        0.001161138861    -0.000847749976     0.005622084839
       3       -0.000315127212    -0.000577981533    -0.005920446395
       4       -0.001883882332     0.005067639445     0.005780095450
       5       -0.000007383948    -0.000025455960     0.000000527744
       6        0.000003481855     0.000002223270     0.000004133428
       7       -0.000004493219    -0.000003831088     0.000004051880
       8        0.000003622944     0.000006247676    -0.000006407838
       9        0.000003293169     0.000005813481    -0.000001013770
      10       -0.000000491010    -0.000000852596     0.000000855474
      11        0.001130862450    -0.003602705411    -0.005544713371
      12       -0.000010548081     0.000022624261     0.000012717518
      13       -0.000016117621     0.000018309422    -0.000010342162
      14       -0.000005269724    -0.000000323597     0.000009690284
      15        0.000008520236     0.000009464635    -0.000000396004
      16       -0.000004257727    -0.000001643678     0.000002396282
      17       -0.000003891721    -0.000004774581     0.000003237826

  **** Optimization is complete! (in 7 steps) ****
    Final optimized geometry and variables:
    Molecular point group: c1

    Geometry (in Angstrom), charge = 0, multiplicity = 1:

    O            0.630705950265     1.384281119991    -0.084655070209
    C            0.475361501664     0.224230019258     0.118114160350
    C            1.580079009720    -0.803665300273     0.155990716175
    O           -0.723049818287    -0.340545890627     0.242174237684
    C            2.971453261961    -0.191573074841     0.258401410950
    H            1.474973689392    -1.385376951961    -0.756452291582
    H            1.383924004916    -1.492138066967     0.971325203408
    H            3.161570012231     0.481248431973    -0.568164809185
    H            3.725866562769    -0.970995389427     0.248437765197
    H            3.081547770904     0.374594533159     1.176202025856
    C           -1.821927736671     0.304329735572    -0.394412608231
    C           -3.022059058934    -0.609237893329    -0.265194304772
    H           -1.567020926137     0.482786737866    -1.431562574092
    H           -1.998593452882     1.261720188594     0.075135813936
    H           -2.830773371055    -1.565790075098    -0.737974531958
    H           -3.885228866385    -0.155664760234    -0.741582284031
    H           -3.258543274965    -0.784466552357     0.778057559553

  Mulliken Charges: (a.u.)
   Center  Symbol    Alpha    Beta     Spin     Total
       1     O     4.28110  4.28110  0.00000 -0.56221
       2     C     2.60532  2.60532  0.00000  0.78936
       3     C     3.20536  3.20536  0.00000 -0.41072
       4     O     4.31576  4.31576  0.00000 -0.63153
       5     C     3.24031  3.24031  0.00000 -0.48062
       6     H     0.40174  0.40174  0.00000  0.19653
       7     H     0.40081  0.40081  0.00000  0.19837
       8     H     0.40702  0.40702  0.00000  0.18595
       9     H     0.41786  0.41786  0.00000  0.16427
      10     H     0.41230  0.41230  0.00000  0.17541
      11     C     3.00218  3.00218  0.00000 -0.00437
      12     C     3.24821  3.24821  0.00000 -0.49641
      13     H     0.41544  0.41544  0.00000  0.16912
      14     H     0.40708  0.40708  0.00000  0.18583
      15     H     0.41274  0.41274  0.00000  0.17451
      16     H     0.41644  0.41644  0.00000  0.16712
      17     H     0.41031  0.41031  0.00000  0.17938

   Total alpha = 28.00000, Total beta = 28.00000, Total charge =  0.00000
