  ==> Input File <==

--------------------------------------------------------------------------
set {
	reference rhf
	basis 6-31G*
}

set_num_threads( 4 )
memory 2 gb

molecule MOL {
0 1

H	 -2.379989	 0.494399	 -0.866936
C	 -1.692896	 0.969458	 -0.174430
N	 -0.528168	 0.128977	 -0.000000
H	 -2.205770	 1.082888	 0.773794
H	 -1.465279	 1.965763	 -0.562802
C	 0.248044	 -0.037491	 -1.209632
H	 0.051760	 0.500974	 0.725486
H	 0.998722	 0.743888	 -1.266824
H	 -0.398417	 0.061950	 -2.074060
H	 0.763621	 -0.999315	 -1.275517

	symmetry c1
}
set optking {
	frozen_dihedral = ("
		2 3 6 8
	")
}

ee = optimize('scf')
oeprop('DIPOLE', 'QUADRUPOLE', 'MULLIKEN_CHARGES')
f=open( 'psi4out.xyz', 'w' )
f.write( "10  " )
f.write( str(ee) + "\n" )
f.write( MOL.save_string_xyz() )
f.close()
--------------------------------------------------------------------------

    Molecular point group: c1
  Charge       = 0
  Multiplicity = 1
  Basis Set: 6-31G*
  Basis Set:
  @DF-RHF Final Energy:  -134.23431216270245
    Total Energy =                       -134.2343121627023947
    Molecular point group: c1
  Basis Set: 6-31G*
  Basis Set:
  Basis Set: 6-31G*
  Basis Set:
  @DF-RHF Final Energy:  -134.23555071320840
    Total Energy =                       -134.2355507132083403
  Basis Set: 6-31G*
  Basis Set:
  Basis Set: 6-31G*
  Basis Set:
  @DF-RHF Final Energy:  -134.23569145596619
    Total Energy =                       -134.2356914559661618
  Basis Set: 6-31G*
  Basis Set:
  Basis Set: 6-31G*
  Basis Set:
  @DF-RHF Final Energy:  -134.23569756028803
    Total Energy =                       -134.2356975602879743
  Basis Set: 6-31G*
  Basis Set:
  Charge       = 0
  Multiplicity = 1
  Basis Set: 6-31G*
  Basis Set:

    Orbital Energies (a.u.)
    -----------------------

    Doubly Occupied:

       1A    -15.535022     2A    -11.236040     3A    -11.235648
       4A     -1.195560     5A     -0.947812     6A     -0.854513
       7A     -0.661625     8A     -0.606924     9A     -0.589311
      10A     -0.542826    11A     -0.513867    12A     -0.507058
      13A     -0.354719

  @DF-RHF Final Energy:  -134.23569838266303

   => Energetics <=

    Nuclear Repulsion Energy =             84.4597472789731825
    One-Electron Energy =                -347.8290409799867575
    Two-Electron Energy =                 129.1335953183505012
    DFT Exchange-Correlation Energy =       0.0000000000000000
    Empirical Dispersion Energy =           0.0000000000000000
    PCM Polarization Energy =               0.0000000000000000
    EFP Energy =                            0.0000000000000000
    Total Energy =                       -134.2356983826630881
    Molecular point group: c1
  Basis Set: 6-31G*
  Basis Set:

  -Total Gradient:
     Atom            X                  Y                   Z
    ------   -----------------  -----------------  -----------------
       1        0.000019083146    -0.000012092493     0.000002289048
       2       -0.001738687018    -0.002520677046    -0.000786485238
       3        0.003226974035     0.002907735630     0.001804097800
       4        0.000011415457    -0.000009656647    -0.000005113220
       5        0.000013287653    -0.000021813315     0.000007667426
       6       -0.004204275179     0.002123858257    -0.003174269674
       7       -0.000022767551     0.000009248230     0.000012287033
       8        0.002661764785    -0.002454157046     0.002101172599
       9        0.000017160009    -0.000007531065     0.000038783121
      10        0.000016044664    -0.000014914506    -0.000000428896

  **** Optimization is complete! (in 5 steps) ****
    Final optimized geometry and variables:
    Molecular point group: c1

    Geometry (in Angstrom), charge = 0, multiplicity = 1:

    H           -1.735349503766     0.130177512453    -0.392619724680
    C           -1.050475575675     0.593354287351     0.309241063178
    N            0.121535514657    -0.240621491489     0.458122205005
    H           -1.560387389500     0.670844416776     1.262831082788
    H           -0.841943534041     1.606104949534    -0.046432233995
    C            0.914757180591    -0.404138245170    -0.745092967095
    H            0.689604778675     0.077291605211     1.215942568670
    H            1.694637759600     0.349638938548    -0.861763621206
    H            0.273096228385    -0.372135905475    -1.617346792498
    H            1.407660329455    -1.371605230672    -0.736307709724

  Mulliken Charges: (a.u.)
   Center  Symbol    Alpha    Beta     Spin     Total
       1     H     0.41808  0.41808  0.00000  0.16384
       2     C     3.14236  3.14236  0.00000 -0.28472
       3     N     3.84455  3.84455  0.00000 -0.68911
       4     H     0.41785  0.41785  0.00000  0.16430
       5     H     0.43525  0.43525  0.00000  0.12951
       6     C     3.14350  3.14350  0.00000 -0.28701
       7     H     0.33120  0.33120  0.00000  0.33759
       8     H     0.43134  0.43134  0.00000  0.13732
       9     H     0.41950  0.41950  0.00000  0.16099
      10     H     0.41636  0.41636  0.00000  0.16728

   Total alpha = 13.00000, Total beta = 13.00000, Total charge = -0.00000
