  ==> Input File <==

--------------------------------------------------------------------------
set {
	reference rhf
	basis cc-pvtz
}

set_num_threads( 4 )
memory 2 gb

molecule MOL {
0 1

O	 -0.246283	 0.126172	 2.091061
C	 0.024163	 -0.475343	 1.107757
C	 1.212590	 -1.389556	 0.947402
O	 -0.695554	 -0.422406	 0.000602
C	 2.074324	 -1.485629	 2.196065
H	 1.784147	 -1.027243	 0.100052
H	 0.832310	 -2.361865	 0.654249
H	 2.464911	 -0.516249	 2.475279
H	 2.909042	 -2.153506	 2.021324
H	 1.504428	 -1.863000	 3.034537
C	 -1.852370	 0.402254	 0.000718
C	 -3.063338	 -0.501097	 -0.000437
H	 -1.831732	 1.039442	 -0.872158
H	 -1.832493	 1.038301	 0.874430
H	 -3.071944	 -1.133732	 -0.879113
H	 -3.966302	 0.097976	 -0.000483
H	 -3.072764	 -1.134834	 0.877435

	symmetry c1
}
set optking {
	frozen_dihedral = ("
		2 4 11 13
	")
}

ee = optimize('scf')
oeprop('DIPOLE', 'QUADRUPOLE', 'MULLIKEN_CHARGES')
f=open( 'psi4out.xyz', 'w' )
f.write( "17  " )
f.write( str(ee) + "\n" )
f.write( MOL.save_string_xyz() )
f.close()
--------------------------------------------------------------------------

    Molecular point group: c1
  Charge       = 0
  Multiplicity = 1
  Basis Set: CC-PVTZ
  Basis Set:
  @DF-RHF Final Energy:  -345.03770594325869
    Total Energy =                       -345.0377059432585156
    Molecular point group: c1
  Basis Set: CC-PVTZ
  Basis Set:
  Basis Set: CC-PVTZ
  Basis Set:
  @DF-RHF Final Energy:  -345.03833976762451
    Total Energy =                       -345.0383397676249615
  Basis Set: CC-PVTZ
  Basis Set:
  Basis Set: CC-PVTZ
  Basis Set:
  @DF-RHF Final Energy:  -345.03858474308879
    Total Energy =                       -345.0385847430890180
  Basis Set: CC-PVTZ
  Basis Set:
  Basis Set: CC-PVTZ
  Basis Set:
  @DF-RHF Final Energy:  -345.03872173443648
    Total Energy =                       -345.0387217344361375
  Basis Set: CC-PVTZ
  Basis Set:
  Basis Set: CC-PVTZ
  Basis Set:
  @DF-RHF Final Energy:  -345.03878672327949
    Total Energy =                       -345.0387867232791450
  Basis Set: CC-PVTZ
  Basis Set:
  Basis Set: CC-PVTZ
  Basis Set:
  @DF-RHF Final Energy:  -345.03879500897614
    Total Energy =                       -345.0387950089763081
  Basis Set: CC-PVTZ
  Basis Set:
  Basis Set: CC-PVTZ
  Basis Set:
  @DF-RHF Final Energy:  -345.03879845931567
    Total Energy =                       -345.0387984593152169
  Basis Set: CC-PVTZ
  Basis Set:
  Charge       = 0
  Multiplicity = 1
  Basis Set: CC-PVTZ
  Basis Set:

    Orbital Energies (a.u.)
    -----------------------

    Doubly Occupied:

       1A    -20.592193     2A    -20.532424     3A    -11.364968
       4A    -11.281125     5A    -11.235394     6A    -11.219220
       7A    -11.213458     8A     -1.468039     9A     -1.365265
      10A     -1.070035    11A     -1.030617    12A     -0.915139
      13A     -0.851885    14A     -0.767255    15A     -0.703977
      16A     -0.683894    17A     -0.662704    18A     -0.625643
      19A     -0.603001    20A     -0.569943    21A     -0.553611
      22A     -0.533047    23A     -0.521273    24A     -0.515885
      25A     -0.496404    26A     -0.494181    27A     -0.451058
      28A     -0.440015

  @DF-RHF Final Energy:  -345.03879866885507

   => Energetics <=

    Nuclear Repulsion Energy =            316.7204274032121702
    One-Electron Energy =               -1097.9951427641726696
    Two-Electron Energy =                 436.2359166921055476
    DFT Exchange-Correlation Energy =       0.0000000000000000
    Empirical Dispersion Energy =           0.0000000000000000
    PCM Polarization Energy =               0.0000000000000000
    EFP Energy =                            0.0000000000000000
    Total Energy =                       -345.0387986688549518
    Molecular point group: c1
  Basis Set: CC-PVTZ
  Basis Set:

  -Total Gradient:
     Atom            X                  Y                   Z
    ------   -----------------  -----------------  -----------------
       1       -0.000005289057    -0.000004410536     0.000004823384
       2        0.000484312314     0.000679053166    -0.000298194475
       3        0.000012499744     0.000014893331    -0.000000265852
       4       -0.000607737318    -0.000844954157     0.000532918009
       5        0.000001429281    -0.000006737051    -0.000000277089
       6       -0.000004754992    -0.000008399256     0.000005526552
       7       -0.000005612375    -0.000008032185     0.000002379939
       8        0.000002175434     0.000001983158     0.000001527921
       9        0.000002781466     0.000000835167     0.000001477969
      10        0.000000009294     0.000002209066    -0.000004319743
      11       -0.000343354901    -0.000515963478    -0.000744704071
      12        0.000002685779    -0.000001169222    -0.000004082223
      13        0.000463630655     0.000694589233     0.000499159310
      14        0.000000717389    -0.000003544465    -0.000001116498
      15       -0.000003076623    -0.000000066536     0.000001954119
      16       -0.000000558252     0.000000673158     0.000002385380
      17        0.000000142163    -0.000000959391     0.000000807366

  **** Optimization is complete! (in 8 steps) ****
    Final optimized geometry and variables:
    Molecular point group: c1

    Geometry (in Angstrom), charge = 0, multiplicity = 1:

    O            0.148500052679     0.631148881608     1.220234729333
    C            0.407433470530     0.053147049707     0.220147576743
    C            1.605633271239    -0.842444106053     0.026415946628
    O           -0.324078317804     0.107294179276    -0.880711327258
    C            2.485903898689    -0.952278979380     1.260888017779
    H            2.160479122637    -0.456095611284    -0.821337499484
    H            1.233421107429    -1.813380051205    -0.281104969532
    H            2.867996550131     0.016243569199     1.554393642800
    H            3.326591620974    -1.605488036005     1.060949660491
    H            1.932919996163    -1.354047991915     2.099348026848
    C           -1.490559627382     0.920699692181    -0.918613768466
    C           -2.731095672103     0.054233027062    -0.946447766862
    H           -1.407383856431     1.514756581201    -1.817763168414
    H           -1.494001131036     1.580466147604    -0.067431236471
    H           -2.707715735628    -0.626969578036    -1.787899100136
    H           -3.613263213399     0.678124547112    -1.034550614572
    H           -2.814436235608    -0.524946196969    -0.035086582263

  Mulliken Charges: (a.u.)
   Center  Symbol    Alpha    Beta     Spin     Total
       1     O     4.19858  4.19858  0.00000 -0.39717
       2     C     2.80069  2.80069  0.00000  0.39862
       3     C     3.09516  3.09516  0.00000 -0.19032
       4     O     4.15774  4.15774  0.00000 -0.31548
       5     C     3.14024  3.14024  0.00000 -0.28049
       6     H     0.44183  0.44183  0.00000  0.11635
       7     H     0.44194  0.44194  0.00000  0.11611
       8     H     0.44846  0.44846  0.00000  0.10307
       9     H     0.45064  0.45064  0.00000  0.09873
      10     H     0.44861  0.44861  0.00000  0.10278
      11     C     2.99020  2.99020  0.00000  0.01960
      12     C     3.14010  3.14010  0.00000 -0.28020
      13     H     0.44869  0.44869  0.00000  0.10262
      14     H     0.44353  0.44353  0.00000  0.11295
      15     H     0.45168  0.45168  0.00000  0.09663
      16     H     0.45271  0.45271  0.00000  0.09457
      17     H     0.44919  0.44919  0.00000  0.10162

   Total alpha = 28.00000, Total beta = 28.00000, Total charge = -0.00000
