  ==> Input File <==

--------------------------------------------------------------------------
set {
	reference rhf
	basis 6-31G*
}

set_num_threads( 1 )
memory 2 gb

molecule MOL {
0 1

H	 4.376190	 3.381723	 -1.515302
C	 3.509353	 3.184540	 -2.138386
C	 2.519813	 2.259322	 -1.431309
H	 3.048647	 4.138883	 -2.375709
H	 3.862819	 2.746885	 -3.068074
C	 1.287491	 1.954947	 -2.286032
H	 2.208416	 2.714714	 -0.496830
H	 3.019665	 1.326305	 -1.175732
C	 0.286992	 1.016224	 -1.611443
H	 0.784562	 2.880846	 -2.541801
H	 1.607046	 1.499362	 -3.220573
C	 -0.474472	 1.640601	 -0.451457
H	 -0.460278	 0.694238	 -2.335102
H	 0.776495	 0.106774	 -1.270175
C	 -1.181045	 0.701995	 0.511084
O	 -0.534197	 2.824680	 -0.307253
C	 -2.285934	 -0.139295	 -0.145128
H	 -1.596588	 1.313967	 1.302619
H	 -0.440032	 0.039920	 0.955202
C	 -3.651768	 0.085446	 0.506485
H	 -2.346596	 0.110469	 -1.202272
H	 -2.034737	 -1.195320	 -0.088721
C	 -4.759797	 -0.746382	 -0.137905
H	 -3.908762	 1.140117	 0.445781
H	 -3.588286	 -0.154158	 1.565709
H	 -4.868882	 -0.505166	 -1.191300
H	 -4.548009	 -1.809175	 -0.062213
H	 -5.715422	 -0.564821	 0.343442

	symmetry c1
}
set optking {
	frozen_dihedral = ("
		10 6 3 2,
		16 12 15 17
	")
}

ee = energy('scf')
oeprop('DIPOLE', 'QUADRUPOLE', 'MULLIKEN_CHARGES')
f=open( 'psi4out.xyz', 'w' )
f.write( "28  " )
f.write( str(ee) + "\n" )
f.write( MOL.save_string_xyz() )
f.close()
--------------------------------------------------------------------------

    Molecular point group: c1

    Geometry (in Angstrom), charge = 0, multiplicity = 1:

       Center              X                  Y                   Z               Mass
    ------------   -----------------  -----------------  -----------------  -----------------
           H          4.906932297514     2.096510564002    -0.761239225313     1.007825032070
           C          4.040095297514     1.899327564002    -1.384323225313    12.000000000000
           C          3.050555297514     0.974109564002    -0.677246225313    12.000000000000
           H          3.579389297514     2.853670564002    -1.621646225313     1.007825032070
           H          4.393561297514     1.461672564002    -2.314011225313     1.007825032070
           C          1.818233297514     0.669734564002    -1.531969225313    12.000000000000
           H          2.739158297514     1.429501564002     0.257232774687     1.007825032070
           H          3.550407297514     0.041092564002    -0.421669225313     1.007825032070
           C          0.817734297514    -0.268988435998    -0.857380225313    12.000000000000
           H          1.315304297514     1.595633564002    -1.787738225313     1.007825032070
           H          2.137788297514     0.214149564002    -2.466510225313     1.007825032070
           C          0.056270297514     0.355388564002     0.302605774687    12.000000000000
           H          0.070464297514    -0.590974435998    -1.581039225313     1.007825032070
           H          1.307237297514    -1.178438435998    -0.516112225313     1.007825032070
           C         -0.650302702486    -0.583217435998     1.265146774687    12.000000000000
           O         -0.003454702486     1.539467564002     0.446809774687    15.994914619560
           C         -1.755191702486    -1.424507435998     0.608934774687    12.000000000000
           H         -1.065845702486     0.028754564002     2.056681774687     1.007825032070
           H          0.090710297514    -1.245292435998     1.709264774687     1.007825032070
           C         -3.121025702486    -1.199766435998     1.260547774687    12.000000000000
           H         -1.815853702486    -1.174743435998    -0.448209225313     1.007825032070
           H         -1.503994702486    -2.480532435998     0.665341774687     1.007825032070
           C         -4.229054702486    -2.031594435998     0.616157774687    12.000000000000
           H         -3.378019702486    -0.145095435998     1.199843774687     1.007825032070
           H         -3.057543702486    -1.439370435998     2.319771774687     1.007825032070
           H         -4.338139702486    -1.790378435998    -0.437237225313     1.007825032070
           H         -4.017266702486    -3.094387435998     0.691849774687     1.007825032070
           H         -5.184679702486    -1.850033435998     1.097504774687     1.007825032070

  Charge       = 0
  Multiplicity = 1
  Basis Set: 6-31G*
  Basis Set:

    Orbital Energies (a.u.)
    -----------------------

    Doubly Occupied:

       1A    -20.548080     2A    -11.322147     3A    -11.231090
       4A    -11.230036     5A    -11.227120     6A    -11.224096
       7A    -11.216646     8A    -11.214526     9A    -11.212420
      10A    -11.205797    11A     -1.393268    12A     -1.094753
      13A     -1.077255    14A     -1.021817    15A     -0.990275
      16A     -0.906554    17A     -0.872965    18A     -0.809313
      19A     -0.799798    20A     -0.723793    21A     -0.671380
      22A     -0.645245    23A     -0.629608    24A     -0.616568
      25A     -0.609404    26A     -0.585601    27A     -0.584591
      28A     -0.573692    29A     -0.538692    30A     -0.530161
      31A     -0.523520    32A     -0.510689    33A     -0.502114
      34A     -0.480975    35A     -0.479770    36A     -0.471890
      37A     -0.467219    38A     -0.463530    39A     -0.454882
      40A     -0.392719

  @DF-RHF Final Energy:  -426.16338181364790

   => Energetics <=

    Nuclear Repulsion Energy =            533.3647773835225507
    One-Electron Energy =               -1634.9484275403524407
    Two-Electron Energy =                 675.4202683431808509
    DFT Exchange-Correlation Energy =       0.0000000000000000
    Empirical Dispersion Energy =           0.0000000000000000
    PCM Polarization Energy =               0.0000000000000000
    EFP Energy =                            0.0000000000000000
    Total Energy =                       -426.1633818136490390

  Mulliken Charges: (a.u.)
   Center  Symbol    Alpha    Beta     Spin     Total
       1     H     0.41932  0.41932  0.00000  0.16135
       2     C     3.24013  3.24013  0.00000 -0.48026
       3     C     3.15640  3.15640  0.00000 -0.31280
       4     H     0.41831  0.41831  0.00000  0.16337
       5     H     0.42360  0.42360  0.00000  0.15280
       6     C     3.14892  3.14892  0.00000 -0.29783
       7     H     0.41049  0.41049  0.00000  0.17903
       8     H     0.42764  0.42764  0.00000  0.14471
       9     C     3.21103  3.21103  0.00000 -0.42206
      10     H     0.40667  0.40667  0.00000  0.18666
      11     H     0.42192  0.42192  0.00000  0.15616
      12     C     2.73714  2.73714  0.00000  0.52572
      13     H     0.40282  0.40282  0.00000  0.19436
      14     H     0.41298  0.41298  0.00000  0.17403
      15     C     3.20295  3.20295  0.00000 -0.40590
      16     O     4.26578  4.26578  0.00000 -0.53157
      17     C     3.16232  3.16232  0.00000 -0.32463
      18     H     0.39753  0.39753  0.00000  0.20495
      19     H     0.41017  0.41017  0.00000  0.17967
      20     C     3.15451  3.15451  0.00000 -0.30902
      21     H     0.41784  0.41784  0.00000  0.16433
      22     H     0.41638  0.41638  0.00000  0.16725
      23     C     3.24092  3.24092  0.00000 -0.48185
      24     H     0.41543  0.41543  0.00000  0.16914
      25     H     0.41998  0.41998  0.00000  0.16003
      26     H     0.42057  0.42057  0.00000  0.15885
      27     H     0.42147  0.42147  0.00000  0.15706
      28     H     0.41677  0.41677  0.00000  0.16645

   Total alpha = 40.00000, Total beta = 40.00000, Total charge =  0.00000
