  ==> Input File <==

--------------------------------------------------------------------------
set {
	reference rhf
	basis 6-31G*
}

set_num_threads( 4 )
memory 2 gb

molecule MOL {
0 1

O	 -1.690416	 -0.748373	 -0.401552
C	 -1.083277	 0.139568	 0.115197
C	 0.323299	 -0.082943	 0.642902
C	 -1.685909	 1.515353	 0.293742
C	 1.355627	 -0.005344	 -0.493127
H	 0.396251	 -1.044647	 1.143147
H	 0.528637	 0.693580	 1.371677
C	 2.786168	 -0.195604	 0.007473
H	 1.132807	 -0.760304	 -1.243899
H	 1.259610	 0.958506	 -0.981915
H	 3.495561	 -0.130713	 -0.811210
H	 2.912696	 -1.165395	 0.480041
H	 3.049284	 0.565503	 0.735850
H	 -1.594763	 1.845036	 1.324601
H	 -2.726911	 1.503837	 0.002335
H	 -1.147362	 2.232113	 -0.320608

	symmetry c1
}
set optking {
	frozen_dihedral = ("
		4 2 3 5
	")
}

ee = optimize('scf')
oeprop('DIPOLE', 'QUADRUPOLE', 'MULLIKEN_CHARGES')
f=open( 'psi4out.xyz', 'w' )
f.write( "16  " )
f.write( str(ee) + "\n" )
f.write( MOL.save_string_xyz() )
f.close()
--------------------------------------------------------------------------

    Molecular point group: c1
  Charge       = 0
  Multiplicity = 1
  Basis Set: 6-31G*
  Basis Set:
  @DF-RHF Final Energy:  -270.02921238358761
    Total Energy =                       -270.0292123835879465
    Molecular point group: c1
  Basis Set: 6-31G*
  Basis Set:
  Basis Set: 6-31G*
  Basis Set:
  @DF-RHF Final Energy:  -270.02839008314470
    Total Energy =                       -270.0283900831446999
  Basis Set: 6-31G*
  Basis Set:
  Basis Set: 6-31G*
  Basis Set:
  @DF-RHF Final Energy:  -270.02992557389803
    Total Energy =                       -270.0299255738980264
  Basis Set: 6-31G*
  Basis Set:
  Basis Set: 6-31G*
  Basis Set:
  @DF-RHF Final Energy:  -270.03029127332127
    Total Energy =                       -270.0302912733212679
  Basis Set: 6-31G*
  Basis Set:
  @DF-RHF Final Energy:  -270.03033504110238
    Total Energy =                       -270.0303350411023757
  @DF-RHF Final Energy:  -270.03036174147019
    Total Energy =                       -270.0303617414700739
  @DF-RHF Final Energy:  -270.03036884416883
    Total Energy =                       -270.0303688441690610
  @DF-RHF Final Energy:  -270.03037222831665
    Total Energy =                       -270.0303722283164802
  Basis Set: 6-31G*
  Basis Set:
  @DF-RHF Final Energy:  -270.03037037567617
    Total Energy =                       -270.0303703756761706
  Basis Set: 6-31G*
  Basis Set:
  Basis Set: 6-31G*
  Basis Set:
  @DF-RHF Final Energy:  -270.03037150932687
    Total Energy =                       -270.0303715093270398
  Basis Set: 6-31G*
  Basis Set:
  Basis Set: 6-31G*
  Basis Set:
  @DF-RHF Final Energy:  -270.03037378702004
    Total Energy =                       -270.0303737870200393
  Basis Set: 6-31G*
  Basis Set:
  Charge       = 0
  Multiplicity = 1
  Basis Set: 6-31G*
  Basis Set:

    Orbital Energies (a.u.)
    -----------------------

    Doubly Occupied:

       1A    -20.548008     2A    -11.325082     3A    -11.232699
       4A    -11.229941     5A    -11.228700     6A    -11.219091
       7A     -1.393790     8A     -1.082040     9A     -1.013390
      10A     -0.949388    11A     -0.828573    12A     -0.735238
      13A     -0.659430    14A     -0.648287    15A     -0.611667
      16A     -0.607082    17A     -0.575633    18A     -0.559022
      19A     -0.538512    20A     -0.517046    21A     -0.502613
      22A     -0.483962    23A     -0.471180    24A     -0.398214

  @DF-RHF Final Energy:  -270.03037429229994

   => Energetics <=

    Nuclear Repulsion Energy =            237.0140240938315230
    One-Electron Energy =                -835.3716223707472182
    Two-Electron Energy =                 328.3272239846157845
    DFT Exchange-Correlation Energy =       0.0000000000000000
    Empirical Dispersion Energy =           0.0000000000000000
    PCM Polarization Energy =               0.0000000000000000
    EFP Energy =                            0.0000000000000000
    Total Energy =                       -270.0303742922999390
    Molecular point group: c1
  Basis Set: 6-31G*
  Basis Set:

  -Total Gradient:
     Atom            X                  Y                   Z
    ------   -----------------  -----------------  -----------------
       1        0.000013692672     0.000006791931     0.000012146531
       2        0.000011347696     0.000013255833    -0.000036593140
       3       -0.000001156251     0.000005727536     0.000003877117
       4       -0.000016559514    -0.000010724869     0.000037238819
       5       -0.000000196293     0.000003725316    -0.000002491745
       6       -0.000001407613    -0.000006044377     0.000005910244
       7       -0.000005550141    -0.000003688798    -0.000008477954
       8       -0.000001649655    -0.000004248529     0.000002835764
       9       -0.000000773829    -0.000000889431     0.000011770722
      10       -0.000002389897     0.000000087996    -0.000013432453
      11       -0.000001424440     0.000003581674     0.000000209380
      12        0.000009415624    -0.000006051477    -0.000000178438
      13       -0.000007564645    -0.000004028523     0.000000175750
      14       -0.000002410040     0.000003896293    -0.000002470384
      15        0.000002631871     0.000001921226    -0.000006646216
      16        0.000003994454    -0.000003311800    -0.000003873998

  **** Optimization is complete! (in 12 steps) ****
    Final optimized geometry and variables:
    Molecular point group: c1

    Geometry (in Angstrom), charge = 0, multiplicity = 1:

    O           -1.679943827101    -0.880246714920    -0.378978572783
    C           -1.090842593558     0.029849494115     0.119787916846
    C            0.329732086891    -0.147578270508     0.627038038629
    C           -1.712074761817     1.402704937223     0.249634635408
    C            1.337089712469    -0.105177347474    -0.532877683036
    H            0.385754621919    -1.112533031657     1.119196532493
    H            0.573945658472     0.618988180809     1.357127839120
    C            2.775445918284    -0.310544846900    -0.061545655366
    H            1.069306835251    -0.873179533769    -1.250815122791
    H            1.259860274828     0.848079324128    -1.051230462516
    H            3.465824281377    -0.281245677097    -0.898326484206
    H            2.891469991000    -1.271275837664     0.431032413492
    H            3.073809616948     0.461465396222     0.641877770488
    H           -1.860170823362     1.638828962601     1.300107870810
    H           -2.664209884469     1.427884039834    -0.261763484496
    H           -1.053126846771     2.163084260461    -0.159530594106

  Mulliken Charges: (a.u.)
   Center  Symbol    Alpha    Beta     Spin     Total
       1     O     4.26205  4.26205  0.00000 -0.52410
       2     C     2.73750  2.73750  0.00000  0.52500
       3     C     3.19896  3.19896  0.00000 -0.39792
       4     C     3.28953  3.28953  0.00000 -0.57906
       5     C     3.16118  3.16118  0.00000 -0.32237
       6     H     0.40129  0.40129  0.00000  0.19742
       7     H     0.41713  0.41713  0.00000  0.16575
       8     C     3.23979  3.23979  0.00000 -0.47957
       9     H     0.40499  0.40499  0.00000  0.19003
      10     H     0.42001  0.42001  0.00000  0.15999
      11     H     0.41543  0.41543  0.00000  0.16914
      12     H     0.41771  0.41771  0.00000  0.16458
      13     H     0.42093  0.42093  0.00000  0.15815
      14     H     0.40678  0.40678  0.00000  0.18644
      15     H     0.39696  0.39696  0.00000  0.20607
      16     H     0.40976  0.40976  0.00000  0.18048

   Total alpha = 24.00000, Total beta = 24.00000, Total charge =  0.00000
