                              Psi4 1.0.54 Driver

  ==> Input File <==

--------------------------------------------------------------------------
set {
	reference rhf
	basis cc-pvtz
}

set_num_threads( 4 )
memory 2 gb

molecule MOL {
0 1

H	 3.345577	 1.186046	 -1.982398
N	 2.571054	 0.557002	 -1.976462
C	 1.602246	 0.928465	 -0.957204
H	 2.935327	 -0.357027	 -1.805565
C	 0.385196	 0.016858	 -1.007082
H	 1.292281	 1.949821	 -1.151271
H	 2.020004	 0.914392	 0.050385
C	 -0.678115	 0.376691	 0.025731
H	 -0.036207	 0.058021	 -2.006147
H	 0.705632	 -1.011387	 -0.850502
C	 -1.900706	 -0.535531	 -0.022488
H	 -0.995222	 1.405615	 -0.128260
H	 -0.244440	 0.338877	 1.022410
C	 -3.220513	 0.226854	 0.028039
H	 -1.865036	 -1.134397	 -0.928236
H	 -1.857948	 -1.236381	 0.806820
H	 -3.309098	 0.911849	 -0.808725
H	 -4.066838	 -0.449485	 -0.008086
H	 -3.301685	 0.809374	 0.939860

	symmetry c1
}
set optking {
	frozen_dihedral = ("
		12 8 11 15
	")
}

ee,wfn = optimize('scf', return_wfn=True)
oeprop( wfn, 'DIPOLE', 'QUADRUPOLE', 'MULLIKEN_CHARGES')
f=open( 'psi4out.xyz', 'w' )
f.write( "19  " )
f.write( str(ee) + "\n" )
f.write( MOL.save_string_xyz() )
f.close()
--------------------------------------------------------------------------

    Molecular point group: c1
  Charge       = 0
  Multiplicity = 1
  Basis Set: CC-PVTZ
  Basis Set:
  @DF-RHF Final Energy:  -251.44306616468950
    Total Energy =                       -251.4430661646896965
    Molecular point group: c1
  Basis Set: CC-PVTZ
  Basis Set:
  Basis Set: CC-PVTZ
  Basis Set:
  @DF-RHF Final Energy:  -251.44333137194911
    Total Energy =                       -251.4433313719489433
  Basis Set: CC-PVTZ
  Basis Set:
  Basis Set: CC-PVTZ
  Basis Set:
  @DF-RHF Final Energy:  -251.44339774260152
    Total Energy =                       -251.4433977426015190
  Basis Set: CC-PVTZ
  Basis Set:
  Charge       = 0
  Multiplicity = 1
  Basis Set: CC-PVTZ
  Basis Set:

    Orbital Energies (a.u.)
    -----------------------

    Doubly Occupied:

       1A    -15.526464     2A    -11.237823     3A    -11.211584
       4A    -11.210164     5A    -11.208303     6A    -11.205779
       7A     -1.178170     8A     -1.071870     9A     -0.999531
      10A     -0.900701    11A     -0.815103    12A     -0.789714
      13A     -0.665957    14A     -0.637468    15A     -0.615774
      16A     -0.591763    17A     -0.575010    18A     -0.538600
      19A     -0.534090    20A     -0.496780    21A     -0.488132
      22A     -0.464884    23A     -0.453803    24A     -0.449687
      25A     -0.383818

  @DF-RHF Final Energy:  -251.44339861363198

   => Energetics <=

    Nuclear Repulsion Energy =            246.1504284254291406
    One-Electron Energy =                -826.6857092426587315
    Two-Electron Energy =                 329.0918822035976063
    DFT Exchange-Correlation Energy =       0.0000000000000000
    Empirical Dispersion Energy =           0.0000000000000000
    PCM Polarization Energy =               0.0000000000000000
    EFP Energy =                            0.0000000000000000
    Total Energy =                       -251.4433986136319845
    Molecular point group: c1
  Basis Set: CC-PVTZ
  Basis Set:

  -Total Gradient:
     Atom            X                  Y                   Z
    ------   -----------------  -----------------  -----------------
       1        0.000027741439    -0.000007561631    -0.000018967744
       2        0.000039179061     0.000040095422    -0.000006027777
       3       -0.000027091741    -0.000024910348    -0.000008432727
       4        0.000000521721     0.000001705270     0.000003740836
       5        0.000006196889    -0.000000367291    -0.000008055755
       6        0.000011879290    -0.000001768527     0.000000360455
       7       -0.000000950310     0.000005427357    -0.000003370639
       8        0.000859689182    -0.001021279220    -0.003639309895
       9       -0.000008105257     0.000000156821     0.000013160684
      10       -0.000013544404     0.000013019352     0.000013136691
      11       -0.002220192709     0.002967580033    -0.001232355614
      12       -0.000357032793     0.000352440691     0.003280768739
      13        0.000003449430    -0.000004543077    -0.000018408376
      14       -0.000065238843     0.000016225569     0.000004181702
      15        0.001715250203    -0.002322536436     0.001637547494
      16       -0.000010936707     0.000023443703    -0.000010679407
      17        0.000018737793    -0.000014518049     0.000010973077
      18        0.000002116754    -0.000007440046     0.000000775077
      19        0.000018330999    -0.000015169591    -0.000019036821

  **** Optimization is complete! (in 4 steps) ****
    Final optimized geometry and variables:
    Molecular point group: c1

    Geometry (in Angstrom), charge = 0, multiplicity = 1:

    H            3.551531285978     0.897816512940    -1.288063880659
    N            2.769240308691     0.278441942656    -1.295929693428
    C            1.792085601123     0.655137635324    -0.286517054666
    H            3.120320839265    -0.640967707990    -1.126184042668
    C            0.564532431870    -0.240305812770    -0.358084512951
    H            1.496991437997     1.681579354046    -0.477317541039
    H            2.196570747093     0.629187547393     0.726226858051
    C           -0.512173246522     0.130304371124     0.656138807447
    H            0.158891224636    -0.193426244265    -1.363411745812
    H            0.867881013956    -1.273288960974    -0.197001714083
    C           -1.740814658114    -0.797925306616     0.625275509826
    H           -0.827289387749     1.158583152833     0.500984939129
    H           -0.080812266086     0.117038537519     1.653391689267
    C           -3.071300046758    -0.060174894533     0.721157876401
    H           -1.718230901853    -1.404556823567    -0.274606111377
    H           -1.672377647335    -1.507760633649     1.443992985811
    H           -3.203144801987     0.616091762305    -0.116870554520
    H           -3.906177441796    -0.751796547302     0.725086796176
    H           -3.125411620115     0.529138991154     1.630749803401

  Mulliken Charges: (a.u.)
   Center  Symbol    Alpha    Beta     Spin     Total
       1     H     0.43025  0.43025  0.00000  0.13950
       2     N     3.68893  3.68893  0.00000 -0.37786
       3     C     3.02760  3.02760  0.00000 -0.05520
       4     H     0.43108  0.43108  0.00000  0.13783
       5     C     3.08256  3.08256  0.00000 -0.16512
       6     H     0.45685  0.45685  0.00000  0.08630
       7     H     0.46860  0.46860  0.00000  0.06279
       8     C     3.09718  3.09718  0.00000 -0.19436
       9     H     0.44885  0.44885  0.00000  0.10229
      10     H     0.45897  0.45897  0.00000  0.08207
      11     C     3.08582  3.08582  0.00000 -0.17163
      12     H     0.45456  0.45456  0.00000  0.09088
      13     H     0.45457  0.45457  0.00000  0.09086
      14     C     3.14759  3.14759  0.00000 -0.29518
      15     H     0.45373  0.45373  0.00000  0.09255
      16     H     0.45325  0.45325  0.00000  0.09349
      17     H     0.45501  0.45501  0.00000  0.08998
      18     H     0.44978  0.44978  0.00000  0.10045
      19     H     0.45483  0.45483  0.00000  0.09035

   Total alpha = 25.00000, Total beta = 25.00000, Total charge = -0.00000

*** Psi4 exiting successfully. Buy a developer a beer!
