  ==> Input File <==

--------------------------------------------------------------------------
set {
	reference rhf
	basis 6-31G*
}

set_num_threads( 1 )
memory 2 gb

molecule MOL {
0 1

O	 -2.042549	 -1.228399	 -0.269030
C	 -1.653912	 -0.146171	 0.050137
C	 -0.332303	 0.024011	 0.778412
C	 -2.438579	 1.106236	 -0.272369
C	 0.783137	 0.433300	 -0.196343
H	 -0.424542	 0.765418	 1.567203
H	 -0.083600	 -0.927445	 1.235357
C	 2.140203	 0.585880	 0.492223
H	 0.520746	 1.371042	 -0.683040
H	 0.850293	 -0.315672	 -0.979716
C	 3.253086	 0.984110	 -0.476339
H	 2.063534	 1.330566	 1.281520
H	 2.401787	 -0.350846	 0.978728
H	 3.036240	 1.935291	 -0.954131
H	 3.375239	 0.241320	 -1.259144
H	 4.203523	 1.081960	 0.038562
H	 -3.277823	 0.863061	 -0.908988
H	 -1.806773	 1.843019	 -0.759671
H	 -2.802853	 1.554979	 0.648059

	symmetry c1
}
set optking {
	frozen_dihedral = ("
		11 8 5 9,
		9 5 3 2
	")
}

ee = energy('scf')
oeprop('DIPOLE', 'QUADRUPOLE', 'MULLIKEN_CHARGES')
f=open( 'psi4out.xyz', 'w' )
f.write( "19  " )
f.write( str(ee) + "\n" )
f.write( MOL.save_string_xyz() )
f.close()
--------------------------------------------------------------------------

    Molecular point group: c1

    Geometry (in Angstrom), charge = 0, multiplicity = 1:

       Center              X                  Y                   Z               Mass
    ------------   -----------------  -----------------  -----------------  -----------------
           O         -2.007260289721    -1.484835705730    -0.273145157214    15.994914619560
           C         -1.618623289721    -0.402607705730     0.046021842786    12.000000000000
           C         -0.297014289721    -0.232425705730     0.774296842786    12.000000000000
           C         -2.403290289721     0.849799294270    -0.276484157214    12.000000000000
           C          0.818425710279     0.176863294270    -0.200458157214    12.000000000000
           H         -0.389253289721     0.508981294270     1.563087842786     1.007825032070
           H         -0.048311289721    -1.183881705730     1.231241842786     1.007825032070
           C          2.175491710279     0.329443294270     0.488107842786    12.000000000000
           H          0.556034710279     1.114605294270    -0.687155157214     1.007825032070
           H          0.885581710279    -0.572108705730    -0.983831157214     1.007825032070
           C          3.288374710279     0.727673294270    -0.480454157214    12.000000000000
           H          2.098822710279     1.074129294270     1.277404842786     1.007825032070
           H          2.437075710279    -0.607282705730     0.974612842786     1.007825032070
           H          3.071528710279     1.678854294270    -0.958246157214     1.007825032070
           H          3.410527710279    -0.015116705730    -1.263259157214     1.007825032070
           H          4.238811710279     0.825523294270     0.034446842786     1.007825032070
           H         -3.242534289721     0.606624294270    -0.913103157214     1.007825032070
           H         -1.771484289721     1.586582294270    -0.763786157214     1.007825032070
           H         -2.767564289721     1.298542294270     0.643943842786     1.007825032070

  Charge       = 0
  Multiplicity = 1
  Basis Set: 6-31G*
  Basis Set:

    Orbital Energies (a.u.)
    -----------------------

    Doubly Occupied:

       1A    -20.547813     2A    -11.324306     3A    -11.232307
       4A    -11.229309     5A    -11.228068     6A    -11.226141
       7A    -11.216052     8A     -1.393178     9A     -1.093275
      10A     -1.029628    11A     -0.983232    12A     -0.891266
      13A     -0.808437    14A     -0.733638    15A     -0.664119
      16A     -0.646053    17A     -0.623728    18A     -0.613856
      19A     -0.581829    20A     -0.574553    21A     -0.553219
      22A     -0.536778    23A     -0.509133    24A     -0.503741
      25A     -0.484430    26A     -0.477010    27A     -0.468759
      28A     -0.396901

  @DF-RHF Final Energy:  -309.06479910165501

   => Energetics <=

    Nuclear Repulsion Energy =            301.5121660463339595
    One-Electron Energy =               -1016.0123331819427221
    Two-Electron Energy =                 405.4353680339535799
    DFT Exchange-Correlation Energy =       0.0000000000000000
    Empirical Dispersion Energy =           0.0000000000000000
    PCM Polarization Energy =               0.0000000000000000
    EFP Energy =                            0.0000000000000000
    Total Energy =                       -309.0647991016551828

  Mulliken Charges: (a.u.)
   Center  Symbol    Alpha    Beta     Spin     Total
       1     O     4.26071  4.26071  0.00000 -0.52142
       2     C     2.73711  2.73711  0.00000  0.52578
       3     C     3.20092  3.20092  0.00000 -0.40185
       4     C     3.28958  3.28958  0.00000 -0.57917
       5     C     3.16384  3.16384  0.00000 -0.32769
       6     H     0.41572  0.41572  0.00000  0.16857
       7     H     0.40006  0.40006  0.00000  0.19989
       8     C     3.15130  3.15130  0.00000 -0.30260
       9     H     0.42065  0.42065  0.00000  0.15871
      10     H     0.40936  0.40936  0.00000  0.18128
      11     C     3.24038  3.24038  0.00000 -0.48076
      12     H     0.42182  0.42182  0.00000  0.15636
      13     H     0.41858  0.41858  0.00000  0.16285
      14     H     0.42125  0.42125  0.00000  0.15750
      15     H     0.41903  0.41903  0.00000  0.16193
      16     H     0.41707  0.41707  0.00000  0.16587
      17     H     0.39648  0.39648  0.00000  0.20703
      18     H     0.40909  0.40909  0.00000  0.18181
      19     H     0.40705  0.40705  0.00000  0.18590

   Total alpha = 28.00000, Total beta = 28.00000, Total charge = -0.00000
