                              Psi4 1.0.54 Driver

  ==> Input File <==

--------------------------------------------------------------------------
set {
	reference rhf
	basis cc-pvtz
}

set_num_threads( 4 )
memory 2 gb

molecule MOL {
0 1

O	 -1.289428	 0.306986	 -1.035920
C	 -1.081510	 0.147522	 0.122720
C	 0.327029	 -0.064006	 0.641890
C	 -2.203181	 0.127988	 1.133532
C	 1.349460	 -0.017068	 -0.500215
H	 0.399029	 -1.014606	 1.159950
H	 0.538021	 0.726928	 1.350471
C	 2.779782	 -0.209014	 -0.009215
H	 1.115007	 -0.782959	 -1.233891
H	 1.259071	 0.936707	 -1.006644
H	 3.481860	 -0.160270	 -0.833072
H	 2.903471	 -1.171535	 0.475559
H	 3.052569	 0.559584	 0.705428
H	 -2.130033	 -0.747205	 1.769490
H	 -3.157616	 0.141037	 0.630163
H	 -2.120136	 0.998694	 1.776048

	symmetry c1
}
set optking {
	frozen_dihedral = ("
		4 2 3 5
	")
}

ee,wfn = optimize('scf', return_wfn=True)
oeprop( wfn, 'DIPOLE', 'QUADRUPOLE', 'MULLIKEN_CHARGES')
f=open( 'psi4out.xyz', 'w' )
f.write( "16  " )
f.write( str(ee) + "\n" )
f.write( MOL.save_string_xyz() )
f.close()
--------------------------------------------------------------------------

    Molecular point group: c1
  Charge       = 0
  Multiplicity = 1
  Basis Set: CC-PVTZ
  Basis Set:
  @DF-RHF Final Energy:  -270.13000439625063
    Total Energy =                       -270.1300043962505129
    Molecular point group: c1
  Basis Set: CC-PVTZ
  Basis Set:
  Basis Set: CC-PVTZ
  Basis Set:
  @DF-RHF Final Energy:  -270.11818401859853
    Total Energy =                       -270.1181840185984129
  Basis Set: CC-PVTZ
  Basis Set:
  Basis Set: CC-PVTZ
  Basis Set:
  @DF-RHF Final Energy:  -270.13047780080547
    Total Energy =                       -270.1304778008051244
  Basis Set: CC-PVTZ
  Basis Set:
  Basis Set: CC-PVTZ
  Basis Set:
  @DF-RHF Final Energy:  -270.12115225313806
    Total Energy =                       -270.1211522531382343
  Basis Set: CC-PVTZ
  Basis Set:
  @DF-RHF Final Energy:  -270.13057903136973
    Total Energy =                       -270.1305790313696207
  @DF-RHF Final Energy:  -270.13115325362281
    Total Energy =                       -270.1311532536228697
  @DF-RHF Final Energy:  -270.13119225176399
    Total Energy =                       -270.1311922517638777
  @DF-RHF Final Energy:  -270.13119069426989
    Total Energy =                       -270.1311906942698329
  Basis Set: CC-PVTZ
  Basis Set:
  @DF-RHF Final Energy:  -270.13120253293914
    Total Energy =                       -270.1312025329389712
  Basis Set: CC-PVTZ
  Basis Set:
  Basis Set: CC-PVTZ
  Basis Set:
  @DF-RHF Final Energy:  -270.13120833885966
    Total Energy =                       -270.1312083388596648
  Basis Set: CC-PVTZ
  Basis Set:
  Basis Set: CC-PVTZ
  Basis Set:
  @DF-RHF Final Energy:  -270.13121011319799
    Total Energy =                       -270.1312101131978807
  Basis Set: CC-PVTZ
  Basis Set:
  Charge       = 0
  Multiplicity = 1
  Basis Set: CC-PVTZ
  Basis Set:

    Orbital Energies (a.u.)
    -----------------------

    Doubly Occupied:

       1A    -20.539444     2A    -11.321059     3A    -11.230914
       4A    -11.227027     5A    -11.218020     6A    -11.212075
       7A     -1.399520     8A     -1.078612     9A     -1.016757
      10A     -0.947740    11A     -0.825181    12A     -0.733213
      13A     -0.657197    14A     -0.652079    15A     -0.628004
      16A     -0.599358    17A     -0.567597    18A     -0.560639
      19A     -0.546356    20A     -0.501537    21A     -0.495184
      22A     -0.484515    23A     -0.477354    24A     -0.403647

  @DF-RHF Final Energy:  -270.13121030047853

   => Energetics <=

    Nuclear Repulsion Energy =            237.2408337657879258
    One-Electron Energy =                -836.0980322817015349
    Two-Electron Energy =                 328.7259882154348247
    DFT Exchange-Correlation Energy =       0.0000000000000000
    Empirical Dispersion Energy =           0.0000000000000000
    PCM Polarization Energy =               0.0000000000000000
    EFP Energy =                            0.0000000000000000
    Total Energy =                       -270.1312103004788128
    Molecular point group: c1
  Basis Set: CC-PVTZ
  Basis Set:

  -Total Gradient:
     Atom            X                  Y                   Z
    ------   -----------------  -----------------  -----------------
       1        0.000009645380     0.000004807723     0.000008380847
       2       -0.000014169083     0.000020675314    -0.000015827546
       3        0.000012158479    -0.000006812243     0.000005379244
       4       -0.000004048465    -0.000016582604     0.000006463929
       5        0.000000491350    -0.000009382056     0.000002878054
       6       -0.000004772209     0.000003956277    -0.000000167903
       7       -0.000005558158     0.000006201237     0.000001693924
       8       -0.000002977765    -0.000001050240    -0.000005552890
       9        0.000002118055    -0.000001857529    -0.000003270268
      10       -0.000000371628     0.000001016245    -0.000002808865
      11        0.000000630326     0.000000634444    -0.000000740981
      12        0.000001783332    -0.000002806509     0.000002065296
      13        0.000000677380     0.000000784647     0.000001610644
      14        0.000003046887     0.000005049144     0.000002169699
      15        0.000004128756    -0.000004767717     0.000003537252
      16       -0.000002782635     0.000000133867    -0.000005810438

  **** Optimization is complete! (in 12 steps) ****
    Final optimized geometry and variables:
    Molecular point group: c1

    Geometry (in Angstrom), charge = 0, multiplicity = 1:

    O           -1.251667614373     0.282139297005    -1.195014029454
    C           -1.078863862553     0.102534871360    -0.034074307118
    C            0.301056982225    -0.105722155468     0.556378955771
    C           -2.235112730201     0.070169039143     0.939648349700
    C            1.434072874791    -0.065329456227    -0.459374771107
    H            0.292013186181    -1.056473187264     1.084782921895
    H            0.446605164687     0.649870458095     1.325268870600
    C            2.799470737461    -0.280056344834     0.184936394160
    H            1.260029339148    -0.820237771866    -1.216538763463
    H            1.414905284258     0.886627295616    -0.975978487965
    H            3.587461721454    -0.246785060269    -0.557915227008
    H            2.855268792011    -1.243407828677     0.681514266036
    H            3.012019814212     0.484541162736     0.925178348091
    H           -2.261311572976    -0.881826277174     1.458266551919
    H           -3.163534496362     0.221951431928     0.411031496534
    H           -2.112344755417     0.842893670836     1.690596714643

  Mulliken Charges: (a.u.)
   Center  Symbol    Alpha    Beta     Spin     Total
       1     O     4.17023  4.17023  0.00000 -0.34046
       2     C     2.86299  2.86299  0.00000  0.27402
       3     C     3.10566  3.10566  0.00000 -0.21132
       4     C     3.15100  3.15100  0.00000 -0.30201
       5     C     3.07936  3.07936  0.00000 -0.15872
       6     H     0.44643  0.44643  0.00000  0.10714
       7     H     0.44647  0.44647  0.00000  0.10707
       8     C     3.15020  3.15020  0.00000 -0.30040
       9     H     0.44644  0.44644  0.00000  0.10713
      10     H     0.44643  0.44643  0.00000  0.10714
      11     H     0.44567  0.44567  0.00000  0.10866
      12     H     0.45645  0.45645  0.00000  0.08711
      13     H     0.45645  0.45645  0.00000  0.08711
      14     H     0.45044  0.45044  0.00000  0.09913
      15     H     0.43544  0.43544  0.00000  0.12912
      16     H     0.45036  0.45036  0.00000  0.09929

   Total alpha = 24.00000, Total beta = 24.00000, Total charge =  0.00000

*** Psi4 exiting successfully. Buy a developer a beer!
