  ==> Input File <==

--------------------------------------------------------------------------
set {
	reference rhf
	basis 6-31G*
}

set_num_threads( 4 )
memory 2 gb

molecule MOL {
0 1

H	 -0.695789	 -0.035871	 -2.283248
C	 -0.772275	 -0.794760	 -1.507119
O	 -1.392607	 -0.295399	 -0.366433
H	 -1.376374	 -1.612427	 -1.875398
H	 0.227815	 -1.167121	 -1.288955
C	 -0.719715	 0.768384	 0.229244
C	 0.719720	 0.768376	 -0.229267
H	 -1.185038	 1.714362	 -0.050570
H	 -0.750528	 0.687237	 1.313896
O	 1.392611	 -0.295398	 0.366430
H	 0.750534	 0.687200	 -1.313918
H	 1.185043	 1.714359	 0.050526
C	 2.706965	 -0.449871	 -0.062409
H	 2.756559	 -0.644779	 -1.131878
H	 3.305899	 0.433456	 0.155466
H	 3.125548	 -1.294566	 0.467107

	symmetry c1
}
set optking {
	frozen_dihedral = ("
		2 3 6 7
	")
}

ee = optimize('scf')
oeprop('DIPOLE', 'QUADRUPOLE', 'MULLIKEN_CHARGES')
f=open( 'psi4out.xyz', 'w' )
f.write( "16  " )
f.write( str(ee) + "\n" )
f.write( MOL.save_string_xyz() )
f.close()
--------------------------------------------------------------------------

    Molecular point group: c1
  Charge       = 0
  Multiplicity = 1
  Basis Set: 6-31G*
  Basis Set:
  @DF-RHF Final Energy:  -306.95503709245008
    Total Energy =                       -306.9550370924501976
    Molecular point group: c1
  Basis Set: 6-31G*
  Basis Set:
  Basis Set: 6-31G*
  Basis Set:
  @DF-RHF Final Energy:  -306.96509591106701
    Total Energy =                       -306.9650959110671238
  Basis Set: 6-31G*
  Basis Set:
  Basis Set: 6-31G*
  Basis Set:
  @DF-RHF Final Energy:  -306.96923699023421
    Total Energy =                       -306.9692369902340943
  Basis Set: 6-31G*
  Basis Set:
  Basis Set: 6-31G*
  Basis Set:
  @DF-RHF Final Energy:  -306.96998003350649
    Total Energy =                       -306.9699800335065447
  Basis Set: 6-31G*
  Basis Set:
  Basis Set: 6-31G*
  Basis Set:
  @DF-RHF Final Energy:  -306.97025945529435
    Total Energy =                       -306.9702594552941264
  Basis Set: 6-31G*
  Basis Set:
  Basis Set: 6-31G*
  Basis Set:
  @DF-RHF Final Energy:  -306.97030847701143
    Total Energy =                       -306.9703084770111445
  Basis Set: 6-31G*
  Basis Set:
  Charge       = 0
  Multiplicity = 1
  Basis Set: 6-31G*
  Basis Set:

    Orbital Energies (a.u.)
    -----------------------

    Doubly Occupied:

       1A    -20.563907     2A    -20.546530     3A    -11.277097
       4A    -11.271817     5A    -11.268635     6A    -11.257680
       7A     -1.391838     8A     -1.364284     9A     -1.030117
      10A     -0.950754    11A     -0.900448    12A     -0.810634
      13A     -0.694120    14A     -0.682468    15A     -0.657352
      16A     -0.636118    17A     -0.626101    18A     -0.591847
      19A     -0.560895    20A     -0.540249    21A     -0.518171
      22A     -0.493220    23A     -0.445648    24A     -0.425495
      25A     -0.404491

  @DF-RHF Final Energy:  -306.97031119681213

   => Energetics <=

    Nuclear Repulsion Energy =            264.4870327990612964
    One-Electron Energy =                -943.0948555560041768
    Two-Electron Energy =                 371.6375115601306334
    DFT Exchange-Correlation Energy =       0.0000000000000000
    Empirical Dispersion Energy =           0.0000000000000000
    PCM Polarization Energy =               0.0000000000000000
    EFP Energy =                            0.0000000000000000
    Total Energy =                       -306.9703111968121902
    Molecular point group: c1
  Basis Set: 6-31G*
  Basis Set:

  -Total Gradient:
     Atom            X                  Y                   Z
    ------   -----------------  -----------------  -----------------
       1       -0.000012986222     0.000019108920     0.000006349103
       2        0.001642818844    -0.002123711768     0.001670747241
       3       -0.002548116223     0.004130892587    -0.003631386431
       4       -0.000014684811     0.000006068815     0.000044699255
       5       -0.000047241239     0.000002582762     0.000016622037
       6        0.001658417856    -0.003706936811     0.004121135391
       7       -0.000573924181     0.001684969650    -0.002229392816
       8       -0.000026081050    -0.000013726338    -0.000004731639
       9       -0.000050556433    -0.000005080428     0.000026533171
      10       -0.000118093072     0.000072075670     0.000009410685
      11       -0.000012013550     0.000000847814    -0.000027901262
      12        0.000002474969     0.000000188460    -0.000001369114
      13        0.000160149640    -0.000065748978    -0.000014018315
      14       -0.000026351898     0.000008289200     0.000011572528
      15       -0.000056541128    -0.000003671180     0.000001220381
      16        0.000022728500    -0.000006148374     0.000000509786

  **** Optimization is complete! (in 7 steps) ****
    Final optimized geometry and variables:
    Molecular point group: c1

    Geometry (in Angstrom), charge = 0, multiplicity = 1:

    H           -1.289156724387    -0.166296728411    -2.103648712586
    C           -1.367263849729    -0.846475104455    -1.256793565599
    O           -1.791161310829    -0.196926810660    -0.097624430924
    H           -2.125318819706    -1.583086360167    -1.485908351801
    H           -0.419009458242    -1.349974708622    -1.116595246469
    C           -1.002660933069     0.814603476670     0.463208489953
    C            0.465114678179     0.858083771892     0.082006122024
    H           -1.428456546265     1.780794731268     0.193464793653
    H           -1.077545565590     0.708767423896     1.537983928519
    O            1.119981538452    -0.271526262498     0.571004135340
    H            0.594234774365     0.938075255771    -0.995492734840
    H            0.888783842368     1.760978710758     0.522669751176
    C            2.487723925857    -0.297753119524     0.308589295702
    H            2.688740830482    -0.288749960313    -0.761129313041
    H            2.994976967524     0.551777775622     0.761856570280
    H            2.884205743397    -1.209866992828     0.732248700993

  Mulliken Charges: (a.u.)
   Center  Symbol    Alpha    Beta     Spin     Total
       1     H     0.43485  0.43485  0.00000  0.13029
       2     C     3.08449  3.08449  0.00000 -0.16898
       3     O     4.31150  4.31150  0.00000 -0.62300
       4     H     0.41253  0.41253  0.00000  0.17494
       5     H     0.41571  0.41571  0.00000  0.16857
       6     C     2.97781  2.97781  0.00000  0.04437
       7     C     3.02096  3.02096  0.00000 -0.04192
       8     H     0.43005  0.43005  0.00000  0.13990
       9     H     0.41222  0.41222  0.00000  0.17556
      10     O     4.30070  4.30070  0.00000 -0.60139
      11     H     0.42618  0.42618  0.00000  0.14765
      12     H     0.42455  0.42455  0.00000  0.15090
      13     C     3.08109  3.08109  0.00000 -0.16218
      14     H     0.42950  0.42950  0.00000  0.14100
      15     H     0.42854  0.42854  0.00000  0.14291
      16     H     0.40932  0.40932  0.00000  0.18137

   Total alpha = 25.00000, Total beta = 25.00000, Total charge = -0.00000
