                              Psi4 1.0.54 Driver

  ==> Input File <==

--------------------------------------------------------------------------
set {
	reference rhf
	basis cc-pvtz
}

set_num_threads( 4 )
memory 2 gb

molecule MOL {
0 1

H	 2.614283	 2.028610	 0.296620
O	 3.358864	 1.662087	 -0.142800
C	 3.565468	 0.338079	 0.273842
C	 2.533667	 -0.637565	 -0.272227
H	 4.548038	 0.064914	 -0.086598
H	 3.593945	 0.282242	 1.360360
C	 1.114816	 -0.402372	 0.240993
H	 2.544552	 -0.580764	 -1.356576
H	 2.850574	 -1.642962	 -0.005497
C	 0.163604	 0.082465	 -0.852151
H	 1.140543	 0.324457	 1.046015
H	 0.727769	 -1.326859	 0.666207
C	 -1.289757	 0.263859	 -0.410455
H	 0.534909	 1.020279	 -1.258187
H	 0.186861	 -0.631141	 -1.671110
C	 -1.524474	 1.390839	 0.593818
H	 -1.892756	 0.457034	 -1.293406
H	 -1.657186	 -0.671326	 0.006174
C	 -3.000008	 1.596353	 0.926947
H	 -1.115979	 2.316708	 0.194611
H	 -0.982723	 1.190823	 1.513331
C	 -3.237621	 2.718340	 1.932222
H	 -3.547642	 1.810104	 0.013172
H	 -3.411774	 0.669756	 1.318009
H	 -2.865426	 3.665735	 1.556521
H	 -4.293854	 2.839139	 2.144088
H	 -2.733403	 2.516122	 2.871490

	symmetry c1
}
set optking {
	frozen_dihedral = ("
		10 7 4 8
	")
}

ee,wfn = optimize('scf', return_wfn=True)
oeprop( wfn, 'DIPOLE', 'QUADRUPOLE', 'MULLIKEN_CHARGES')
f=open( 'psi4out.xyz', 'w' )
f.write( "27  " )
f.write( str(ee) + "\n" )
f.write( MOL.save_string_xyz() )
f.close()
--------------------------------------------------------------------------

    Molecular point group: c1
  Charge       = 0
  Multiplicity = 1
  Basis Set: CC-PVTZ
  Basis Set:
  @DF-RHF Final Energy:  -388.42251279015710
    Total Energy =                       -388.4225127901565884
    Molecular point group: c1
  Basis Set: CC-PVTZ
  Basis Set:
  Basis Set: CC-PVTZ
  Basis Set:
  @DF-RHF Final Energy:  -388.42280263873971
    Total Energy =                       -388.4228026387393129
  Basis Set: CC-PVTZ
  Basis Set:
  Basis Set: CC-PVTZ
  Basis Set:
  @DF-RHF Final Energy:  -388.42289823028779
    Total Energy =                       -388.4228982302877284
  Basis Set: CC-PVTZ
  Basis Set:
  Basis Set: CC-PVTZ
  Basis Set:
  @DF-RHF Final Energy:  -388.42289040590259
    Total Energy =                       -388.4228904059027627
  Basis Set: CC-PVTZ
  Basis Set:
  Basis Set: CC-PVTZ
  Basis Set:
  @DF-RHF Final Energy:  -388.42290648956578
    Total Energy =                       -388.4229064895661168
  Basis Set: CC-PVTZ
  Basis Set:
  Charge       = 0
  Multiplicity = 1
  Basis Set: CC-PVTZ
  Basis Set:

    Orbital Energies (a.u.)
    -----------------------

    Doubly Occupied:

       1A    -20.545723     2A    -11.264959     3A    -11.217419
       4A    -11.214522     5A    -11.213816     6A    -11.213314
       7A    -11.213256     8A    -11.212665     9A    -11.207934
      10A     -1.363432    11A     -1.095340    12A     -1.061264
      13A     -1.012296    14A     -0.949770    15A     -0.888574
      16A     -0.821941    17A     -0.802481    18A     -0.778430
      19A     -0.697466    20A     -0.650615    21A     -0.642220
      22A     -0.613997    23A     -0.595527    24A     -0.584195
      25A     -0.576232    26A     -0.558909    27A     -0.543903
      28A     -0.533503    29A     -0.511873    30A     -0.495677
      31A     -0.488690    32A     -0.472082    33A     -0.466466
      34A     -0.457146    35A     -0.452351    36A     -0.441440
      37A     -0.426362

  @DF-RHF Final Energy:  -388.42290725643642

   => Energetics <=

    Nuclear Repulsion Energy =            466.6932308773171485
    One-Electron Energy =               -1451.6606984260131412
    Two-Electron Energy =                 596.5445602922595754
    DFT Exchange-Correlation Energy =       0.0000000000000000
    Empirical Dispersion Energy =           0.0000000000000000
    PCM Polarization Energy =               0.0000000000000000
    EFP Energy =                            0.0000000000000000
    Total Energy =                       -388.4229072564364742
    Molecular point group: c1
  Basis Set: CC-PVTZ
  Basis Set:

  -Total Gradient:
     Atom            X                  Y                   Z
    ------   -----------------  -----------------  -----------------
       1       -0.000011717340     0.000030774895     0.000002448196
       2       -0.000013485589     0.000043580292    -0.000034951838
       3        0.000026198128    -0.000012949255     0.000004249252
       4       -0.000333895112    -0.001796770931    -0.000174705966
       5        0.000041000915    -0.000022128515     0.000012794017
       6       -0.000008124897    -0.000019073524     0.000007087153
       7        0.000343508482     0.001452999459     0.000274328464
       8        0.000196874834     0.001217782979     0.000069631435
       9       -0.000012659361    -0.000013965511     0.000004667649
      10       -0.000168362218    -0.000865563823    -0.000166589691
      11       -0.000014820641     0.000021539056     0.000000136985
      12       -0.000026174438    -0.000037334264    -0.000002867324
      13       -0.000017117019     0.000027678409    -0.000017293541
      14        0.000003220816    -0.000009941599     0.000010492885
      15        0.000002568948    -0.000011004795     0.000013273574
      16        0.000004537176    -0.000004125633    -0.000005808571
      17       -0.000028050075     0.000008567733     0.000002150903
      18        0.000007666842     0.000000565568    -0.000004388610
      19       -0.000005322484    -0.000001781975    -0.000004963061
      20        0.000002618748    -0.000007307690     0.000004408320
      21        0.000014389227    -0.000001335389     0.000004910641
      22        0.000003296193    -0.000001271782    -0.000000118441
      23       -0.000003487545    -0.000001518336    -0.000004716031
      24       -0.000001735636    -0.000002599901     0.000001088207
      25        0.000000740230     0.000003604791    -0.000000132696
      26       -0.000002736532    -0.000000281532     0.000001248503
      27        0.000001068347     0.000001861277     0.000003619586

  **** Optimization is complete! (in 6 steps) ****
    Final optimized geometry and variables:
    Molecular point group: c1

    Geometry (in Angstrom), charge = 0, multiplicity = 1:

    H            2.303576195423     1.222188115594     0.048560933342
    O            3.068934738394     0.901075180889    -0.391285069915
    C            3.342003616947    -0.416603676862     0.007874283823
    C            2.343172115493    -1.427663637273    -0.535651661458
    H            4.330772749346    -0.641501009373    -0.369146873829
    H            3.387195214560    -0.481594975392     1.093096679990
    C            0.900119273079    -1.225695511550    -0.029205781058
    H            2.366283853607    -1.365539649385    -1.618353527489
    H            2.698029601821    -2.417944929443    -0.268821952842
    C           -0.067648370309    -0.756251284806    -1.116750030867
    H            0.898774763103    -0.523144016810     0.798945945136
    H            0.525685422218    -2.157537672863     0.382663429490
    C           -1.516803549011    -0.581330203359    -0.660236604727
    H            0.293372865864     0.175655759088    -1.544238474772
    H           -0.046071155872    -1.482654255904    -1.923900469077
    C           -1.751905403298     0.566508225395     0.320297947282
    H           -2.133771608574    -0.415124149310    -1.538920327115
    H           -1.868181338154    -1.510300264181    -0.216768923705
    C           -3.224749358463     0.762060743536     0.670785832172
    H           -1.362744306759     1.487840259223    -0.108384289053
    H           -1.194928100650     0.395831776942     1.236805822812
    C           -3.461880584853     1.905494680951     1.651609880220
    H           -3.788415070570     0.946071017232    -0.239601038188
    H           -3.618252760313    -0.159670920244     1.090736523789
    H           -3.108656829591     2.848138559944     1.246732755229
    H           -4.516181118506     2.017657385954     1.877042716069
    H           -2.940696934292     1.733345183575     2.587606902613

  Mulliken Charges: (a.u.)
   Center  Symbol    Alpha    Beta     Spin     Total
       1     H     0.39148  0.39148  0.00000  0.21704
       2     O     4.20683  4.20683  0.00000 -0.41365
       3     C     2.97958  2.97958  0.00000  0.04084
       4     C     3.09379  3.09379  0.00000 -0.18759
       5     H     0.44872  0.44872  0.00000  0.10256
       6     H     0.46966  0.46966  0.00000  0.06067
       7     C     3.11401  3.11401  0.00000 -0.22803
       8     H     0.45295  0.45295  0.00000  0.09409
       9     H     0.44803  0.44803  0.00000  0.10393
      10     C     3.09925  3.09925  0.00000 -0.19849
      11     H     0.45774  0.45774  0.00000  0.08452
      12     H     0.44421  0.44421  0.00000  0.11159
      13     C     3.09769  3.09769  0.00000 -0.19538
      14     H     0.44864  0.44864  0.00000  0.10273
      15     H     0.44556  0.44556  0.00000  0.10888
      16     C     3.09074  3.09074  0.00000 -0.18148
      17     H     0.44760  0.44760  0.00000  0.10480
      18     H     0.45392  0.45392  0.00000  0.09217
      19     C     3.08386  3.08386  0.00000 -0.16772
      20     H     0.45501  0.45501  0.00000  0.08999
      21     H     0.45438  0.45438  0.00000  0.09124
      22     C     3.14984  3.14984  0.00000 -0.29967
      23     H     0.45347  0.45347  0.00000  0.09307
      24     H     0.45426  0.45426  0.00000  0.09148
      25     H     0.45501  0.45501  0.00000  0.08998
      26     H     0.44797  0.44797  0.00000  0.10407
      27     H     0.45581  0.45581  0.00000  0.08839

   Total alpha = 37.00000, Total beta = 37.00000, Total charge = -0.00000

*** Psi4 exiting successfully. Buy a developer a beer!
