  ==> Input File <==

--------------------------------------------------------------------------
set {
	reference rhf
	basis cc-pvtz
}

set_num_threads( 4 )
memory 2 gb

molecule MOL {
0 1

H	 2.930497	 -0.162535	 1.788799
C	 2.240819	 -0.476692	 1.012633
C	 0.983066	 0.380813	 1.047946
H	 1.989835	 -1.517472	 1.176050
H	 2.760309	 -0.404498	 0.065188
N	 0.000297	 0.000045	 0.046090
H	 0.533082	 0.274537	 2.025360
H	 1.250606	 1.436781	 0.951589
C	 -1.359159	 0.315706	 0.454404
C	 0.319551	 0.524668	 -1.272004
C	 -2.416729	 -0.286720	 -0.460525
H	 -1.478729	 1.390261	 0.442008
H	 -1.539692	 0.003361	 1.486761
C	 -0.221907	 -0.333131	 -2.407541
H	 1.395339	 0.570005	 -1.370416
H	 -0.037493	 1.552612	 -1.380463
H	 -2.285276	 0.073129	 -1.473515
H	 -2.371743	 -1.368476	 -0.483209
H	 -3.408658	 -0.007405	 -0.121593
H	 0.182735	 -1.335814	 -2.345904
H	 -1.302029	 -0.408303	 -2.385998
H	 0.057485	 0.092997	 -3.365229

	symmetry c1
}
set optking {
	frozen_dihedral = ("
		3 6 9 11
	")
}

ee = optimize('scf')
oeprop('DIPOLE', 'QUADRUPOLE', 'MULLIKEN_CHARGES')
f=open( 'psi4out.xyz', 'w' )
f.write( "22  " )
f.write( str(ee) + "\n" )
f.write( MOL.save_string_xyz() )
f.close()
--------------------------------------------------------------------------

    Molecular point group: c1
  Charge       = 0
  Multiplicity = 1
  Basis Set: CC-PVTZ
  Basis Set:
  @DF-RHF Final Energy:  -290.45620158297112
    Total Energy =                       -290.4562015829714028
    Molecular point group: c1
  Basis Set: CC-PVTZ
  Basis Set:
  Basis Set: CC-PVTZ
  Basis Set:
  @DF-RHF Final Energy:  -290.46941998942100
    Total Energy =                       -290.4694199894207713
  Basis Set: CC-PVTZ
  Basis Set:
  Basis Set: CC-PVTZ
  Basis Set:
  @DF-RHF Final Energy:  -290.47255407761565
    Total Energy =                       -290.4725540776158255
  Basis Set: CC-PVTZ
  Basis Set:
  Basis Set: CC-PVTZ
  Basis Set:
  @DF-RHF Final Energy:  -290.47353203104097
    Total Energy =                       -290.4735320310408042
  Basis Set: CC-PVTZ
  Basis Set:
  @DF-RHF Final Energy:  -290.47420209585789
    Total Energy =                       -290.4742020958582316
  @DF-RHF Final Energy:  -290.47436003121697
    Total Energy =                       -290.4743600312166336
  @DF-RHF Final Energy:  -290.47445085026891
    Total Energy =                       -290.4744508502688518
  Basis Set: CC-PVTZ
  Basis Set:
  @DF-RHF Final Energy:  -290.47450333260480
    Total Energy =                       -290.4745033326047405
  Basis Set: CC-PVTZ
  Basis Set:
  Basis Set: CC-PVTZ
  Basis Set:
  @DF-RHF Final Energy:  -290.47451538051752
    Total Energy =                       -290.4745153805176869
  Basis Set: CC-PVTZ
  Basis Set:
  Basis Set: CC-PVTZ
  Basis Set:
  @DF-RHF Final Energy:  -290.47451638603155
    Total Energy =                       -290.4745163860316097
  Basis Set: CC-PVTZ
  Basis Set:
  Charge       = 0
  Multiplicity = 1
  Basis Set: CC-PVTZ
  Basis Set:

    Orbital Energies (a.u.)
    -----------------------

    Doubly Occupied:

       1A    -15.532867     2A    -11.239587     3A    -11.239050
       4A    -11.237965     5A    -11.205525     6A    -11.204354
       7A    -11.201006     8A     -1.224771     9A     -1.028493
      10A     -1.019524    11A     -0.959645    12A     -0.855872
      13A     -0.832987    14A     -0.774684    15A     -0.661833
      16A     -0.643203    17A     -0.609742    18A     -0.601013
      19A     -0.568542    20A     -0.558920    21A     -0.540054
      22A     -0.531719    23A     -0.513145    24A     -0.498967
      25A     -0.490140    26A     -0.476210    27A     -0.467983
      28A     -0.463773    29A     -0.342557

  @DF-RHF Final Energy:  -290.47451645628024

   => Energetics <=

    Nuclear Repulsion Energy =            339.3634041030017556
    One-Electron Energy =               -1064.6275822477434758
    Two-Electron Energy =                 434.7896616884615355
    DFT Exchange-Correlation Energy =       0.0000000000000000
    Empirical Dispersion Energy =           0.0000000000000000
    PCM Polarization Energy =               0.0000000000000000
    EFP Energy =                            0.0000000000000000
    Total Energy =                       -290.4745164562801278
    Molecular point group: c1
  Basis Set: CC-PVTZ
  Basis Set:

  -Total Gradient:
     Atom            X                  Y                   Z
    ------   -----------------  -----------------  -----------------
       1       -0.000001853850     0.000000307138    -0.000001958709
       2        0.000004498505     0.000006643238    -0.000000184884
       3        0.000176349304     0.001306551127    -0.000572832282
       4       -0.000003460020     0.000001925237     0.000001287208
       5        0.000001353722    -0.000000536239    -0.000001306685
       6       -0.000203770757    -0.001289357358     0.000469141605
       7        0.000004518606     0.000001609021     0.000007069518
       8        0.000003698009    -0.000002434751    -0.000003766936
       9       -0.000056072000    -0.001208257017     0.000873179154
      10       -0.000011703320    -0.000003139625    -0.000011642792
      11        0.000086450263     0.001179696738    -0.000759915640
      12        0.000003656233     0.000005048661     0.000004424927
      13       -0.000000040023    -0.000000503412    -0.000001674300
      14       -0.000001918323    -0.000000518401     0.000002184171
      15       -0.000004514091    -0.000006839586     0.000006013921
      16       -0.000000487818     0.000001783014     0.000001701799
      17       -0.000003482123     0.000002845310    -0.000001408258
      18       -0.000001107465    -0.000001915965     0.000000370486
      19        0.000004243713     0.000002517485    -0.000003999855
      20       -0.000001645828     0.000003710228     0.000002317720
      21        0.000003781838     0.000000157009    -0.000001915000
      22        0.000001505424     0.000000708150    -0.000007085169

  **** Optimization is complete! (in 11 steps) ****
    Final optimized geometry and variables:
    Molecular point group: c1

    Geometry (in Angstrom), charge = 0, multiplicity = 1:

    H            3.001115232863    -0.325694155943     1.804706957250
    C            2.277250176124    -0.538840236160     1.025731818137
    C            1.007508038353     0.268206226757     1.258766557859
    H            2.057161467260    -1.599277659812     1.041836797769
    H            2.743233103082    -0.307533180841     0.075800057713
    N           -0.033169302526    -0.004161521711     0.282914382910
    H            0.621325172711     0.009809623887     2.236875458027
    H            1.252048415128     1.334113940271     1.295598243006
    C           -1.340553499699     0.399286078631     0.769832328777
    C            0.284420710953     0.517648268365    -1.045581172924
    C           -2.500532365220    -0.072858727423    -0.095412525064
    H           -1.403074379546     1.487194241362     0.882828951064
    H           -1.465812216511    -0.020805237884     1.759904508223
    C            0.298004118016    -0.553918327808    -2.128628448423
    H            1.255648232058     0.997700491804    -1.021994758461
    H           -0.416988561863     1.301156125946    -1.319098440350
    H           -2.484901921958     0.365525793509    -1.084817705251
    H           -2.484281009790    -1.150857440821    -0.201927378575
    H           -3.438229176759     0.209393234941     0.370024863947
    H            1.032253114469    -1.316713291147    -1.900374133835
    H           -0.665185090394    -1.039779961147    -2.214826830816
    H            0.545818892830    -0.118871262272    -3.092009809158

  Mulliken Charges: (a.u.)
   Center  Symbol    Alpha    Beta     Spin     Total
       1     H     0.44967  0.44967  0.00000  0.10067
       2     C     3.14642  3.14642  0.00000 -0.29284
       3     C     3.03784  3.03784  0.00000 -0.07568
       4     H     0.45087  0.45087  0.00000  0.09826
       5     H     0.45505  0.45505  0.00000  0.08991
       6     N     3.61653  3.61653  0.00000 -0.23305
       7     H     0.45466  0.45466  0.00000  0.09067
       8     H     0.46777  0.46777  0.00000  0.06447
       9     C     3.03526  3.03526  0.00000 -0.07053
      10     C     3.06700  3.06700  0.00000 -0.13399
      11     C     3.15427  3.15427  0.00000 -0.30855
      12     H     0.47030  0.47030  0.00000  0.05940
      13     H     0.45504  0.45504  0.00000  0.08993
      14     C     3.13006  3.13006  0.00000 -0.26013
      15     H     0.44715  0.44715  0.00000  0.10570
      16     H     0.45073  0.45073  0.00000  0.09853
      17     H     0.45308  0.45308  0.00000  0.09385
      18     H     0.44977  0.44977  0.00000  0.10045
      19     H     0.44631  0.44631  0.00000  0.10738
      20     H     0.45238  0.45238  0.00000  0.09524
      21     H     0.45277  0.45277  0.00000  0.09446
      22     H     0.45707  0.45707  0.00000  0.08585

   Total alpha = 29.00000, Total beta = 29.00000, Total charge = -0.00000
