  ==> Input File <==

--------------------------------------------------------------------------
set {
	reference rhf
	basis cc-pvtz
}

set_num_threads( 4 )
memory 2 gb

molecule MOL {
0 1

H	 -3.162190	 0.493205	 -0.000107
C	 -2.363908	 -0.234727	 0.000005
O	 -1.158738	 0.454634	 -0.000087
H	 -2.464314	 -0.863616	 -0.882153
H	 -2.464327	 -0.863359	 0.882345
C	 -0.028611	 -0.359694	 0.000037
C	 1.212704	 0.509119	 0.026353
H	 -0.024637	 -0.993839	 -0.886801
H	 -0.043608	 -1.019901	 0.867530
C	 2.497740	 -0.311264	 0.028077
H	 1.191385	 1.168135	 -0.834559
H	 1.172585	 1.142233	 0.905847
H	 2.569835	 -0.934961	 -0.856735
H	 3.367682	 0.333613	 0.046923
H	 2.551051	 -0.960807	 0.895441

	symmetry c1
}
set optking {
	frozen_dihedral = ("
		8 6 3 2
	")
}

ee = optimize('scf')
oeprop('DIPOLE', 'QUADRUPOLE', 'MULLIKEN_CHARGES')
f=open( 'psi4out.xyz', 'w' )
f.write( "15  " )
f.write( str(ee) + "\n" )
f.write( MOL.save_string_xyz() )
f.close()
--------------------------------------------------------------------------

    Molecular point group: c1
  Charge       = 0
  Multiplicity = 1
  Basis Set: CC-PVTZ
  Basis Set:
  @DF-RHF Final Energy:  -232.22822048534437
    Total Energy =                       -232.2282204853445933
    Molecular point group: c1
  Basis Set: CC-PVTZ
  Basis Set:
  Charge       = 0
  Multiplicity = 1
  Basis Set: CC-PVTZ
  Basis Set:

    Orbital Energies (a.u.)
    -----------------------

    Doubly Occupied:

       1A    -20.547602     2A    -11.264438     3A    -11.261819
       4A    -11.212794     5A    -11.210758     6A     -1.381862
       7A     -1.058468     8A     -0.956168     9A     -0.877368
      10A     -0.809537    11A     -0.677239    12A     -0.655959
      13A     -0.632307    14A     -0.608524    15A     -0.565249
      16A     -0.540922    17A     -0.503750    18A     -0.490435
      19A     -0.478386    20A     -0.462884    21A     -0.416851

  @DF-RHF Final Energy:  -232.22822074237212

   => Energetics <=

    Nuclear Repulsion Energy =            189.9987740673315670
    One-Electron Energy =                -691.2273499120871065
    Two-Electron Energy =                 269.0003551023836508
    DFT Exchange-Correlation Energy =       0.0000000000000000
    Empirical Dispersion Energy =           0.0000000000000000
    PCM Polarization Energy =               0.0000000000000000
    EFP Energy =                            0.0000000000000000
    Total Energy =                       -232.2282207423718887
    Molecular point group: c1
  Basis Set: CC-PVTZ
  Basis Set:

  -Total Gradient:
     Atom            X                  Y                   Z
    ------   -----------------  -----------------  -----------------
       1       -0.000024508463    -0.000008430685     0.000004053100
       2       -0.000084070262     0.000001021326     0.000100126516
       3        0.000032501388     0.000053631887    -0.000217719667
       4        0.000008543702     0.000002847913     0.000009549404
       5        0.000025428457     0.000011653837    -0.000004694311
       6       -0.000050728136    -0.000140245179     0.000219887356
       7       -0.000010819181    -0.000027961298    -0.000010559687
       8        0.000074857442     0.000124924586    -0.000083804302
       9        0.000016028866    -0.000025014206     0.000005324179
      10        0.000009812097     0.000009447665    -0.000011824466
      11        0.000017044224     0.000007512014    -0.000002460118
      12       -0.000019300337    -0.000009571211    -0.000002082756
      13        0.000004133208    -0.000004750505    -0.000001020323
      14        0.000008542645    -0.000000249526    -0.000003289153
      15       -0.000007465651     0.000005183381    -0.000001485771

  **** Optimization is complete! (in 2 steps) ****
    Final optimized geometry and variables:
    Molecular point group: c1

    Geometry (in Angstrom), charge = 0, multiplicity = 1:

    H           -3.162669242367     0.493447682140    -0.013820428512
    C           -2.364120976680    -0.234324422312    -0.011673117844
    O           -1.158713237907     0.454444606982    -0.010709925036
    H           -2.463439954604    -0.864512074223    -0.893132607928
    H           -2.465693664134    -0.862013207089     0.871246543336
    C           -0.028556414865    -0.359775440112    -0.009104778881
    C            1.212803977861     0.509191853990     0.016472940432
    H           -0.023818769871    -0.994155024250    -0.895868877729
    H           -0.043422813270    -1.019371049389     0.858898399129
    C            2.498019007354    -0.311062036327     0.016211376039
    H            1.190678979109     1.168763722101    -0.844080873512
    H            1.173582560645     1.141851959194     0.896389688684
    H            2.569166586487    -0.934221744003    -0.869110117033
    H            3.368086181197     0.333804165219     0.034551994724
    H            2.552216315871    -0.961212637975     0.883132861008

  Mulliken Charges: (a.u.)
   Center  Symbol    Alpha    Beta     Spin     Total
       1     H     0.44686  0.44686  0.00000  0.10627
       2     C     3.03348  3.03348  0.00000 -0.06696
       3     O     4.17152  4.17152  0.00000 -0.34304
       4     H     0.47221  0.47221  0.00000  0.05559
       5     H     0.47208  0.47208  0.00000  0.05584
       6     C     2.95607  2.95607  0.00000  0.08787
       7     C     3.08014  3.08014  0.00000 -0.16028
       8     H     0.47565  0.47565  0.00000  0.04870
       9     H     0.47601  0.47601  0.00000  0.04798
      10     C     3.15582  3.15582  0.00000 -0.31164
      11     H     0.45106  0.45106  0.00000  0.09789
      12     H     0.45117  0.45117  0.00000  0.09767
      13     H     0.45582  0.45582  0.00000  0.08835
      14     H     0.44626  0.44626  0.00000  0.10747
      15     H     0.45585  0.45585  0.00000  0.08829

   Total alpha = 21.00000, Total beta = 21.00000, Total charge = -0.00000
