  ==> Input File <==

--------------------------------------------------------------------------
set {
	reference rhf
	basis 6-31G*
}

set_num_threads( 1 )
memory 2 gb

molecule MOL {
0 1

O	 1.214711	 1.306902	 -0.000018
C	 1.122059	 0.121804	 -0.000188
C	 -0.170150	 -0.657997	 -0.000612
O	 2.172624	 -0.688929	 0.000216
C	 -1.412532	 0.227344	 -0.000452
H	 -0.153702	 -1.313099	 -0.867402
H	 -0.153924	 -1.313811	 0.865644
C	 -2.210827	 0.109157	 -1.299730
H	 -1.116763	 1.259902	 0.157182
H	 -2.041660	 -0.038166	 0.843470
C	 -3.458045	 0.991987	 -1.307569
H	 -1.575591	 0.375507	 -2.142113
H	 -2.502414	 -0.927769	 -1.454107
H	 -3.196848	 2.039608	 -1.189579
H	 -4.005442	 0.889783	 -2.239334
H	 -4.130563	 0.726613	 -0.497053
C	 3.452279	 -0.082609	 0.000533
H	 3.583069	 0.529321	 -0.880332
H	 4.163299	 -0.894027	 0.001117
H	 3.582335	 0.529955	 0.881077

	symmetry c1
}
set optking {
	frozen_dihedral = ("
		9 5 8 12,
		1 2 3 6,
		1 2 4 17
	")
}

ee = energy('scf')
oeprop('DIPOLE', 'QUADRUPOLE', 'MULLIKEN_CHARGES')
f=open( 'psi4out.xyz', 'w' )
f.write( "20  " )
f.write( str(ee) + "\n" )
f.write( MOL.save_string_xyz() )
f.close()
--------------------------------------------------------------------------

    Molecular point group: c1

    Geometry (in Angstrom), charge = 0, multiplicity = 1:

       Center              X                  Y                   Z               Mass
    ------------   -----------------  -----------------  -----------------  -----------------
           O          1.090263989025     1.132208622507     0.326173357983    15.994914619560
           C          0.997611989025    -0.052889377493     0.326003357983    12.000000000000
           C         -0.294597010975    -0.832690377493     0.325579357983    12.000000000000
           O          2.048176989025    -0.863622377493     0.326407357983    15.994914619560
           C         -1.536979010975     0.052650622507     0.325739357983    12.000000000000
           H         -0.278149010975    -1.487792377493    -0.541210642017     1.007825032070
           H         -0.278371010975    -1.488504377493     1.191835357983     1.007825032070
           C         -2.335274010975    -0.065536377493    -0.973538642017    12.000000000000
           H         -1.241210010975     1.085208622507     0.483373357983     1.007825032070
           H         -2.166107010975    -0.212859377493     1.169661357983     1.007825032070
           C         -3.582492010975     0.817293622507    -0.981377642017    12.000000000000
           H         -1.700038010975     0.200813622507    -1.815921642017     1.007825032070
           H         -2.626861010975    -1.102462377493    -1.127915642017     1.007825032070
           H         -3.321295010975     1.864914622507    -0.863387642017     1.007825032070
           H         -4.129889010975     0.715089622507    -1.913142642017     1.007825032070
           H         -4.255010010975     0.551919622507    -0.170861642017     1.007825032070
           C          3.327831989025    -0.257302377493     0.326724357983    12.000000000000
           H          3.458621989025     0.354627622507    -0.554140642017     1.007825032070
           H          4.038851989025    -1.068720377493     0.327308357983     1.007825032070
           H          3.457887989025     0.355261622507     1.207268357983     1.007825032070

  Charge       = 0
  Multiplicity = 1
  Basis Set: 6-31G*
  Basis Set:

    Orbital Energies (a.u.)
    -----------------------

    Doubly Occupied:

       1A    -20.604527     2A    -20.546621     3A    -11.373150
       4A    -11.281354     5A    -11.234183     6A    -11.217932
       7A    -11.215177     8A    -11.208146     9A     -1.470274
      10A     -1.364116    11A     -1.087395    12A     -1.022869
      13A     -0.968845    14A     -0.884187    15A     -0.804944
      16A     -0.766791    17A     -0.703602    18A     -0.681079
      19A     -0.673270    20A     -0.632799    21A     -0.605465
      22A     -0.590429    23A     -0.578674    24A     -0.545662
      25A     -0.528998    26A     -0.516939    27A     -0.508625
      28A     -0.478285    29A     -0.466827    30A     -0.461527
      31A     -0.457592    32A     -0.440437

  @DF-RHF Final Energy:  -383.93695266602879

   => Energetics <=

    Nuclear Repulsion Energy =            384.4775683703327331
    One-Electron Energy =               -1284.9877240108360184
    Two-Electron Energy =                 516.5732029744747251
    DFT Exchange-Correlation Energy =       0.0000000000000000
    Empirical Dispersion Energy =           0.0000000000000000
    PCM Polarization Energy =               0.0000000000000000
    EFP Energy =                            0.0000000000000000
    Total Energy =                       -383.9369526660285601

  Mulliken Charges: (a.u.)
   Center  Symbol    Alpha    Beta     Spin     Total
       1     O     4.28476  4.28476  0.00000 -0.56953
       2     C     2.61080  2.61080  0.00000  0.77840
       3     C     3.21085  3.21085  0.00000 -0.42170
       4     O     4.30581  4.30581  0.00000 -0.61163
       5     C     3.16162  3.16162  0.00000 -0.32323
       6     H     0.39779  0.39779  0.00000  0.20443
       7     H     0.39727  0.39727  0.00000  0.20545
       8     C     3.15568  3.15568  0.00000 -0.31137
       9     H     0.39339  0.39339  0.00000  0.21322
      10     H     0.41971  0.41971  0.00000  0.16058
      11     C     3.24049  3.24049  0.00000 -0.48099
      12     H     0.42002  0.42002  0.00000  0.15996
      13     H     0.42377  0.42377  0.00000  0.15246
      14     H     0.41828  0.41828  0.00000  0.16343
      15     H     0.41920  0.41920  0.00000  0.16159
      16     H     0.42188  0.42188  0.00000  0.15624
      17     C     3.09229  3.09229  0.00000 -0.18458
      18     H     0.40904  0.40904  0.00000  0.18191
      19     H     0.40836  0.40836  0.00000  0.18328
      20     H     0.40897  0.40897  0.00000  0.18207

   Total alpha = 32.00000, Total beta = 32.00000, Total charge =  0.00000
