                              Psi4 1.0.54 Driver

  ==> Input File <==

--------------------------------------------------------------------------
set {
	reference rhf
	basis cc-pvtz
}

set_num_threads( 4 )
memory 2 gb

molecule MOL {
0 1

H	 -2.644180	 -0.653737	 1.272255
C	 -2.092774	 -0.380414	 0.391915
O	 -0.808934	 -0.154049	 0.752536
F	 -2.163230	 -1.351640	 -0.507133
F	 -2.627232	 0.691260	 -0.169301
C	 0.085006	 0.250800	 -0.215074
C	 1.370439	 -0.548013	 -0.012993
Cl	 0.421658	 1.987697	 -0.091007
H	 -0.272219	 0.063284	 -1.212508
F	 1.094988	 -1.798871	 0.256274
F	 2.026716	 -0.049854	 1.008013
F	 2.148646	 -0.506400	 -1.059374

	symmetry c1
}
set optking {
	frozen_dihedral = ("
		10 7 6 9
	")
}

ee,wfn = optimize('scf', return_wfn=True)
oeprop( wfn, 'DIPOLE', 'QUADRUPOLE', 'MULLIKEN_CHARGES')
f=open( 'psi4out.xyz', 'w' )
f.write( "12  " )
f.write( str(ee) + "\n" )
f.write( MOL.save_string_xyz() )
f.close()
--------------------------------------------------------------------------

    Molecular point group: c1
  Charge       = 0
  Multiplicity = 1
  Basis Set: CC-PVTZ
  Basis Set:
  @DF-RHF Final Energy: -1146.61708106657102
    Total Energy =                      -1146.6170810665712452
    Molecular point group: c1
  Basis Set: CC-PVTZ
  Basis Set:
  Basis Set: CC-PVTZ
  Basis Set:
  @DF-RHF Final Energy: -1146.61803392851652
    Total Energy =                      -1146.6180339285162972
  Basis Set: CC-PVTZ
  Basis Set:
  Basis Set: CC-PVTZ
  Basis Set:
  @DF-RHF Final Energy: -1146.61839477773447
    Total Energy =                      -1146.6183947777344656
  Basis Set: CC-PVTZ
  Basis Set:
  Basis Set: CC-PVTZ
  Basis Set:
  @DF-RHF Final Energy: -1146.61842805804008
    Total Energy =                      -1146.6184280580400809
  Basis Set: CC-PVTZ
  Basis Set:
  Basis Set: CC-PVTZ
  Basis Set:
  @DF-RHF Final Energy: -1146.61843255118356
    Total Energy =                      -1146.6184325511831048
  Basis Set: CC-PVTZ
  Basis Set:
  Basis Set: CC-PVTZ
  Basis Set:
  @DF-RHF Final Energy: -1146.61843426383757
    Total Energy =                      -1146.6184342638375711
  Basis Set: CC-PVTZ
  Basis Set:
  Basis Set: CC-PVTZ
  Basis Set:
  @DF-RHF Final Energy: -1146.61843540409109
    Total Energy =                      -1146.6184354040906328
  Basis Set: CC-PVTZ
  Basis Set:
  Charge       = 0
  Multiplicity = 1
  Basis Set: CC-PVTZ
  Basis Set:

    Orbital Energies (a.u.)
    -----------------------

    Doubly Occupied:

       1A   -104.854921     2A    -26.356672     3A    -26.353562
       4A    -26.351456     5A    -26.344062     6A    -26.343998
       7A    -20.642099     8A    -11.520882     9A    -11.484942
      10A    -11.401634    11A    -10.580472    12A     -8.047252
      13A     -8.045290    14A     -8.045195    15A     -1.768066
      16A     -1.725687    17A     -1.663996    18A     -1.659964
      19A     -1.645678    20A     -1.488955    21A     -1.176792
      22A     -1.051286    23A     -0.992202    24A     -0.924738
      25A     -0.864700    26A     -0.859890    27A     -0.851481
      28A     -0.830804    29A     -0.819783    30A     -0.794778
      31A     -0.735362    32A     -0.733167    33A     -0.712785
      34A     -0.708743    35A     -0.684711    36A     -0.681938
      37A     -0.665672    38A     -0.663797    39A     -0.650125
      40A     -0.637686    41A     -0.599405    42A     -0.581098
      43A     -0.524139    44A     -0.477725    45A     -0.468311

  @DF-RHF Final Energy: -1146.61843470203030

   => Energetics <=

    Nuclear Repulsion Energy =            737.5113077189762407
    One-Electron Energy =               -3058.2276758739253637
    Two-Electron Energy =                1174.0979334529181415
    DFT Exchange-Correlation Energy =       0.0000000000000000
    Empirical Dispersion Energy =           0.0000000000000000
    PCM Polarization Energy =               0.0000000000000000
    EFP Energy =                            0.0000000000000000
    Total Energy =                      -1146.6184347020309815
    Molecular point group: c1
  Basis Set: CC-PVTZ
  Basis Set:

  -Total Gradient:
     Atom            X                  Y                   Z
    ------   -----------------  -----------------  -----------------
       1       -0.000005971597     0.000001002482    -0.000026687971
       2        0.000049163281     0.000079972193    -0.000177734821
       3       -0.000027594847    -0.000056905835     0.000041914738
       4       -0.000078480780    -0.000018210429     0.000060545362
       5       -0.000101049103    -0.000008417048     0.000040890846
       6       -0.003746671703    -0.005554276400     0.003568736525
       7        0.000930391330     0.000250620038    -0.006371039480
       8        0.000068486488    -0.000065899930    -0.000002133736
       9        0.002951216145     0.004667544220    -0.001726890683
      10       -0.000177001032     0.000815536708     0.004650757776
      11        0.000028852681     0.000036602879    -0.000019661387
      12        0.000108659150    -0.000147568765    -0.000038697179

  **** Optimization is complete! (in 8 steps) ****
    Final optimized geometry and variables:
    Molecular point group: c1

    Geometry (in Angstrom), charge = 0, multiplicity = 1:

    H           -2.667431861575    -0.635249125320     1.263185804506
    C           -2.102378297974    -0.385659868272     0.384505763320
    O           -0.829431725227    -0.126091210135     0.762128014802
    F           -2.139504444768    -1.389641337017    -0.479546416458
    F           -2.640800593490     0.656728474174    -0.225841138386
    C            0.074453097782     0.252259534019    -0.201058407139
    C            1.371581191860    -0.541150070066    -0.005701994840
    CL           0.422405921873     1.993939185730    -0.101814422185
    H           -0.265213644016     0.091915863751    -1.208851388124
    F            1.088378419604    -1.800528080553     0.218252568505
    F            2.077811324229    -0.111795029358     1.005534002463
    F            2.105070282300    -0.463802039138    -1.087791232361

  Mulliken Charges: (a.u.)
   Center  Symbol    Alpha    Beta     Spin     Total
       1     H     0.45183  0.45183  0.00000  0.09634
       2     C     2.73908  2.73908  0.00000  0.52185
       3     O     4.15448  4.15448  0.00000 -0.30895
       4     F     4.61766  4.61766  0.00000 -0.23533
       5     F     4.61504  4.61504  0.00000 -0.23008
       6     C     2.94071  2.94071  0.00000  0.11859
       7     C     2.66758  2.66758  0.00000  0.66484
       8    CL     8.57525  8.57525  0.00000 -0.15051
       9     H     0.43182  0.43182  0.00000  0.13636
      10     F     4.60250  4.60250  0.00000 -0.20499
      11     F     4.60012  4.60012  0.00000 -0.20024
      12     F     4.60394  4.60394  0.00000 -0.20788

   Total alpha = 45.00000, Total beta = 45.00000, Total charge = -0.00000

*** Psi4 exiting successfully. Buy a developer a beer!
