  ==> Input File <==

--------------------------------------------------------------------------
set {
	reference rhf
	basis 6-31G*
}

set_num_threads( 1 )
memory 2 gb

molecule MOL {
0 1

O	 3.225979	 0.970355	 -0.599647
C	 2.701189	 0.057885	 -0.047330
C	 1.245376	 -0.013843	 0.345420
O	 3.347903	 -1.046386	 0.304773
C	 0.455112	 1.231400	 -0.050772
H	 0.838542	 -0.913825	 -0.103701
H	 1.208210	 -0.175333	 1.419774
C	 -0.998893	 1.219485	 0.433193
H	 0.482531	 1.345121	 -1.130325
H	 0.957290	 2.103070	 0.354729
C	 -1.883438	 0.145884	 -0.207175
H	 -1.431207	 2.195402	 0.224832
H	 -1.019646	 1.105716	 1.516076
C	 -1.236535	 -1.240640	 -0.198954
H	 -2.833649	 0.102377	 0.322943
H	 -2.118527	 0.417480	 -1.233792
C	 -2.109290	 -2.320502	 -0.841082
H	 -1.010076	 -1.525884	 0.827003
H	 -0.281256	 -1.195396	 -0.719621
C	 -1.457663	 -3.702832	 -0.825380
H	 -3.064670	 -2.366363	 -0.322634
H	 -2.333106	 -2.039278	 -1.868019
H	 -2.100057	 -4.446251	 -1.287186
H	 -1.252854	 -4.028149	 0.190699
H	 -0.515381	 -3.698286	 -1.366082
C	 4.728119	 -1.109107	 -0.004993
H	 4.882018	 -1.033965	 -1.071845
H	 5.068212	 -2.067527	 0.355250
H	 5.265056	 -0.311663	 0.488280

	symmetry c1
}
set optking {
	frozen_dihedral = ("
		21 17 14 11,
		17 14 11 15,
		6 3 5 9,
		11 8 5 9,
		2 4 26 27,
		1 2 4 26,
		6 3 2 1
	")
}

ee = energy('scf')
oeprop('DIPOLE', 'QUADRUPOLE', 'MULLIKEN_CHARGES')
f=open( 'psi4out.xyz', 'w' )
f.write( "29  " )
f.write( str(ee) + "\n" )
f.write( MOL.save_string_xyz() )
f.close()
--------------------------------------------------------------------------

    Molecular point group: c1

    Geometry (in Angstrom), charge = 0, multiplicity = 1:

       Center              X                  Y                   Z               Mass
    ------------   -----------------  -----------------  -----------------  -----------------
           O          2.446727072634     1.518417354404    -0.442108861858    15.994914619560
           C          1.921937072634     0.605947354404     0.110208138142    12.000000000000
           C          0.466124072634     0.534219354404     0.502958138142    12.000000000000
           O          2.568651072634    -0.498323645596     0.462311138142    15.994914619560
           C         -0.324139927366     1.779462354404     0.106766138142    12.000000000000
           H          0.059290072634    -0.365762645596     0.053837138142     1.007825032070
           H          0.428958072634     0.372729354404     1.577312138142     1.007825032070
           C         -1.778144927366     1.767547354404     0.590731138142    12.000000000000
           H         -0.296720927366     1.893183354404    -0.972786861858     1.007825032070
           H          0.178038072634     2.651132354404     0.512267138142     1.007825032070
           C         -2.662689927366     0.693946354404    -0.049636861858    12.000000000000
           H         -2.210458927366     2.743464354404     0.382370138142     1.007825032070
           H         -1.798897927366     1.653778354404     1.673614138142     1.007825032070
           C         -2.015786927366    -0.692577645596    -0.041415861858    12.000000000000
           H         -3.612900927366     0.650439354404     0.480481138142     1.007825032070
           H         -2.897778927366     0.965542354404    -1.076253861858     1.007825032070
           C         -2.888541927366    -1.772439645596    -0.683543861858    12.000000000000
           H         -1.789327927366    -0.977821645596     0.984541138142     1.007825032070
           H         -1.060507927366    -0.647333645596    -0.562082861858     1.007825032070
           C         -2.236914927366    -3.154769645596    -0.667841861858    12.000000000000
           H         -3.843921927366    -1.818300645596    -0.165095861858     1.007825032070
           H         -3.112357927366    -1.491215645596    -1.710480861858     1.007825032070
           H         -2.879308927366    -3.898188645596    -1.129647861858     1.007825032070
           H         -2.032105927366    -3.480086645596     0.348237138142     1.007825032070
           H         -1.294632927366    -3.150223645596    -1.208543861858     1.007825032070
           C          3.948867072634    -0.561044645596     0.152545138142    12.000000000000
           H          4.102766072634    -0.485902645596    -0.914306861858     1.007825032070
           H          4.288960072634    -1.519464645596     0.512788138142     1.007825032070
           H          4.485804072634     0.236399354404     0.645818138142     1.007825032070

  Charge       = 0
  Multiplicity = 1
  Basis Set: 6-31G*
  Basis Set:

    Orbital Energies (a.u.)
    -----------------------

    Doubly Occupied:

       1A    -20.601503     2A    -20.541968     3A    -11.368225
       4A    -11.279482     5A    -11.225449     6A    -11.219048
       7A    -11.218194     8A    -11.217285     9A    -11.216334
      10A    -11.214591    11A    -11.210645    12A     -1.466754
      13A     -1.359959    14A     -1.106618    15A     -1.061232
      16A     -1.019798    17A     -0.974609    18A     -0.939229
      19A     -0.862297    20A     -0.810873    21A     -0.786340
      22A     -0.763008    23A     -0.697179    24A     -0.685134
      25A     -0.669637    26A     -0.660984    27A     -0.624371
      28A     -0.608925    29A     -0.593664    30A     -0.576181
      31A     -0.568484    32A     -0.558942    33A     -0.540593
      34A     -0.530180    35A     -0.522696    36A     -0.501101
      37A     -0.495422    38A     -0.484533    39A     -0.471173
      40A     -0.462354    41A     -0.454423    42A     -0.452419
      43A     -0.438180    44A     -0.421091

  @DF-RHF Final Energy:  -501.01117455789870

   => Energetics <=

    Nuclear Repulsion Energy =            643.9048601299913344
    One-Electron Energy =               -1958.8696182968910762
    Two-Electron Energy =                 813.9535836090017256
    DFT Exchange-Correlation Energy =       0.0000000000000000
    Empirical Dispersion Energy =           0.0000000000000000
    PCM Polarization Energy =               0.0000000000000000
    EFP Energy =                            0.0000000000000000
    Total Energy =                       -501.0111745578979026

  Mulliken Charges: (a.u.)
   Center  Symbol    Alpha    Beta     Spin     Total
       1     O     4.28729  4.28729  0.00000 -0.57458
       2     C     2.60429  2.60429  0.00000  0.79143
       3     C     3.21259  3.21259  0.00000 -0.42518
       4     O     4.30753  4.30753  0.00000 -0.61506
       5     C     3.15692  3.15692  0.00000 -0.31385
       6     H     0.39793  0.39793  0.00000  0.20414
       7     H     0.40160  0.40160  0.00000  0.19679
       8     C     3.15823  3.15823  0.00000 -0.31647
       9     H     0.41367  0.41367  0.00000  0.17266
      10     H     0.40682  0.40682  0.00000  0.18636
      11     C     3.14942  3.14942  0.00000 -0.29885
      12     H     0.41662  0.41662  0.00000  0.16676
      13     H     0.42353  0.42353  0.00000  0.15295
      14     C     3.16234  3.16234  0.00000 -0.32469
      15     H     0.42010  0.42010  0.00000  0.15980
      16     H     0.42162  0.42162  0.00000  0.15675
      17     C     3.14788  3.14788  0.00000 -0.29577
      18     H     0.42195  0.42195  0.00000  0.15609
      19     H     0.42115  0.42115  0.00000  0.15771
      20     C     3.24004  3.24004  0.00000 -0.48008
      21     H     0.42331  0.42331  0.00000  0.15339
      22     H     0.42282  0.42282  0.00000  0.15436
      23     H     0.41835  0.41835  0.00000  0.16330
      24     H     0.42161  0.42161  0.00000  0.15677
      25     H     0.42259  0.42259  0.00000  0.15482
      26     C     3.09207  3.09207  0.00000 -0.18414
      27     H     0.40953  0.40953  0.00000  0.18095
      28     H     0.40889  0.40889  0.00000  0.18222
      29     H     0.40929  0.40929  0.00000  0.18142

   Total alpha = 44.00000, Total beta = 44.00000, Total charge =  0.00000
