  ==> Input File <==

--------------------------------------------------------------------------
set {
	reference rhf
	basis 6-31G*
}

set_num_threads( 4 )
memory 2 gb

molecule MOL {
0 1

H	 -2.798360	 -0.862255	 -0.071053
N	 -1.863561	 -0.715187	 0.256814
C	 -1.344686	 0.554728	 -0.219830
H	 -1.300452	 -1.461917	 -0.101532
C	 0.081427	 0.741154	 0.254071
H	 -1.362155	 0.656231	 -1.305829
H	 -1.952773	 1.354456	 0.191809
O	 0.932030	 0.097464	 -0.651038
H	 0.325013	 1.802046	 0.307106
H	 0.195297	 0.314056	 1.247980
C	 2.276064	 0.117013	 -0.289429
H	 2.830196	 -0.404401	 -1.058040
H	 2.653181	 1.135390	 -0.214116
H	 2.438734	 -0.382551	 0.663348

	symmetry c1
}
set optking {
	frozen_dihedral = ("
		8 5 3 6
	")
}

ee = optimize('scf')
oeprop('DIPOLE', 'QUADRUPOLE', 'MULLIKEN_CHARGES')
f=open( 'psi4out.xyz', 'w' )
f.write( "14  " )
f.write( str(ee) + "\n" )
f.write( MOL.save_string_xyz() )
f.close()
--------------------------------------------------------------------------

    Molecular point group: c1
  Charge       = 0
  Multiplicity = 1
  Basis Set: 6-31G*
  Basis Set:
  @DF-RHF Final Energy:  -248.12287420047437
    Total Energy =                       -248.1228742004744845
    Molecular point group: c1
  Basis Set: 6-31G*
  Basis Set:
  Basis Set: 6-31G*
  Basis Set:
  @DF-RHF Final Energy:  -248.12314142196720
    Total Energy =                       -248.1231414219673752
  Basis Set: 6-31G*
  Basis Set:
  Basis Set: 6-31G*
  Basis Set:
  @DF-RHF Final Energy:  -248.12319928584031
    Total Energy =                       -248.1231992858400872
  Basis Set: 6-31G*
  Basis Set:
  Charge       = 0
  Multiplicity = 1
  Basis Set: 6-31G*
  Basis Set:

    Orbital Energies (a.u.)
    -----------------------

    Doubly Occupied:

       1A    -20.556819     2A    -15.531014     3A    -11.265828
       4A    -11.264985     5A    -11.240890     6A     -1.380472
       7A     -1.174678     8A     -0.998590     9A     -0.904878
      10A     -0.818070    11A     -0.682969    12A     -0.671966
      13A     -0.646159    14A     -0.613724    15A     -0.600161
      16A     -0.545870    17A     -0.526112    18A     -0.498458
      19A     -0.471490    20A     -0.417643    21A     -0.381738

  @DF-RHF Final Energy:  -248.12320056464148

   => Energetics <=

    Nuclear Repulsion Energy =            193.5077462688251444
    One-Electron Energy =                -720.8768683798257371
    Two-Electron Energy =                 279.2459215463589999
    DFT Exchange-Correlation Energy =       0.0000000000000000
    Empirical Dispersion Energy =           0.0000000000000000
    PCM Polarization Energy =               0.0000000000000000
    EFP Energy =                            0.0000000000000000
    Total Energy =                       -248.1232005646415928
    Molecular point group: c1
  Basis Set: 6-31G*
  Basis Set:

  -Total Gradient:
     Atom            X                  Y                   Z
    ------   -----------------  -----------------  -----------------
       1       -0.000022992991    -0.000026604956     0.000006620016
       2       -0.000014949680     0.000071085781    -0.000008746249
       3       -0.001023715704     0.007331514602    -0.000106662547
       4        0.000009696797    -0.000018057122    -0.000003520837
       5       -0.000234014439    -0.005548636159     0.002736202284
       6        0.000850390596    -0.005206671890    -0.000433873441
       7       -0.000001680729    -0.000034164134     0.000008952909
       8        0.000269962181     0.003472030654    -0.002135338623
       9        0.000018481148     0.000020436203     0.000020513579
      10        0.000041555714    -0.000020209257    -0.000026446649
      11        0.000062447872    -0.000044035254    -0.000078701843
      12        0.000056464505    -0.000002543475     0.000016001066
      13       -0.000001795077    -0.000000100031     0.000011692410
      14       -0.000009850195     0.000005955037    -0.000006692075

  **** Optimization is complete! (in 4 steps) ****
    Final optimized geometry and variables:
    Molecular point group: c1

    Geometry (in Angstrom), charge = 0, multiplicity = 1:

    H           -2.824502738530    -1.003638985465     0.063922978741
    N           -1.883333437836    -0.866067263989     0.378996028809
    C           -1.375393382145     0.423746250188    -0.072687674060
    H           -1.333330024406    -1.600273037666    -0.025842729834
    C            0.057923163847     0.609329214681     0.391729108201
    H           -1.383218093496     0.510487277310    -1.158240754398
    H           -2.000097241248     1.203964671024     0.347112790902
    O            0.901487855267    -0.053765360368    -0.507615588322
    H            0.314498844243     1.668560238692     0.413703390182
    H            0.173251644022     0.212363954392     1.397080636583
    C            2.247566461801    -0.027467110530    -0.154250005398
    H            2.798407725695    -0.557124428359    -0.919617213256
    H            2.622447729673     0.992845578097    -0.093895462314
    H            2.418473523953    -0.514054458642     0.803957232440

  Mulliken Charges: (a.u.)
   Center  Symbol    Alpha    Beta     Spin     Total
       1     H     0.33281  0.33281  0.00000  0.33438
       2     N     3.92495  3.92495  0.00000 -0.84989
       3     C     3.07017  3.07017  0.00000 -0.14035
       4     H     0.32824  0.32824  0.00000  0.34352
       5     C     2.99449  2.99449  0.00000  0.01102
       6     H     0.42119  0.42119  0.00000  0.15762
       7     H     0.41915  0.41915  0.00000  0.16170
       8     O     4.30887  4.30887  0.00000 -0.61774
       9     H     0.43067  0.43067  0.00000  0.13865
      10     H     0.41937  0.41937  0.00000  0.16126
      11     C     3.07941  3.07941  0.00000 -0.15883
      12     H     0.41250  0.41250  0.00000  0.17499
      13     H     0.42993  0.42993  0.00000  0.14014
      14     H     0.42824  0.42824  0.00000  0.14353

   Total alpha = 21.00000, Total beta = 21.00000, Total charge =  0.00000
