  ==> Input File <==

--------------------------------------------------------------------------
set {
	reference rhf
	basis 6-31G*
}

set_num_threads( 4 )
memory 2 gb

molecule MOL {
0 1

H	 3.701616	 -0.594385	 3.263359
C	 3.083275	 -0.997554	 2.467835
C	 1.787217	 -0.201488	 2.321282
H	 3.666269	 -0.970489	 1.551531
H	 2.883321	 -2.039537	 2.701365
C	 0.887072	 -0.736994	 1.212513
H	 2.008874	 0.840678	 2.113564
H	 1.244342	 -0.220790	 3.264842
N	 -0.316875	 0.060120	 1.083751
H	 1.419529	 -0.693518	 0.266171
H	 0.669092	 -1.794386	 1.396318
C	 -1.217365	 -0.386708	 0.039277
H	 -0.803482	 0.072088	 1.960170
C	 -2.452633	 0.504241	 -0.042481
H	 -0.681382	 -0.343767	 -0.905093
H	 -1.525730	 -1.429068	 0.172618
C	 -3.758029	 -0.289423	 -0.010781
H	 -2.394220	 1.093569	 -0.952170
H	 -2.440793	 1.210787	 0.785871
H	 -3.816659	 -0.981993	 -0.845726
H	 -4.617837	 0.370165	 -0.069296
H	 -3.847478	 -0.867502	 0.904682

	symmetry c1
}
set optking {
	frozen_dihedral = ("
		15 12 14 18
	")
}

ee = optimize('scf')
oeprop('DIPOLE', 'QUADRUPOLE', 'MULLIKEN_CHARGES')
f=open( 'psi4out.xyz', 'w' )
f.write( "22  " )
f.write( str(ee) + "\n" )
f.write( MOL.save_string_xyz() )
f.close()
--------------------------------------------------------------------------

    Molecular point group: c1
  Charge       = 0
  Multiplicity = 1
  Basis Set: 6-31G*
  Basis Set:
  @DF-RHF Final Energy:  -290.37697074654545
    Total Energy =                       -290.3769707465456804
    Molecular point group: c1
  Basis Set: 6-31G*
  Basis Set:
  Basis Set: 6-31G*
  Basis Set:
  @DF-RHF Final Energy:  -290.37729916208178
    Total Energy =                       -290.3772991620819539
  Basis Set: 6-31G*
  Basis Set:
  Basis Set: 6-31G*
  Basis Set:
  @DF-RHF Final Energy:  -290.37741071331459
    Total Energy =                       -290.3774107133145321
  Basis Set: 6-31G*
  Basis Set:
  Charge       = 0
  Multiplicity = 1
  Basis Set: 6-31G*
  Basis Set:

    Orbital Energies (a.u.)
    -----------------------

    Doubly Occupied:

       1A    -15.533813     2A    -11.238233     3A    -11.237575
       4A    -11.213494     5A    -11.213430     6A    -11.209806
       7A    -11.209667     8A     -1.204914     9A     -1.057419
      10A     -1.024706    11A     -0.927602    12A     -0.869532
      13A     -0.810240    14A     -0.794234    15A     -0.666984
      16A     -0.630031    17A     -0.617384    18A     -0.599300
      19A     -0.575820    20A     -0.563480    21A     -0.542512
      22A     -0.527399    23A     -0.506788    24A     -0.488074
      25A     -0.481133    26A     -0.472034    27A     -0.464793
      28A     -0.450028    29A     -0.358168

  @DF-RHF Final Energy:  -290.37741160868916

   => Energetics <=

    Nuclear Repulsion Energy =            313.5765001387700295
    One-Electron Energy =               -1012.9306319074440808
    Two-Electron Energy =                 408.9767201599848931
    DFT Exchange-Correlation Energy =       0.0000000000000000
    Empirical Dispersion Energy =           0.0000000000000000
    PCM Polarization Energy =               0.0000000000000000
    EFP Energy =                            0.0000000000000000
    Total Energy =                       -290.3774116086891581
    Molecular point group: c1
  Basis Set: 6-31G*
  Basis Set:

  -Total Gradient:
     Atom            X                  Y                   Z
    ------   -----------------  -----------------  -----------------
       1        0.000014651545    -0.000007689313     0.000003523042
       2        0.000015268278     0.000010042771     0.000028964557
       3        0.000037726059    -0.000029691068    -0.000018368457
       4       -0.000003761389     0.000002627359     0.000001046089
       5       -0.000001391080     0.000002777639    -0.000001967290
       6       -0.000017144357     0.000054396449     0.000032046655
       7       -0.000002699424    -0.000006875594    -0.000003810466
       8        0.000000425403    -0.000003525347    -0.000001831968
       9       -0.000025143680    -0.000066765050    -0.000116671663
      10        0.000008036873    -0.000007518567     0.000009277002
      11        0.000010836497    -0.000007495381    -0.000004342570
      12       -0.001549554378    -0.002252371122    -0.000922434101
      13       -0.000019710243    -0.000004059308    -0.000063111403
      14        0.001402356630     0.002182143398     0.001360619093
      15        0.001106774539     0.001601698006     0.000730014434
      16       -0.000009478626    -0.000020449388    -0.000014207027
      17        0.000001663940     0.000016228598     0.000024123375
      18       -0.000973598552    -0.001460348453    -0.001033943894
      19       -0.000003726036    -0.000007768601    -0.000019225740
      20        0.000006164012     0.000028336494    -0.000002205357
      21       -0.000004427356     0.000007832090     0.000015779418
      22        0.000006731346    -0.000031525612    -0.000003273732

  **** Optimization is complete! (in 4 steps) ****
    Final optimized geometry and variables:
    Molecular point group: c1

    Geometry (in Angstrom), charge = 0, multiplicity = 1:

    H            4.003845608324    -0.287578201650     2.239517793714
    C            3.382245316212    -0.691449685115     1.446853440187
    C            2.085381547929     0.104185417108     1.305149082207
    H            3.961335576774    -0.664885756482     0.528097585919
    H            3.183500454999    -1.733318855742     1.681936117488
    C            1.180907463458    -0.431830084726     0.200053215033
    H            2.305984369873     1.146282727239     1.096145714912
    H            1.546314851619     0.085042978349     2.250959450861
    N           -0.022977685442     0.365323491277     0.074698646052
    H            1.710092184038    -0.389615698389    -0.748307140058
    H            0.963531911726    -1.489289197963     0.385343598440
    C           -0.930432057984    -0.091457626331    -0.963176181188
    H           -0.505157714926     0.379808838710     0.953747139229
    C           -2.179075228592     0.808197319713    -1.054174025443
    H           -0.380673862958    -0.058503217212    -1.898211914723
    H           -1.229717230188    -1.133096811442    -0.813679736350
    C           -3.492475814730     0.024237068681    -1.050434976982
    H           -2.134342212384     1.405089454786    -1.959786095503
    H           -2.170559802119     1.509613936988    -0.226009441943
    H           -3.542741157975    -0.663460543161    -1.890034290350
    H           -4.347069931431     0.690269936801    -1.118830165512
    H           -3.599360511983    -0.560793633856    -0.140807079539

  Mulliken Charges: (a.u.)
   Center  Symbol    Alpha    Beta     Spin     Total
       1     H     0.41776  0.41776  0.00000  0.16448
       2     C     3.24323  3.24323  0.00000 -0.48646
       3     C     3.15545  3.15545  0.00000 -0.31089
       4     H     0.42069  0.42069  0.00000  0.15861
       5     H     0.42169  0.42169  0.00000  0.15662
       6     C     3.04759  3.04759  0.00000 -0.09519
       7     H     0.41292  0.41292  0.00000  0.17417
       8     H     0.42677  0.42677  0.00000  0.14645
       9     N     3.85725  3.85725  0.00000 -0.71451
      10     H     0.42183  0.42183  0.00000  0.15634
      11     H     0.43640  0.43640  0.00000  0.12720
      12     C     3.05231  3.05231  0.00000 -0.10462
      13     H     0.33574  0.33574  0.00000  0.32851
      14     C     3.16018  3.16018  0.00000 -0.32036
      15     H     0.41908  0.41908  0.00000  0.16184
      16     H     0.43261  0.43261  0.00000  0.13477
      17     C     3.24235  3.24235  0.00000 -0.48470
      18     H     0.41713  0.41713  0.00000  0.16575
      19     H     0.41499  0.41499  0.00000  0.17002
      20     H     0.42134  0.42134  0.00000  0.15732
      21     H     0.41943  0.41943  0.00000  0.16114
      22     H     0.42325  0.42325  0.00000  0.15351

   Total alpha = 29.00000, Total beta = 29.00000, Total charge = -0.00000
