  ==> Input File <==

--------------------------------------------------------------------------
set {
	reference rhf
	basis cc-pvtz
}

set_num_threads( 4 )
memory 2 gb

molecule MOL {
0 1

H	 -2.034284	 -0.971548	 -2.589092
N	 -1.110504	 -1.056162	 -2.222294
C	 -1.139130	 -1.383315	 -0.808684
H	 -0.649284	 -0.182133	 -2.361383
C	 0.265639	 -1.498688	 -0.262825
H	 -1.683007	 -0.656504	 -0.206616
H	 -1.630832	 -2.341831	 -0.684075
O	 0.881195	 -0.248324	 -0.336237
H	 0.233544	 -1.839664	 0.771040
H	 0.825207	 -2.227375	 -0.844914
C	 2.208068	 -0.234417	 0.074171
H	 2.725499	 -1.027054	 -0.446768
H	 2.688377	 0.712084	 -0.164856
H	 2.295137	 -0.403407	 1.144883

	symmetry c1
}
set optking {
	frozen_dihedral = ("
		5 8 11 13
	")
}

ee = optimize('scf')
oeprop('DIPOLE', 'QUADRUPOLE', 'MULLIKEN_CHARGES')
f=open( 'psi4out.xyz', 'w' )
f.write( "14  " )
f.write( str(ee) + "\n" )
f.write( MOL.save_string_xyz() )
f.close()
--------------------------------------------------------------------------

    Molecular point group: c1
  Charge       = 0
  Multiplicity = 1
  Basis Set: CC-PVTZ
  Basis Set:
  @DF-RHF Final Energy:  -248.22501162698993
    Total Energy =                       -248.2250116269899536
    Molecular point group: c1
  Basis Set: CC-PVTZ
  Basis Set:
  Basis Set: CC-PVTZ
  Basis Set:
  @DF-RHF Final Energy:  -248.22575865259410
    Total Energy =                       -248.2257586525940951
  Basis Set: CC-PVTZ
  Basis Set:
  Basis Set: CC-PVTZ
  Basis Set:
  @DF-RHF Final Energy:  -248.22595595628212
    Total Energy =                       -248.2259559562820073
  Basis Set: CC-PVTZ
  Basis Set:
  Charge       = 0
  Multiplicity = 1
  Basis Set: CC-PVTZ
  Basis Set:

    Orbital Energies (a.u.)
    -----------------------

    Doubly Occupied:

       1A    -20.550604     2A    -15.523509     3A    -11.263996
       4A    -11.263608     5A    -11.239869     6A     -1.384470
       7A     -1.175978     8A     -1.000651     9A     -0.907690
      10A     -0.815798    11A     -0.685275    12A     -0.676177
      13A     -0.647252    14A     -0.612421    15A     -0.607637
      16A     -0.542057    17A     -0.530626    18A     -0.497881
      19A     -0.474427    20A     -0.420054    21A     -0.383866

  @DF-RHF Final Energy:  -248.22595687053482

   => Energetics <=

    Nuclear Repulsion Energy =            194.6994633150735865
    One-Electron Energy =                -723.4431505058645371
    Two-Electron Energy =                 280.5177303202563053
    DFT Exchange-Correlation Energy =       0.0000000000000000
    Empirical Dispersion Energy =           0.0000000000000000
    PCM Polarization Energy =               0.0000000000000000
    EFP Energy =                            0.0000000000000000
    Total Energy =                       -248.2259568705346737
    Molecular point group: c1
  Basis Set: CC-PVTZ
  Basis Set:

  -Total Gradient:
     Atom            X                  Y                   Z
    ------   -----------------  -----------------  -----------------
       1       -0.000000931521     0.000005774085    -0.000012435088
       2       -0.000011810751     0.000002613132    -0.000027773492
       3        0.000062553742     0.000100217483     0.000000521716
       4       -0.000000610860     0.000005646988    -0.000006944200
       5        0.000397611252    -0.000315938078    -0.000930724992
       6       -0.000016507721     0.000005413725     0.000007933529
       7        0.000058091580     0.000005003237     0.000020473175
       8       -0.000406524422     0.000226356086     0.001143735855
       9       -0.000000140993    -0.000002579524     0.000007857805
      10        0.000012958125     0.000023870204    -0.000014123711
      11       -0.000328809122     0.000453302520     0.001063171498
      12       -0.000030863784    -0.000014344653    -0.000014354147
      13        0.000322141801    -0.000493625787    -0.001225122360
      14       -0.000057157325    -0.000001709418    -0.000012215587

  **** Optimization is complete! (in 4 steps) ****
    Final optimized geometry and variables:
    Molecular point group: c1

    Geometry (in Angstrom), charge = 0, multiplicity = 1:

    H           -2.268476271109    -0.087557606726    -1.867626533318
    N           -1.344689228964    -0.178789482083    -1.502469182633
    C           -1.372922022815    -0.509368352012    -0.089650085631
    H           -0.878386645596     0.692713734012    -1.640265943568
    C            0.032077078848    -0.633750895233     0.453694358613
    H           -1.912036912104     0.218724043689     0.515156147601
    H           -1.869313943708    -1.465638452465     0.033625841581
    O            0.654536031161     0.612989299622     0.378377474774
    H           -0.000901450413    -0.976266463819     1.487233676110
    H            0.586804713079    -1.364248787768    -0.130248676370
    C            1.980306359267     0.624545851833     0.793110401320
    H            2.557028035097    -0.153889679486     0.299201228260
    H            2.404230617582     1.582199270739     0.527086200479
    H            2.062715685025     0.484107188893     1.868503576206

  Mulliken Charges: (a.u.)
   Center  Symbol    Alpha    Beta     Spin     Total
       1     H     0.43024  0.43024  0.00000  0.13953
       2     N     3.69420  3.69420  0.00000 -0.38839
       3     C     3.02199  3.02199  0.00000 -0.04398
       4     H     0.42246  0.42246  0.00000  0.15509
       5     C     2.96949  2.96949  0.00000  0.06103
       6     H     0.46452  0.46452  0.00000  0.07097
       7     H     0.45872  0.45872  0.00000  0.08257
       8     O     4.18025  4.18025  0.00000 -0.36049
       9     H     0.47054  0.47054  0.00000  0.05892
      10     H     0.46761  0.46761  0.00000  0.06478
      11     C     3.03152  3.03152  0.00000 -0.06304
      12     H     0.47174  0.47174  0.00000  0.05652
      13     H     0.44785  0.44785  0.00000  0.10430
      14     H     0.46890  0.46890  0.00000  0.06220

   Total alpha = 21.00000, Total beta = 21.00000, Total charge =  0.00000
