  ==> Input File <==

--------------------------------------------------------------------------
set {
	reference rhf
	basis 6-31G*
}

set_num_threads( 1 )
memory 2 gb

molecule MOL {
0 1

O	 0.625848	 1.349995	 -0.000749
C	 0.486307	 0.169203	 0.000779
C	 1.608116	 -0.841643	 0.000302
O	 -0.698257	 -0.426125	 0.001050
C	 2.990107	 -0.200498	 -0.000684
H	 1.468623	 -1.481519	 -0.865924
H	 1.469683	 -1.481289	 0.866878
H	 3.129736	 0.423364	 -0.875135
H	 3.757882	 -0.966877	 -0.001197
H	 3.130964	 0.423383	 0.873533
C	 -1.569902	 -0.157223	 -1.092260
C	 -2.841559	 -0.946463	 -0.863567
H	 -1.080468	 -0.445673	 -2.012496
H	 -1.761848	 0.906146	 -1.136922
H	 -2.631645	 -2.008921	 -0.815842
H	 -3.537278	 -0.770021	 -1.677503
H	 -3.316876	 -0.649732	 0.064486

	symmetry c1
}
set optking {
	frozen_dihedral = ("
		2 4 11 13,
		4 2 3 6
	")
}

ee = energy('scf')
oeprop('DIPOLE', 'QUADRUPOLE', 'MULLIKEN_CHARGES')
f=open( 'psi4out.xyz', 'w' )
f.write( "17  " )
f.write( str(ee) + "\n" )
f.write( MOL.save_string_xyz() )
f.close()
--------------------------------------------------------------------------

    Molecular point group: c1

    Geometry (in Angstrom), charge = 0, multiplicity = 1:

       Center              X                  Y                   Z               Mass
    ------------   -----------------  -----------------  -----------------  -----------------
           O          0.551854784601     1.497355033147     0.284199362796    15.994914619560
           C          0.412313784601     0.316563033147     0.285727362796    12.000000000000
           C          1.534122784601    -0.694282966853     0.285250362796    12.000000000000
           O         -0.772250215399    -0.278764966853     0.285998362796    15.994914619560
           C          2.916113784601    -0.053137966853     0.284264362796    12.000000000000
           H          1.394629784601    -1.334158966853    -0.580975637204     1.007825032070
           H          1.395689784601    -1.333928966853     1.151826362796     1.007825032070
           H          3.055742784601     0.570724033147    -0.590186637204     1.007825032070
           H          3.683888784601    -0.819516966853     0.283751362796     1.007825032070
           H          3.056970784601     0.570743033147     1.158481362796     1.007825032070
           C         -1.643895215399    -0.009862966853    -0.807311637204    12.000000000000
           C         -2.915552215399    -0.799102966853    -0.578618637204    12.000000000000
           H         -1.154461215399    -0.298312966853    -1.727547637204     1.007825032070
           H         -1.835841215399     1.053506033147    -0.851973637204     1.007825032070
           H         -2.705638215399    -1.861560966853    -0.530893637204     1.007825032070
           H         -3.611271215399    -0.622660966853    -1.392554637204     1.007825032070
           H         -3.390869215399    -0.502371966853     0.349434362796     1.007825032070

  Charge       = 0
  Multiplicity = 1
  Basis Set: 6-31G*
  Basis Set:

    Orbital Energies (a.u.)
    -----------------------

    Doubly Occupied:

       1A    -20.587470     2A    -20.550603     3A    -11.372058
       4A    -11.293456     5A    -11.237961     6A    -11.225209
       7A    -11.215602     8A     -1.463458     9A     -1.363833
      10A     -1.067772    11A     -1.035474    12A     -0.907560
      13A     -0.857962    14A     -0.773080    15A     -0.699870
      16A     -0.684050    17A     -0.660458    18A     -0.631811
      19A     -0.599733    20A     -0.563478    21A     -0.557515
      22A     -0.527648    23A     -0.522597    24A     -0.518984
      25A     -0.504039    26A     -0.490228    27A     -0.450735
      28A     -0.432998

  @DF-RHF Final Energy:  -344.89744765068565

   => Energetics <=

    Nuclear Repulsion Energy =            314.8794250676843376
    One-Electron Energy =               -1093.9624296896893156
    Two-Electron Energy =                 434.1855569713188743
    DFT Exchange-Correlation Energy =       0.0000000000000000
    Empirical Dispersion Energy =           0.0000000000000000
    PCM Polarization Energy =               0.0000000000000000
    EFP Energy =                            0.0000000000000000
    Total Energy =                       -344.8974476506861038

  Mulliken Charges: (a.u.)
   Center  Symbol    Alpha    Beta     Spin     Total
       1     O     4.26965  4.26965  0.00000 -0.53930
       2     C     2.60814  2.60814  0.00000  0.78372
       3     C     3.20701  3.20701  0.00000 -0.41403
       4     O     4.31701  4.31701  0.00000 -0.63403
       5     C     3.23985  3.23985  0.00000 -0.47970
       6     H     0.40600  0.40600  0.00000  0.18801
       7     H     0.39924  0.39924  0.00000  0.20153
       8     H     0.41116  0.41116  0.00000  0.17768
       9     H     0.41873  0.41873  0.00000  0.16255
      10     H     0.40911  0.40911  0.00000  0.18178
      11     C     3.00458  3.00458  0.00000 -0.00915
      12     C     3.24802  3.24802  0.00000 -0.49604
      13     H     0.42097  0.42097  0.00000  0.15805
      14     H     0.40472  0.40472  0.00000  0.19057
      15     H     0.41166  0.41166  0.00000  0.17668
      16     H     0.41679  0.41679  0.00000  0.16642
      17     H     0.40737  0.40737  0.00000  0.18526

   Total alpha = 28.00000, Total beta = 28.00000, Total charge = -0.00000
