                              Psi4 1.0.54 Driver

  ==> Input File <==

--------------------------------------------------------------------------
set {
	reference rhf
	basis cc-pvtz
}

set_num_threads( 4 )
memory 2 gb

molecule MOL {
0 1

O	 -2.817697	 1.304178	 0.001046
C	 -2.664672	 0.129869	 0.003507
C	 -3.797908	 -0.860100	 -0.001145
O	 -1.481217	 -0.452708	 0.001092
H	 -4.408836	 -0.679689	 -0.875387
H	 -3.443486	 -1.878443	 -0.002770
H	 -4.412123	 -0.683688	 0.871605
C	 -0.332055	 0.384012	 -0.000250
C	 0.892252	 -0.506059	 -0.000295
H	 -0.360822	 1.020205	 -0.874146
H	 -0.359817	 1.021310	 0.872861
C	 2.008390	 0.052188	 -0.878336
H	 0.608356	 -1.494884	 -0.345691
H	 1.244750	 -0.619700	 1.019752
C	 3.254340	 -0.829007	 -0.893532
H	 1.643758	 0.172483	 -1.895464
H	 2.278735	 1.046767	 -0.532357
C	 4.370367	 -0.270909	 -1.769898
H	 2.985797	 -1.822671	 -1.240770
H	 3.619724	 -0.949809	 0.122336
H	 4.045996	 -0.170711	 -2.800233
H	 5.238910	 -0.918992	 -1.758601
H	 4.684609	 0.709068	 -1.426751

	symmetry c1
}
set optking {
	frozen_dihedral = ("
		13 9 8 10
	")
}

ee,wfn = optimize('scf', return_wfn=True)
oeprop( wfn, 'DIPOLE', 'QUADRUPOLE', 'MULLIKEN_CHARGES')
f=open( 'psi4out.xyz', 'w' )
f.write( "23  " )
f.write( str(ee) + "\n" )
f.write( MOL.save_string_xyz() )
f.close()
--------------------------------------------------------------------------

    Molecular point group: c1
  Charge       = 0
  Multiplicity = 1
  Basis Set: CC-PVTZ
  Basis Set:
  @DF-RHF Final Energy:  -423.13039968665680
    Total Energy =                       -423.1303996866563466
    Molecular point group: c1
  Basis Set: CC-PVTZ
  Basis Set:
  Basis Set: CC-PVTZ
  Basis Set:
  @DF-RHF Final Energy:  -423.13055134940544
    Total Energy =                       -423.1305513494054367
  Basis Set: CC-PVTZ
  Basis Set:
  Basis Set: CC-PVTZ
  Basis Set:
  @DF-RHF Final Energy:  -423.13066380038919
    Total Energy =                       -423.1306638003891294
  Basis Set: CC-PVTZ
  Basis Set:
  Basis Set: CC-PVTZ
  Basis Set:
  @DF-RHF Final Energy:  -423.13082563040615
    Total Energy =                       -423.1308256304059796
  Basis Set: CC-PVTZ
  Basis Set:
  Basis Set: CC-PVTZ
  Basis Set:
  @DF-RHF Final Energy:  -423.13083205655579
    Total Energy =                       -423.1308320565563008
  Basis Set: CC-PVTZ
  Basis Set:
  Basis Set: CC-PVTZ
  Basis Set:
  @DF-RHF Final Energy:  -423.13083379084236
    Total Energy =                       -423.1308337908419617
  Basis Set: CC-PVTZ
  Basis Set:
  Charge       = 0
  Multiplicity = 1
  Basis Set: CC-PVTZ
  Basis Set:

    Orbital Energies (a.u.)
    -----------------------

    Doubly Occupied:

       1A    -20.596722     2A    -20.529923     3A    -11.366662
       4A    -11.279289     5A    -11.230985     6A    -11.221934
       7A    -11.221023     8A    -11.219016     9A    -11.210753
      10A     -1.471612    11A     -1.364463    12A     -1.093804
      13A     -1.042542    14A     -1.003870    15A     -0.931768
      16A     -0.843171    17A     -0.802662    18A     -0.779685
      19A     -0.691951    20A     -0.686590    21A     -0.671336
      22A     -0.647221    23A     -0.607523    24A     -0.586662
      25A     -0.584251    26A     -0.568920    27A     -0.559771
      28A     -0.538317    29A     -0.525467    30A     -0.505020
      31A     -0.494054    32A     -0.477081    33A     -0.471052
      34A     -0.466467    35A     -0.450549    36A     -0.439269

  @DF-RHF Final Energy:  -423.13083399402836

   => Energetics <=

    Nuclear Repulsion Energy =            450.6060085045491519
    One-Electron Energy =               -1469.1109115284871223
    Two-Electron Energy =                 595.3740690299100606
    DFT Exchange-Correlation Energy =       0.0000000000000000
    Empirical Dispersion Energy =           0.0000000000000000
    PCM Polarization Energy =               0.0000000000000000
    EFP Energy =                            0.0000000000000000
    Total Energy =                       -423.1308339940278529
    Molecular point group: c1
  Basis Set: CC-PVTZ
  Basis Set:

  -Total Gradient:
     Atom            X                  Y                   Z
    ------   -----------------  -----------------  -----------------
       1        0.000000371712     0.000052188289     0.000010046786
       2        0.000044690077    -0.000057766977    -0.000020503479
       3       -0.000000654111    -0.000002703863     0.000003389504
       4       -0.000037202414     0.000016058293     0.000020898221
       5       -0.000017355909     0.000004600931    -0.000019884869
       6        0.000001882132    -0.000015320161     0.000000447924
       7       -0.000009950589     0.000002073234     0.000019502344
       8       -0.003047708843    -0.004143188580    -0.001925446989
       9        0.001647881671     0.002322064841    -0.004402680097
      10        0.002253190694     0.003062175521     0.002233570988
      11       -0.000012301727     0.000000377150     0.000002204906
      12        0.000014532765    -0.000008716631     0.000026224981
      13       -0.000849653302    -0.001238684182     0.004054904377
      14        0.000014833794    -0.000005995570    -0.000005397292
      15        0.000009347996     0.000007204128     0.000004095487
      16       -0.000005909923    -0.000001489479     0.000001943223
      17        0.000006779328     0.000007256938     0.000003826078
      18       -0.000007797691    -0.000002346721    -0.000008752553
      19       -0.000004246826    -0.000002804766    -0.000000136689
      20       -0.000002010361     0.000004347296     0.000006531510
      21        0.000000616980     0.000002916710    -0.000009502615
      22       -0.000001317913    -0.000005015849    -0.000000057853
      23        0.000001982463     0.000002769453     0.000004776107

  **** Optimization is complete! (in 7 steps) ****
    Final optimized geometry and variables:
    Molecular point group: c1

    Geometry (in Angstrom), charge = 0, multiplicity = 1:

    O           -2.735541728705     1.428524329971     0.436135704068
    C           -2.602357052729     0.252015138374     0.416716138964
    C           -3.751261172076    -0.719426045343     0.450964078232
    O           -1.429630418854    -0.350026280365     0.361716337423
    H           -4.395043339245    -0.520719154440    -0.395390057684
    H           -3.414445100833    -1.743475998251     0.425609772988
    H           -4.325398745437    -0.541184411321     1.350326935966
    C           -0.269083474303     0.467569463573     0.330249760454
    C            0.963642471220    -0.429447184383     0.312190072454
    H           -0.302236984392     1.119695121163    -0.531765724543
    H           -0.274861614484     1.110894944144     1.198931367632
    C            2.106709176049     0.146048321893    -0.516796580361
    H            0.674950568760    -1.409635977093    -0.049102958056
    H            1.302023323205    -0.587569311366     1.331686927261
    C            3.369942189902    -0.708022025978    -0.471864961004
    H            1.781234890459     0.254631500389    -1.548191104340
    H            2.340519640891     1.148473499620    -0.164822523730
    C            4.506710497414    -0.138611377265    -1.313734433499
    H            3.134890892501    -1.711956762597    -0.814468488555
    H            3.699320523985    -0.807392193246     0.558610807284
    H            4.219909672321    -0.059825782271    -2.357034299580
    H            5.387448023370    -0.767894548638    -1.259899279878
    H            4.787262164537     0.852625068714    -0.973488553876

  Mulliken Charges: (a.u.)
   Center  Symbol    Alpha    Beta     Spin     Total
       1     O     4.20214  4.20214  0.00000 -0.40427
       2     C     2.81074  2.81074  0.00000  0.37852
       3     C     3.13924  3.13924  0.00000 -0.27847
       4     O     4.14524  4.14524  0.00000 -0.29047
       5     H     0.44217  0.44217  0.00000  0.11565
       6     H     0.44202  0.44202  0.00000  0.11597
       7     H     0.44210  0.44210  0.00000  0.11581
       8     C     2.98207  2.98207  0.00000  0.03586
       9     C     3.08880  3.08880  0.00000 -0.17761
      10     H     0.45495  0.45495  0.00000  0.09010
      11     H     0.45283  0.45283  0.00000  0.09435
      12     C     3.09542  3.09542  0.00000 -0.19084
      13     H     0.44649  0.44649  0.00000  0.10702
      14     H     0.45217  0.45217  0.00000  0.09567
      15     C     3.08569  3.08569  0.00000 -0.17138
      16     H     0.45211  0.45211  0.00000  0.09579
      17     H     0.45242  0.45242  0.00000  0.09516
      18     C     3.14945  3.14945  0.00000 -0.29890
      19     H     0.45345  0.45345  0.00000  0.09310
      20     H     0.45351  0.45351  0.00000  0.09299
      21     H     0.45456  0.45456  0.00000  0.09088
      22     H     0.44780  0.44780  0.00000  0.10439
      23     H     0.45465  0.45465  0.00000  0.09070

   Total alpha = 36.00000, Total beta = 36.00000, Total charge =  0.00000

*** Psi4 exiting successfully. Buy a developer a beer!
