  ==> Input File <==

--------------------------------------------------------------------------
set {
	reference rhf
	basis 6-31G*
}

set_num_threads( 4 )
memory 2 gb

molecule MOL {
0 1

H	 -2.153054	 -2.250733	 0.000000
O	 -2.462445	 -1.355403	 0.000000
C	 -1.434260	 -0.483044	 0.000000
C	 -0.160282	 -0.998433	 0.214627
C	 -1.606806	 0.873172	 -0.202032
H	 -0.050522	 -2.055314	 0.369249
C	 0.931284	 -0.154718	 0.225708
H	 -2.586306	 1.284548	 -0.369080
C	 -0.495009	 1.711703	 -0.187945
H	 1.912113	 -0.560710	 0.392185
C	 0.777868	 1.209965	 0.024721
C	 -0.683838	 3.129388	 -0.400099
H	 1.624995	 1.868669	 0.032793
N	 -0.834781	 4.243052	 -0.567054

	symmetry c1
}
set optking {
	frozen_dihedral = ("
		14 12 9 5
	")
}

ee = optimize('scf')
oeprop('DIPOLE', 'QUADRUPOLE', 'MULLIKEN_CHARGES')
f=open( 'psi4out.xyz', 'w' )
f.write( "14  " )
f.write( str(ee) + "\n" )
f.write( MOL.save_string_xyz() )
f.close()
--------------------------------------------------------------------------

    Molecular point group: c1
  Charge       = 0
  Multiplicity = 1
  Basis Set: 6-31G*
  Basis Set:
  @DF-RHF Final Energy:  -397.28898558061934
    Total Energy =                       -397.2889855806192827
    Molecular point group: c1
  Basis Set: 6-31G*
  Basis Set:
  Basis Set: 6-31G*
  Basis Set:
  @DF-RHF Final Energy:  -397.08310242825468
    Total Energy =                       -397.0831024282547332
  Basis Set: 6-31G*
  Basis Set:
  Basis Set: 6-31G*
  Basis Set:
  @DF-RHF Final Energy:  -397.19952180782195
    Total Energy =                       -397.1995218078218386
  Basis Set: 6-31G*
  Basis Set:
  Basis Set: 6-31G*
  Basis Set:
  @DF-RHF Final Energy:  -397.24550532970329
    Total Energy =                       -397.2455053297028371
  Basis Set: 6-31G*
  Basis Set:
  @DF-RHF Final Energy:  -397.20300657507443
    Total Energy =                       -397.2030065750747099
  @DF-RHF Final Energy:  -397.18293363259465
    Total Energy =                       -397.1829336325944837
  @DF-RHF Final Energy:  -396.73006837126132
    Total Energy =                       -396.7300683712611544
  @DF-RHF Final Energy:  -397.24024866395894
    Total Energy =                       -397.2402486639587664
  @DF-RHF Final Energy:  -396.97900689674503
    Total Energy =                       -396.9790068967449770
  @DF-RHF Final Energy:  -397.26487109135292
    Total Energy =                       -397.2648710913531431
  @DF-RHF Final Energy:  -397.28640003991086
    Total Energy =                       -397.2864000399108590
  @DF-RHF Final Energy:  -397.29016720803054
    Total Energy =                       -397.2901672080304252
  @DF-RHF Final Energy:  -397.29148286385367
    Total Energy =                       -397.2914828638533891
  @DF-RHF Final Energy:  -397.29159510822831
    Total Energy =                       -397.2915951082286483
  @DF-RHF Final Energy:  -397.28768392625676
    Total Energy =                       -397.2876839262569320
  @DF-RHF Final Energy:  -397.29042969935659
    Total Energy =                       -397.2904296993563094
  @DF-RHF Final Energy:  -397.28998621685463
    Total Energy =                       -397.2899862168544587
  @DF-RHF Final Energy:  -397.29115744377083
    Total Energy =                       -397.2911574437703166
  @DF-RHF Final Energy:  -397.21095979246348
    Total Energy =                       -397.2109597924634841
  @DF-RHF Final Energy:  -397.26798998174502
    Total Energy =                       -397.2679899817450178
  @DF-RHF Final Energy:  -397.29138455514629
    Total Energy =                       -397.2913845551464647
  @DF-RHF Final Energy:  -397.29147175184102
    Total Energy =                       -397.2914717518409589
  @DF-RHF Final Energy:  -397.29159448346218
    Total Energy =                       -397.2915944834619495
  @DF-RHF Final Energy:  -397.29160667831809
    Total Energy =                       -397.2916066783182032
  @DF-RHF Final Energy:  -397.29152567027415
    Total Energy =                       -397.2915256702741544
  @DF-RHF Final Energy:  -397.29160598110201
    Total Energy =                       -397.2916059811018386
  @DF-RHF Final Energy:  -397.27917588869656
    Total Energy =                       -397.2791758886966136
  @DF-RHF Final Energy:  -397.28441118936468
    Total Energy =                       -397.2844111893645049
  @DF-RHF Final Energy:  -397.28660442789476
    Total Energy =                       -397.2866044278945310
  @DF-RHF Final Energy:  -397.28879773191221
    Total Energy =                       -397.2887977319130641
  @DF-RHF Final Energy:  -397.29097249445590
    Total Energy =                       -397.2909724944561276
  @DF-RHF Final Energy:  -397.29157201880668
    Total Energy =                       -397.2915720188066189
  @DF-RHF Final Energy:  -397.29134590044475
    Total Energy =                       -397.2913459004447532
  @DF-RHF Final Energy:  -397.29159972501611
    Total Energy =                       -397.2915997250164537
  @DF-RHF Final Energy:  -397.29154756779747
    Total Energy =                       -397.2915475677978066
  @DF-RHF Final Energy:  -397.29157266444753
    Total Energy =                       -397.2915726644470169
  Basis Set: 6-31G*
  Basis Set:
  @DF-RHF Final Energy:  -397.29152875545918
    Total Energy =                       -397.2915287554593533
  Basis Set: 6-31G*
  Basis Set:
  Basis Set: 6-31G*
  Basis Set:
  @DF-RHF Final Energy:  -397.29155497673912
    Total Energy =                       -397.2915549767393486
  Basis Set: 6-31G*
  Basis Set:
  Basis Set: 6-31G*
  Basis Set:
  @DF-RHF Final Energy:  -397.29157135622717
    Total Energy =                       -397.2915713562272231
  Basis Set: 6-31G*
  Basis Set:
  Charge       = 0
  Multiplicity = 1
  Basis Set: 6-31G*
  Basis Set:

    Orbital Energies (a.u.)
    -----------------------

    Doubly Occupied:

       1A    -20.613265     2A    -15.572877     3A    -11.326340
       4A    -11.293528     5A    -11.273956     6A    -11.264437
       7A    -11.259408     8A    -11.258819     9A    -11.258129
      10A     -1.433831    11A     -1.232539    12A     -1.181897
      13A     -1.062619    14A     -1.039679    15A     -0.899165
      16A     -0.857471    17A     -0.794108    18A     -0.714385
      19A     -0.692613    20A     -0.670160    21A     -0.628405
      22A     -0.613926    23A     -0.595438    24A     -0.564101
      25A     -0.546884    26A     -0.537262    27A     -0.526031
      28A     -0.473652    29A     -0.471827    30A     -0.362582
      31A     -0.336796

  @DF-RHF Final Energy:  -397.29151090605171

   => Energetics <=

    Nuclear Repulsion Energy =            379.4278189079456070
    One-Electron Energy =               -1290.7264056103231269
    Two-Electron Energy =                 514.0070757963256938
    DFT Exchange-Correlation Energy =       0.0000000000000000
    Empirical Dispersion Energy =           0.0000000000000000
    PCM Polarization Energy =               0.0000000000000000
    EFP Energy =                            0.0000000000000000
    Total Energy =                       -397.2915109060518262
    Molecular point group: c1
  Basis Set: 6-31G*
  Basis Set:

  -Total Gradient:
     Atom            X                  Y                   Z
    ------   -----------------  -----------------  -----------------
       1        0.000020281720    -0.000064620216     0.000087192025
       2        0.000108168034     0.000135155323    -0.000021435816
       3        0.000061407742    -0.000164102039     0.000070094958
       4       -0.000205011507    -0.000008287311     0.000029837181
       5       -0.000768300228     0.000026457670    -0.000128985849
       6       -0.000031074860    -0.000035324238    -0.000031962993
       7        0.000187690315     0.000038330618     0.000098805103
       8        0.000053192930     0.000004947788    -0.000135108766
       9        0.003457376067     0.000917632684    -0.000099042844
      10       -0.000019544993    -0.000027254180     0.000017281558
      11       -0.000432849457    -0.000447884694    -0.000046917097
      12       -0.005236978648     0.007169198195    -0.000802422450
      13        0.000076179174    -0.000032680463    -0.000090615990
      14        0.002729463716    -0.007511569136     0.001053280980

    Molecular point group: c1

    Geometry (in Angstrom), charge = 0, multiplicity = 1:

    H           -1.571502158018    -3.036171554165     0.219460899856
    O           -1.797137602608    -2.129814673031     0.061886326874
    C           -0.701842680731    -1.344102792831     0.090357611179
    C            0.573144066047    -1.840982435193     0.309764944876
    C           -0.891666475529     0.014745088223    -0.111601744875
    H            0.719211774624    -2.896244462968     0.465798171546
    C            1.659970282656    -0.980350435126     0.327018242315
    H           -1.882116320774     0.390617043078    -0.281557057711
    C            0.204959567207     0.862515035961    -0.089215793854
    H            2.644064975524    -1.376646129225     0.497381387120
    C            1.489949115203     0.375656472814     0.128377951779
    C            0.000361967089     2.280249717557    -0.291266909207
    H            2.327729053903     1.046278296203     0.140540978710
    N           -0.109143359688     3.397222118384    -0.457103437612

  Mulliken Charges: (a.u.)
   Center  Symbol    Alpha    Beta     Spin     Total
       1     H     0.26884  0.26884  0.00000  0.46232
       2     O     4.37540  4.37540  0.00000 -0.75080
       3     C     2.79243  2.79243  0.00000  0.41515
       4     C     3.13506  3.13506  0.00000 -0.27012
       5     C     3.11363  3.11363  0.00000 -0.22726
       6     H     0.39601  0.39601  0.00000  0.20798
       7     C     3.09468  3.09468  0.00000 -0.18935
       8     H     0.37355  0.37355  0.00000  0.25290
       9     C     2.99276  2.99276  0.00000  0.01448
      10     H     0.38897  0.38897  0.00000  0.22205
      11     C     3.09826  3.09826  0.00000 -0.19653
      12     C     2.86529  2.86529  0.00000  0.26943
      13     H     0.38132  0.38132  0.00000  0.23735
      14     N     3.72380  3.72380  0.00000 -0.44759

   Total alpha = 31.00000, Total beta = 31.00000, Total charge = -0.00000
