                              Psi4 1.0.54 Driver

  ==> Input File <==

--------------------------------------------------------------------------
set {
	reference rhf
	basis cc-pvtz
}

set_num_threads( 4 )
memory 2 gb

molecule MOL {
0 1

H	 -1.835082	 1.385983	 0.000069
C	 -1.300516	 0.441153	 -0.000028
O	 -0.006604	 0.654344	 -0.000106
O	 -1.828920	 -0.612308	 0.000113
C	 0.611373	 0.978016	 -1.242347
C	 2.086584	 1.174861	 -0.986012
H	 0.152191	 1.872669	 -1.638209
H	 0.431602	 0.174042	 -1.941826
H	 2.251350	 1.979952	 -0.281278
H	 2.587588	 1.423137	 -1.914024
H	 2.532164	 0.272790	 -0.586392

	symmetry c1
}
set optking {
	frozen_dihedral = ("
		5 3 2 4
	")
}

ee,wfn = optimize('scf', return_wfn=True)
oeprop( wfn, 'DIPOLE', 'QUADRUPOLE', 'MULLIKEN_CHARGES')
f=open( 'psi4out.xyz', 'w' )
f.write( "11  " )
f.write( str(ee) + "\n" )
f.write( MOL.save_string_xyz() )
f.close()
--------------------------------------------------------------------------

    Molecular point group: c1
  Charge       = 0
  Multiplicity = 1
  Basis Set: CC-PVTZ
  Basis Set:
  @DF-RHF Final Energy:  -266.91204153997126
    Total Energy =                       -266.9120415399713124
    Molecular point group: c1
  Basis Set: CC-PVTZ
  Basis Set:
  Basis Set: CC-PVTZ
  Basis Set:
  @DF-RHF Final Energy:  -266.91309593935091
    Total Energy =                       -266.9130959393509102
  Basis Set: CC-PVTZ
  Basis Set:
  Basis Set: CC-PVTZ
  Basis Set:
  @DF-RHF Final Energy:  -266.91306614662909
    Total Energy =                       -266.9130661466290348
  Basis Set: CC-PVTZ
  Basis Set:
  Basis Set: CC-PVTZ
  Basis Set:
  @DF-RHF Final Energy:  -266.91337377166371
    Total Energy =                       -266.9133737716636574
  Basis Set: CC-PVTZ
  Basis Set:
  Basis Set: CC-PVTZ
  Basis Set:
  @DF-RHF Final Energy:  -266.91338572184560
    Total Energy =                       -266.9133857218456569
  Basis Set: CC-PVTZ
  Basis Set:
  Charge       = 0
  Multiplicity = 1
  Basis Set: CC-PVTZ
  Basis Set:

    Orbital Energies (a.u.)
    -----------------------

    Doubly Occupied:

       1A    -20.586802     2A    -20.560313     3A    -11.373876
       4A    -11.300957     5A    -11.227880     6A     -1.470720
       7A     -1.383289     8A     -1.050341     9A     -0.887543
      10A     -0.832519    11A     -0.743658    12A     -0.693688
      13A     -0.650832    14A     -0.640977    15A     -0.565338
      16A     -0.543443    17A     -0.537479    18A     -0.507833
      19A     -0.467933    20A     -0.457386

  @DF-RHF Final Energy:  -266.91338663882948

   => Energetics <=

    Nuclear Repulsion Energy =            177.2384760390435758
    One-Electron Energy =                -715.3381103912855679
    Two-Electron Energy =                 271.1862477134123424
    DFT Exchange-Correlation Energy =       0.0000000000000000
    Empirical Dispersion Energy =           0.0000000000000000
    PCM Polarization Energy =               0.0000000000000000
    EFP Energy =                            0.0000000000000000
    Total Energy =                       -266.9133866388296497
    Molecular point group: c1
  Basis Set: CC-PVTZ
  Basis Set:

  -Total Gradient:
     Atom            X                  Y                   Z
    ------   -----------------  -----------------  -----------------
       1        0.000013638713    -0.000029723799    -0.000010547776
       2        0.000040390843    -0.000867066828     0.003023476731
       3       -0.000134162729     0.002405942712    -0.000582015115
       4       -0.000006788034     0.000081373859    -0.002123208042
       5        0.000094057905    -0.001590858636    -0.000338028356
       6        0.000006515384    -0.000011565273     0.000017817285
       7        0.000000033765     0.000014674464     0.000011454769
       8       -0.000002654606    -0.000000299861    -0.000004096131
       9       -0.000000857399     0.000000772345    -0.000000063215
      10       -0.000014636946    -0.000002894385     0.000002245294
      11        0.000004463103    -0.000000354599     0.000002964555

  **** Optimization is complete! (in 6 steps) ****
    Final optimized geometry and variables:
    Molecular point group: c1

    Geometry (in Angstrom), charge = 0, multiplicity = 1:

    H           -1.726351721846     0.961916708312     0.482353581079
    C           -1.228166001612    -0.006944363793     0.446667226629
    O            0.104502361468     0.086622746131     0.465100441156
    O           -1.815622127767    -1.018942889838     0.408222882608
    C            0.726771576471     0.390406834850    -0.774887166039
    C            2.208091781906     0.554162817344    -0.533570544497
    H            0.299453176947     1.302980986894    -1.181126234166
    H            0.530938113659    -0.416593348477    -1.470396158312
    H            2.394535701633     1.362723320190     0.161323522748
    H            2.710296040598     0.777012579701    -1.467461924949
    H            2.626488067271    -0.355586676414    -0.123776036543

  Mulliken Charges: (a.u.)
   Center  Symbol    Alpha    Beta     Spin     Total
       1     H     0.46754  0.46754  0.00000  0.06492
       2     C     2.83882  2.83882  0.00000  0.32236
       3     O     4.15611  4.15611  0.00000 -0.31223
       4     O     4.16263  4.16263  0.00000 -0.32526
       5     C     2.96842  2.96842  0.00000  0.06317
       6     C     3.13365  3.13365  0.00000 -0.26730
       7     H     0.46644  0.46644  0.00000  0.06713
       8     H     0.45543  0.45543  0.00000  0.08915
       9     H     0.44954  0.44954  0.00000  0.10092
      10     H     0.45581  0.45581  0.00000  0.08838
      11     H     0.44562  0.44562  0.00000  0.10877

   Total alpha = 20.00000, Total beta = 20.00000, Total charge =  0.00000

*** Psi4 exiting successfully. Buy a developer a beer!
