  ==> Input File <==

--------------------------------------------------------------------------
set {
	reference rhf
	basis 6-31G*
}

set_num_threads( 1 )
memory 2 gb

molecule MOL {
0 1

H	 -3.340940	 0.871246	 1.120525
C	 -3.339679	 0.411507	 0.124403
C	 -2.483135	 1.111790	 -0.899584
O	 -3.983048	 -0.565593	 -0.083209
C	 -1.046098	 1.337730	 -0.409552
H	 -2.505416	 0.534526	 -1.816633
H	 -2.948701	 2.075905	 -1.100546
C	 -0.252658	 0.041456	 -0.226725
H	 -0.535197	 1.975590	 -1.124673
H	 -1.066954	 1.890784	 0.528240
C	 1.180775	 0.282413	 0.250794
H	 -0.235010	 -0.501014	 -1.169732
H	 -0.762899	 -0.606537	 0.483414
C	 2.148627	 -0.814315	 -0.201312
H	 1.516199	 1.249228	 -0.115937
H	 1.192670	 0.346017	 1.338083
C	 3.580890	 -0.659131	 0.322722
H	 2.166869	 -0.852443	 -1.289387
H	 1.762857	 -1.776509	 0.128956
C	 4.324889	 0.564933	 -0.213704
H	 4.142010	 -1.551473	 0.056605
H	 3.564836	 -0.624694	 1.410140
H	 4.342616	 0.565491	 -1.300421
H	 3.866655	 1.493402	 0.110242
H	 5.353900	 0.572371	 0.132816

	symmetry c1
}
set optking {
	frozen_dihedral = ("
		6 3 5 8,
		6 3 2 4,
		3 5 8 12,
		8 11 14 18,
		20 17 14 18
	")
}

ee = energy('scf')
oeprop('DIPOLE', 'QUADRUPOLE', 'MULLIKEN_CHARGES')
f=open( 'psi4out.xyz', 'w' )
f.write( "25  " )
f.write( str(ee) + "\n" )
f.write( MOL.save_string_xyz() )
f.close()
--------------------------------------------------------------------------

    Molecular point group: c1

    Geometry (in Angstrom), charge = 0, multiplicity = 1:

       Center              X                  Y                   Z               Mass
    ------------   -----------------  -----------------  -----------------  -----------------
           H         -3.358872648125     0.684107714169     1.268785364305     1.007825032070
           C         -3.357611648125     0.224368714169     0.272663364305    12.000000000000
           C         -2.501067648125     0.924651714169    -0.751323635695    12.000000000000
           O         -4.000980648125    -0.752731285831     0.065051364305    15.994914619560
           C         -1.064030648125     1.150591714169    -0.261291635695    12.000000000000
           H         -2.523348648125     0.347387714169    -1.668372635695     1.007825032070
           H         -2.966633648125     1.888766714169    -0.952285635695     1.007825032070
           C         -0.270590648125    -0.145682285831    -0.078464635695    12.000000000000
           H         -0.553129648125     1.788451714169    -0.976412635695     1.007825032070
           H         -1.084886648125     1.703645714169     0.676500364305     1.007825032070
           C          1.162842351875     0.095274714169     0.399054364305    12.000000000000
           H         -0.252942648125    -0.688152285831    -1.021471635695     1.007825032070
           H         -0.780831648125    -0.793675285831     0.631674364305     1.007825032070
           C          2.130694351875    -1.001453285831    -0.053051635695    12.000000000000
           H          1.498266351875     1.062089714169     0.032323364305     1.007825032070
           H          1.174737351875     0.158878714169     1.486343364305     1.007825032070
           C          3.562957351875    -0.846269285831     0.470982364305    12.000000000000
           H          2.148936351875    -1.039581285831    -1.141126635695     1.007825032070
           H          1.744924351875    -1.963647285831     0.277216364305     1.007825032070
           C          4.306956351875     0.377794714169    -0.065443635695    12.000000000000
           H          4.124077351875    -1.738611285831     0.204865364305     1.007825032070
           H          3.546903351875    -0.811832285831     1.558400364305     1.007825032070
           H          4.324683351875     0.378352714169    -1.152160635695     1.007825032070
           H          3.848722351875     1.306263714169     0.258502364305     1.007825032070
           H          5.335967351875     0.385232714169     0.281076364305     1.007825032070

  Charge       = 0
  Multiplicity = 1
  Basis Set: 6-31G*
  Basis Set:

    Orbital Energies (a.u.)
    -----------------------

    Doubly Occupied:

       1A    -20.561922     2A    -11.326096     3A    -11.235478
       4A    -11.234489     5A    -11.223262     6A    -11.219196
       7A    -11.217992     8A    -11.217314     9A    -11.210897
      10A     -1.401915    11A     -1.104117    12A     -1.069690
      13A     -1.013365    14A     -0.942382    15A     -0.875442
      16A     -0.820997    17A     -0.788176    18A     -0.781682
      19A     -0.665464    20A     -0.657731    21A     -0.634248
      22A     -0.625177    23A     -0.604633    24A     -0.596133
      25A     -0.569805    26A     -0.556101    27A     -0.530546
      28A     -0.524498    29A     -0.513002    30A     -0.497168
      31A     -0.489779    32A     -0.477823    33A     -0.463634
      34A     -0.458545    35A     -0.440776    36A     -0.409535

  @DF-RHF Final Energy:  -387.11958387947448

   => Energetics <=

    Nuclear Repulsion Energy =            439.3534062835666418
    One-Electron Energy =               -1395.0279422044350213
    Two-Electron Energy =                 568.5549520413946993
    DFT Exchange-Correlation Energy =       0.0000000000000000
    Empirical Dispersion Energy =           0.0000000000000000
    PCM Polarization Energy =               0.0000000000000000
    EFP Energy =                            0.0000000000000000
    Total Energy =                       -387.1195838794736801

  Mulliken Charges: (a.u.)
   Center  Symbol    Alpha    Beta     Spin     Total
       1     H     0.43263  0.43263  0.00000  0.13475
       2     C     2.83090  2.83090  0.00000  0.33819
       3     C     3.20835  3.20835  0.00000 -0.41670
       4     O     4.23779  4.23779  0.00000 -0.47558
       5     C     3.16813  3.16813  0.00000 -0.33627
       6     H     0.39966  0.39966  0.00000  0.20069
       7     H     0.40677  0.40677  0.00000  0.18646
       8     C     3.15556  3.15556  0.00000 -0.31113
       9     H     0.41257  0.41257  0.00000  0.17487
      10     H     0.41937  0.41937  0.00000  0.16125
      11     C     3.15539  3.15539  0.00000 -0.31078
      12     H     0.41720  0.41720  0.00000  0.16560
      13     H     0.41681  0.41681  0.00000  0.16639
      14     C     3.15438  3.15438  0.00000 -0.30876
      15     H     0.42074  0.42074  0.00000  0.15851
      16     H     0.42143  0.42143  0.00000  0.15715
      17     C     3.15311  3.15311  0.00000 -0.30622
      18     H     0.42336  0.42336  0.00000  0.15327
      19     H     0.42012  0.42012  0.00000  0.15977
      20     C     3.24129  3.24129  0.00000 -0.48258
      21     H     0.42009  0.42009  0.00000  0.15982
      22     H     0.42298  0.42298  0.00000  0.15405
      23     H     0.42219  0.42219  0.00000  0.15561
      24     H     0.42061  0.42061  0.00000  0.15879
      25     H     0.41858  0.41858  0.00000  0.16283

   Total alpha = 36.00000, Total beta = 36.00000, Total charge =  0.00000
