  ==> Input File <==

--------------------------------------------------------------------------
set {
	reference rhf
	basis 6-31G*
}

set_num_threads( 4 )
memory 2 gb

molecule MOL {
0 1

H	 2.143544	 -1.153932	 2.396742
O	 2.540829	 -0.522605	 1.812542
C	 1.639065	 -0.029464	 0.940297
C	 2.089300	 0.912126	 0.020167
C	 0.315233	 -0.423904	 0.936207
H	 3.122795	 1.202292	 0.043638
C	 1.214344	 1.453983	 -0.898478
H	 -0.058728	 -1.147359	 1.633554
C	 -0.536158	 0.140425	 0.000000
H	 1.570422	 2.180311	 -1.605240
C	 -0.120869	 1.073910	 -0.922870
N	 -1.935604	 -0.280333	 0.000000
H	 -0.811541	 1.485291	 -1.629370
O	 -2.161694	 -1.452901	 0.000000
O	 -2.770341	 0.571417	 0.000000

	symmetry c1
}
set optking {
	frozen_dihedral = ("
		11 9 12 14
	")
}

ee = optimize('scf')
oeprop('DIPOLE', 'QUADRUPOLE', 'MULLIKEN_CHARGES')
f=open( 'psi4out.xyz', 'w' )
f.write( "15  " )
f.write( str(ee) + "\n" )
f.write( MOL.save_string_xyz() )
f.close()
--------------------------------------------------------------------------

    Molecular point group: c1
  Charge       = 0
  Multiplicity = 1
  Basis Set: 6-31G*
  Basis Set:
  @DF-RHF Final Energy:  -509.02219963849336
    Total Energy =                       -509.0221996384937029
    Molecular point group: c1
  Basis Set: 6-31G*
  Basis Set:
  Basis Set: 6-31G*
  Basis Set:
  @DF-RHF Final Energy:  -509.01676956986336
    Total Energy =                       -509.0167695698632997
  Basis Set: 6-31G*
  Basis Set:
  Basis Set: 6-31G*
  Basis Set:
  @DF-RHF Final Energy:  -509.02251081790780
    Total Energy =                       -509.0225108179083691
  Basis Set: 6-31G*
  Basis Set:
  Basis Set: 6-31G*
  Basis Set:
  @DF-RHF Final Energy:  -509.02279312798692
    Total Energy =                       -509.0227931279865743
  Basis Set: 6-31G*
  Basis Set:
  Basis Set: 6-31G*
  Basis Set:
  @DF-RHF Final Energy:  -509.02279623369662
    Total Energy =                       -509.0227962336969085
  Basis Set: 6-31G*
  Basis Set:
  Charge       = 0
  Multiplicity = 1
  Basis Set: 6-31G*
  Basis Set:

    Orbital Energies (a.u.)
    -----------------------

    Doubly Occupied:

       1A    -20.617216     2A    -20.608130     3A    -20.607793
       4A    -15.858944     5A    -11.332511     6A    -11.314188
       7A    -11.268428     8A    -11.268180     9A    -11.264055
      10A    -11.257631    11A     -1.639758    12A     -1.438124
      13A     -1.423720    14A     -1.202156    15A     -1.095872
      16A     -1.048080    17A     -0.966049    18A     -0.882442
      19A     -0.829534    20A     -0.789517    21A     -0.759864
      22A     -0.734646    23A     -0.720624    24A     -0.710560
      25A     -0.670359    26A     -0.635491    27A     -0.617354
      28A     -0.593708    29A     -0.562298    30A     -0.547588
      31A     -0.526434    32A     -0.490536    33A     -0.488878
      34A     -0.454114    35A     -0.375059    36A     -0.343364

  @DF-RHF Final Energy:  -509.02279697176130

   => Energetics <=

    Nuclear Repulsion Energy =            503.1563677875273015
    One-Electron Energy =               -1692.4719228848466628
    Two-Electron Energy =                 680.2927581255579526
    DFT Exchange-Correlation Energy =       0.0000000000000000
    Empirical Dispersion Energy =           0.0000000000000000
    PCM Polarization Energy =               0.0000000000000000
    EFP Energy =                            0.0000000000000000
    Total Energy =                       -509.0227969717612950
    Molecular point group: c1
  Basis Set: 6-31G*
  Basis Set:

  -Total Gradient:
     Atom            X                  Y                   Z
    ------   -----------------  -----------------  -----------------
       1       -0.000003475171     0.000010849941     0.000009011960
       2        0.000008120552    -0.000013085030    -0.000009965249
       3       -0.000011164292     0.000007004302    -0.000015894471
       4       -0.000003977681     0.000025193112     0.000030673723
       5       -0.000053478134     0.000111684564     0.000043408244
       6        0.000001305152     0.000002703854     0.000000471908
       7        0.000014249772    -0.000044458862    -0.000028210330
       8       -0.000008094260    -0.000005535258     0.000007458463
       9       -0.001810299054     0.005161950905     0.002230329154
      10       -0.000000510041     0.000001623052     0.000004626164
      11        0.001283573295    -0.003774238895    -0.003126701032
      12        0.000144786033    -0.001436106927     0.006796171058
      13       -0.000000521015    -0.000002130109     0.000000115735
      14        0.000395794182    -0.000145930691    -0.005943740169
      15        0.000043690661     0.000100476045     0.000002244844

  **** Optimization is complete! (in 6 steps) ****
    Final optimized geometry and variables:
    Molecular point group: c1

    Geometry (in Angstrom), charge = 0, multiplicity = 1:

    H            2.176503250083    -1.263455154299     2.170796118568
    O            2.568488472049    -0.623832819732     1.592159519866
    C            1.664767534559    -0.127895322003     0.725330325809
    C            2.114953265530     0.806555275833    -0.202600060738
    C            0.339083791003    -0.520268458122     0.725006431375
    H            3.151469580021     1.086181336352    -0.190130725456
    C            1.238316730320     1.348904588651    -1.118864359847
    H           -0.029445507110    -1.264781383832     1.405719868941
    C           -0.515121829591     0.070857737164    -0.187631825031
    H            1.597785298076     2.060295717022    -1.839062548606
    C           -0.103788270326     0.989222223389    -1.123436406164
    N           -1.902357958597    -0.378788909823    -0.215829840574
    H           -0.801714419168     1.412152649415    -1.818448107205
    O           -2.094450728698    -1.556484294973    -0.193212041110
    O           -2.747383045485     0.457858126078    -0.305982662149

  Mulliken Charges: (a.u.)
   Center  Symbol    Alpha    Beta     Spin     Total
       1     H     0.26737  0.26737  0.00000  0.46525
       2     O     4.37468  4.37468  0.00000 -0.74935
       3     C     2.79301  2.79301  0.00000  0.41398
       4     C     3.11235  3.11235  0.00000 -0.22471
       5     C     3.13440  3.13440  0.00000 -0.26880
       6     H     0.38161  0.38161  0.00000  0.23678
       7     C     3.09820  3.09820  0.00000 -0.19640
       8     H     0.37677  0.37677  0.00000  0.24646
       9     C     2.89601  2.89601  0.00000  0.20798
      10     H     0.38658  0.38658  0.00000  0.22685
      11     C     3.09931  3.09931  0.00000 -0.19863
      12     N     3.25654  3.25654  0.00000  0.48692
      13     H     0.37238  0.37238  0.00000  0.25524
      14     O     4.22680  4.22680  0.00000 -0.45361
      15     O     4.22399  4.22399  0.00000 -0.44797

   Total alpha = 36.00000, Total beta = 36.00000, Total charge = -0.00000
