  ==> Input File <==

--------------------------------------------------------------------------
set {
	reference rhf
	basis 6-31G*
}

set_num_threads( 4 )
memory 2 gb

molecule MOL {
0 1

H	 3.089270	 -1.380733	 0.000000
O	 2.178328	 -1.639175	 0.000000
C	 1.368216	 -0.558384	 0.000000
C	 0.600909	 -0.203500	 1.102089
C	 1.319146	 0.206429	 -1.152425
H	 0.640559	 -0.800055	 1.997961
C	 -0.214185	 0.914846	 1.051157
H	 1.911318	 -0.066579	 -2.004408
C	 0.500514	 1.324498	 -1.195123
H	 -0.803381	 1.179522	 1.910327
C	 -0.269410	 1.684951	 -0.096459
C	 0.443050	 2.150595	 -2.430085
H	 -0.901839	 2.554028	 -0.138211
O	 1.061770	 1.926335	 -3.420760
H	 -0.227886	 3.013288	 -2.376660

	symmetry c1
}
set optking {
	frozen_dihedral = ("
		4 3 2 1
	")
}

ee = optimize('scf')
oeprop('DIPOLE', 'QUADRUPOLE', 'MULLIKEN_CHARGES')
f=open( 'psi4out.xyz', 'w' )
f.write( "15  " )
f.write( str(ee) + "\n" )
f.write( MOL.save_string_xyz() )
f.close()
--------------------------------------------------------------------------

    Molecular point group: c1
  Charge       = 0
  Multiplicity = 1
  Basis Set: 6-31G*
  Basis Set:
  @DF-RHF Final Energy:  -418.28210240303196
    Total Energy =                       -418.2821024030315584
    Molecular point group: c1
  Basis Set: 6-31G*
  Basis Set:
  Basis Set: 6-31G*
  Basis Set:
  @DF-RHF Final Energy:  -418.28325345615707
    Total Energy =                       -418.2832534561575812
  Basis Set: 6-31G*
  Basis Set:
  Basis Set: 6-31G*
  Basis Set:
  @DF-RHF Final Energy:  -418.28142066654755
    Total Energy =                       -418.2814206665474330
  Basis Set: 6-31G*
  Basis Set:
  Basis Set: 6-31G*
  Basis Set:
  @DF-RHF Final Energy:  -418.28336116167816
    Total Energy =                       -418.2833611616786129
  Basis Set: 6-31G*
  Basis Set:
  Basis Set: 6-31G*
  Basis Set:
  @DF-RHF Final Energy:  -418.28337424663562
    Total Energy =                       -418.2833742466357307
  Basis Set: 6-31G*
  Basis Set:
  Charge       = 0
  Multiplicity = 1
  Basis Set: 6-31G*
  Basis Set:

    Orbital Energies (a.u.)
    -----------------------

    Doubly Occupied:

       1A    -20.588413     2A    -20.565726     3A    -11.334497
       4A    -11.304143     5A    -11.253342     6A    -11.251781
       7A    -11.250580     8A    -11.248022     9A    -11.245179
      10A     -1.406555    11A     -1.404620    12A     -1.170298
      13A     -1.049086    14A     -1.026153    15A     -0.898109
      16A     -0.847499    17A     -0.798729    18A     -0.745202
      19A     -0.698602    20A     -0.675372    21A     -0.655759
      22A     -0.632220    23A     -0.618433    24A     -0.606346
      25A     -0.556945    26A     -0.545838    27A     -0.531047
      28A     -0.501012    29A     -0.486070    30A     -0.424694
      31A     -0.352218    32A     -0.340579

  @DF-RHF Final Energy:  -418.28337620483040

   => Energetics <=

    Nuclear Repulsion Energy =            402.6729815555210621
    One-Electron Energy =               -1367.8865749504220730
    Two-Electron Energy =                 546.9302171900710619
    DFT Exchange-Correlation Energy =       0.0000000000000000
    Empirical Dispersion Energy =           0.0000000000000000
    PCM Polarization Energy =               0.0000000000000000
    EFP Energy =                            0.0000000000000000
    Total Energy =                       -418.2833762048298922
    Molecular point group: c1
  Basis Set: 6-31G*
  Basis Set:

  -Total Gradient:
     Atom            X                  Y                   Z
    ------   -----------------  -----------------  -----------------
       1       -0.000038122042     0.000056998773     0.001694326869
       2        0.000598058970     0.000198656688    -0.001930460000
       3       -0.001627568291    -0.000899144158    -0.000016567141
       4        0.001056683356     0.000541015277     0.000367757246
       5        0.000021993495     0.000018260218    -0.000086644402
       6        0.000012626581    -0.000020767390    -0.000004948895
       7       -0.000046643009     0.000207711585    -0.000085942116
       8       -0.000020907650     0.000016184465     0.000012098211
       9        0.000113171950    -0.000056375150    -0.000064717515
      10        0.000012998192    -0.000016316134    -0.000003798078
      11       -0.000072161302    -0.000092504244     0.000175974452
      12       -0.000013731713     0.000034266530     0.000020365166
      13        0.000004775031     0.000009695408    -0.000044665507
      14       -0.000002581930     0.000004065701    -0.000015968539
      15        0.000001408359    -0.000001747569    -0.000016809742

  **** Optimization is complete! (in 6 steps) ****
    Final optimized geometry and variables:
    Molecular point group: c1

    Geometry (in Angstrom), charge = 0, multiplicity = 1:

    H            2.254248339024    -2.049231530871     0.788665178308
    O            1.336890842168    -2.287115944219     0.766771794428
    C            0.555041714019    -1.167408042080     0.705824261490
    C           -0.206293152457    -0.819747789412     1.814332711816
    C            0.496196691650    -0.406321661647    -0.443587046443
    H           -0.145265538519    -1.431212402022     2.695621876164
    C           -1.032384848470     0.288888718634     1.768778054327
    H            1.073810357186    -0.676356107397    -1.307625579834
    C           -0.326914859913     0.714362677474    -0.483896953826
    H           -1.622678568743     0.551191379028     2.627713542991
    C           -1.092736437980     1.060789565246     0.619035558677
    C           -0.391077281537     1.542068699030    -1.714695891844
    H           -1.731843372281     1.925699031141     0.581350037433
    O            0.240932999834     1.332449949644    -2.701084274243
    H           -1.077634450592     2.392548276355    -1.665163933335

  Mulliken Charges: (a.u.)
   Center  Symbol    Alpha    Beta     Spin     Total
       1     H     0.26935  0.26935  0.00000  0.46130
       2     O     4.38624  4.38624  0.00000 -0.77248
       3     C     2.81693  2.81693  0.00000  0.36613
       4     C     3.10732  3.10732  0.00000 -0.21463
       5     C     3.11308  3.11308  0.00000 -0.22617
       6     H     0.38698  0.38698  0.00000  0.22605
       7     C     3.10134  3.10134  0.00000 -0.20267
       8     H     0.37429  0.37429  0.00000  0.25142
       9     C     3.05117  3.05117  0.00000 -0.10235
      10     H     0.39256  0.39256  0.00000  0.21488
      11     C     3.10798  3.10798  0.00000 -0.21596
      12     C     2.83193  2.83193  0.00000  0.33614
      13     H     0.39208  0.39208  0.00000  0.21584
      14     O     4.24726  4.24726  0.00000 -0.49452
      15     H     0.42149  0.42149  0.00000  0.15701

   Total alpha = 32.00000, Total beta = 32.00000, Total charge = -0.00000
