                              Psi4 1.0.54 Driver

  ==> Input File <==

--------------------------------------------------------------------------
set {
	reference rhf
	basis cc-pvtz
}

set_num_threads( 4 )
memory 2 gb

molecule MOL {
0 1

H	 1.166964	 -1.062386	 0.758429
O	 1.324748	 -0.612467	 -0.052206
C	 0.706474	 0.636793	 -0.025501
C	 1.349043	 1.633465	 0.897202
H	 -0.316064	 0.466240	 0.290142
H	 0.654792	 1.065361	 -1.024679
C	 2.341732	 1.388131	 1.723452
H	 0.929759	 2.625000	 0.849181
H	 2.774343	 0.409900	 1.812240
H	 2.745454	 2.160706	 2.349708

	symmetry c1
}
set optking {
	frozen_dihedral = ("
		5 3 2 1
	")
}

ee,wfn = optimize('scf', return_wfn=True)
oeprop( wfn, 'DIPOLE', 'QUADRUPOLE', 'MULLIKEN_CHARGES')
f=open( 'psi4out.xyz', 'w' )
f.write( "10  " )
f.write( str(ee) + "\n" )
f.write( MOL.save_string_xyz() )
f.close()
--------------------------------------------------------------------------

    Molecular point group: c1
  Charge       = 0
  Multiplicity = 1
  Basis Set: CC-PVTZ
  Basis Set:
  @DF-RHF Final Energy:  -191.99660945719813
    Total Energy =                       -191.9966094571981898
    Molecular point group: c1
  Basis Set: CC-PVTZ
  Basis Set:
  Basis Set: CC-PVTZ
  Basis Set:
  @DF-RHF Final Energy:  -191.99240610925870
    Total Energy =                       -191.9924061092586385
  Basis Set: CC-PVTZ
  Basis Set:
  Basis Set: CC-PVTZ
  Basis Set:
  @DF-RHF Final Energy:  -191.99846055900895
    Total Energy =                       -191.9984605590089757
  Basis Set: CC-PVTZ
  Basis Set:
  Basis Set: CC-PVTZ
  Basis Set:
  @DF-RHF Final Energy:  -191.99872059505560
    Total Energy =                       -191.9987205950557438
  Basis Set: CC-PVTZ
  Basis Set:
  Basis Set: CC-PVTZ
  Basis Set:
  @DF-RHF Final Energy:  -191.99873949865554
    Total Energy =                       -191.9987394986555387
  Basis Set: CC-PVTZ
  Basis Set:
  Basis Set: CC-PVTZ
  Basis Set:
  @DF-RHF Final Energy:  -191.99874127967951
    Total Energy =                       -191.9987412796794786
  Basis Set: CC-PVTZ
  Basis Set:
  Charge       = 0
  Multiplicity = 1
  Basis Set: CC-PVTZ
  Basis Set:

    Orbital Energies (a.u.)
    -----------------------

    Doubly Occupied:

       1A    -20.554630     2A    -11.278336     3A    -11.228712
       4A    -11.214871     5A     -1.374843     6A     -1.061207
       7A     -0.931420     8A     -0.769969     9A     -0.694937
      10A     -0.663855    11A     -0.619695    12A     -0.574676
      13A     -0.535908    14A     -0.500029    15A     -0.451149
      16A     -0.367766

  @DF-RHF Final Energy:  -191.99874136339562

   => Energetics <=

    Nuclear Repulsion Energy =            119.5000180894045059
    One-Electron Energy =                -497.3535105060731212
    Two-Electron Energy =                 185.8547510532729063
    DFT Exchange-Correlation Energy =       0.0000000000000000
    Empirical Dispersion Energy =           0.0000000000000000
    PCM Polarization Energy =               0.0000000000000000
    EFP Energy =                            0.0000000000000000
    Total Energy =                       -191.9987413633956805
    Molecular point group: c1
  Basis Set: CC-PVTZ
  Basis Set:

  -Total Gradient:
     Atom            X                  Y                   Z
    ------   -----------------  -----------------  -----------------
       1       -0.000575277543    -0.000239078483    -0.000572684200
       2        0.000722423867     0.000249583229     0.000904349551
       3       -0.000156716094     0.000031744424    -0.001050431843
       4        0.000017763777     0.000022402184    -0.000031802152
       5       -0.000010607072    -0.000064941528     0.000727304865
       6        0.000006137138     0.000009280773     0.000015007107
       7        0.000018540894     0.000019394900    -0.000016774716
       8       -0.000001948185    -0.000010734483     0.000009366235
       9       -0.000008093644    -0.000006268957     0.000008621457
      10       -0.000012223137    -0.000011382062     0.000007043697

  **** Optimization is complete! (in 7 steps) ****
    Final optimized geometry and variables:
    Molecular point group: c1

    Geometry (in Angstrom), charge = 0, multiplicity = 1:

    H           -0.316856226110    -1.763951640237    -0.249777042532
    O            0.056039963632    -1.165875593192    -0.871830905756
    C           -0.563571480315     0.078952521336    -0.761901210782
    C           -0.174946238923     0.860954391027     0.461381708532
    H           -1.646827853031    -0.023609944606    -0.780095392361
    H           -0.289386634864     0.640956346369    -1.646825558832
    C            0.725265110423     0.500586961013     1.348666318070
    H           -0.701907346395     1.792888479087     0.585067113398
    H            1.279554718633    -0.412842023707     1.249142856775
    H            0.943824994499     1.118136731922     2.198972598669

  Mulliken Charges: (a.u.)
   Center  Symbol    Alpha    Beta     Spin     Total
       1     H     0.39118  0.39118  0.00000  0.21765
       2     O     4.19897  4.19897  0.00000 -0.39794
       3     C     2.95138  2.95138  0.00000  0.09724
       4     C     3.08462  3.08462  0.00000 -0.16925
       5     H     0.46836  0.46836  0.00000  0.06328
       6     H     0.45339  0.45339  0.00000  0.09322
       7     C     3.17709  3.17709  0.00000 -0.35418
       8     H     0.42352  0.42352  0.00000  0.15296
       9     H     0.42329  0.42329  0.00000  0.15342
      10     H     0.42821  0.42821  0.00000  0.14359

   Total alpha = 16.00000, Total beta = 16.00000, Total charge = -0.00000

*** Psi4 exiting successfully. Buy a developer a beer!
