  ==> Input File <==

--------------------------------------------------------------------------
set {
	reference rhf
	basis 6-31G*
}

set_num_threads( 1 )
memory 2 gb

molecule MOL {
0 1

O	 -2.439739	 -0.935931	 -0.423848
C	 -1.921153	 0.064240	 -0.045697
C	 -2.624470	 1.379923	 0.150949
O	 -0.632575	 0.154573	 0.251549
H	 -2.168117	 2.136577	 -0.476876
H	 -3.669540	 1.273223	 -0.098610
H	 -2.519365	 1.700893	 1.180846
C	 0.160891	 -1.019931	 0.106212
C	 1.589627	 -0.672828	 0.480843
H	 0.089836	 -1.367806	 -0.916050
H	 -0.238459	 -1.792301	 0.749618
C	 1.718126	 0.586725	 1.339570
H	 2.147507	 -0.542527	 -0.444211
H	 2.033053	 -1.520306	 0.996996
C	 3.170754	 0.921450	 1.675474
H	 1.265667	 1.425831	 0.814896
H	 1.153825	 0.454807	 2.256915
H	 3.235115	 1.817063	 2.285202
H	 3.754210	 1.091794	 0.775008
H	 3.642101	 0.112302	 2.226102

	symmetry c1
}
set optking {
	frozen_dihedral = ("
		16 12 9 8,
		2 4 8 10,
		1 2 4 8
	")
}

ee = energy('scf')
oeprop('DIPOLE', 'QUADRUPOLE', 'MULLIKEN_CHARGES')
f=open( 'psi4out.xyz', 'w' )
f.write( "20  " )
f.write( str(ee) + "\n" )
f.write( MOL.save_string_xyz() )
f.close()
--------------------------------------------------------------------------

    Molecular point group: c1

    Geometry (in Angstrom), charge = 0, multiplicity = 1:

       Center              X                  Y                   Z               Mass
    ------------   -----------------  -----------------  -----------------  -----------------
           O         -2.308609622604    -1.000059038521    -0.864523908142    15.994914619560
           C         -1.790023622604     0.000111961479    -0.486372908142    12.000000000000
           C         -2.493340622604     1.315794961479    -0.289726908142    12.000000000000
           O         -0.501445622604     0.090444961479    -0.189126908142    15.994914619560
           H         -2.036987622604     2.072448961479    -0.917551908142     1.007825032070
           H         -3.538410622604     1.209094961479    -0.539285908142     1.007825032070
           H         -2.388235622604     1.636764961479     0.740170091858     1.007825032070
           C          0.292020377396    -1.084059038521    -0.334463908142    12.000000000000
           C          1.720756377396    -0.736956038521     0.040167091858    12.000000000000
           H          0.220965377396    -1.431934038521    -1.356725908142     1.007825032070
           H         -0.107329622604    -1.856429038521     0.308942091858     1.007825032070
           C          1.849255377396     0.522596961479     0.898894091858    12.000000000000
           H          2.278636377396    -0.606655038521    -0.884886908142     1.007825032070
           H          2.164182377396    -1.584434038521     0.556320091858     1.007825032070
           C          3.301883377396     0.857321961479     1.234798091858    12.000000000000
           H          1.396796377396     1.361702961479     0.374220091858     1.007825032070
           H          1.284954377396     0.390678961479     1.816239091858     1.007825032070
           H          3.366244377396     1.752934961479     1.844526091858     1.007825032070
           H          3.885339377396     1.027665961479     0.334332091858     1.007825032070
           H          3.773230377396     0.048173961479     1.785426091858     1.007825032070

  Charge       = 0
  Multiplicity = 1
  Basis Set: 6-31G*
  Basis Set:

    Orbital Energies (a.u.)
    -----------------------

    Doubly Occupied:

       1A    -20.601478     2A    -20.544249     3A    -11.374541
       4A    -11.281762     5A    -11.233847     6A    -11.223874
       7A    -11.217683     8A    -11.210878     9A     -1.468419
      10A     -1.362714    11A     -1.084707    12A     -1.027134
      13A     -0.981161    14A     -0.879019    15A     -0.819151
      16A     -0.760387    17A     -0.691055    18A     -0.689548
      19A     -0.667652    20A     -0.632935    21A     -0.595357
      22A     -0.592832    23A     -0.573622    24A     -0.547867
      25A     -0.544400    26A     -0.534305    27A     -0.507280
      28A     -0.482091    29A     -0.475884    30A     -0.467696
      31A     -0.444655    32A     -0.438484

  @DF-RHF Final Energy:  -383.93774270567218

   => Energetics <=

    Nuclear Repulsion Energy =            388.8455948827648285
    One-Electron Energy =               -1293.6534031538571980
    Two-Electron Energy =                 520.8700655654188267
    DFT Exchange-Correlation Energy =       0.0000000000000000
    Empirical Dispersion Energy =           0.0000000000000000
    PCM Polarization Energy =               0.0000000000000000
    EFP Energy =                            0.0000000000000000
    Total Energy =                       -383.9377427056735996

  Mulliken Charges: (a.u.)
   Center  Symbol    Alpha    Beta     Spin     Total
       1     O     4.28350  4.28350  0.00000 -0.56700
       2     C     2.61809  2.61809  0.00000  0.76381
       3     C     3.28182  3.28182  0.00000 -0.56363
       4     O     4.31111  4.31111  0.00000 -0.62221
       5     H     0.40083  0.40083  0.00000  0.19833
       6     H     0.39670  0.39670  0.00000  0.20661
       7     H     0.40065  0.40065  0.00000  0.19870
       8     C     2.99695  2.99695  0.00000  0.00611
       9     C     3.17677  3.17677  0.00000 -0.35355
      10     H     0.40742  0.40742  0.00000  0.18517
      11     H     0.41022  0.41022  0.00000  0.17955
      12     C     3.14720  3.14720  0.00000 -0.29441
      13     H     0.41744  0.41744  0.00000  0.16512
      14     H     0.41586  0.41586  0.00000  0.16828
      15     C     3.24060  3.24060  0.00000 -0.48119
      16     H     0.41115  0.41115  0.00000  0.17770
      17     H     0.42085  0.42085  0.00000  0.15829
      18     H     0.41830  0.41830  0.00000  0.16341
      19     H     0.42177  0.42177  0.00000  0.15646
      20     H     0.42278  0.42278  0.00000  0.15445

   Total alpha = 32.00000, Total beta = 32.00000, Total charge = -0.00000
