  ==> Input File <==

--------------------------------------------------------------------------
set {
	reference rhf
	basis 6-31G*
}

set_num_threads( 4 )
memory 2 gb

molecule MOL {
0 1

H	 -3.319232	 1.239598	 0.869493
C	 -3.321105	 0.623800	 -0.038478
C	 -2.403173	 1.101848	 -1.134600
O	 -4.013670	 -0.339328	 -0.105460
C	 -0.967277	 1.329868	 -0.642193
H	 -2.436987	 0.384413	 -1.946298
H	 -2.808857	 2.043023	 -1.503740
C	 -0.252658	 0.041456	 -0.226725
H	 -0.404944	 1.814856	 -1.434565
H	 -0.978360	 2.029083	 0.192512
C	 1.180775	 0.282413	 0.250794
H	 -0.244059	 -0.648017	 -1.068390
H	 -0.814790	 -0.454363	 0.562394
C	 2.148627	 -0.814315	 -0.201312
H	 1.516199	 1.249228	 -0.115937
H	 1.192670	 0.346017	 1.338083
C	 3.580890	 -0.659131	 0.322722
H	 2.166869	 -0.852443	 -1.289387
H	 1.762857	 -1.776509	 0.128956
C	 4.324889	 0.564933	 -0.213704
H	 4.142010	 -1.551473	 0.056605
H	 3.564836	 -0.624694	 1.410140
H	 4.342616	 0.565491	 -1.300421
H	 3.866655	 1.493402	 0.110242
H	 5.353900	 0.572371	 0.132816

	symmetry c1
}
set optking {
	frozen_dihedral = ("
		12 8 11 14
	")
}

ee = optimize('scf')
oeprop('DIPOLE', 'QUADRUPOLE', 'MULLIKEN_CHARGES')
f=open( 'psi4out.xyz', 'w' )
f.write( "25  " )
f.write( str(ee) + "\n" )
f.write( MOL.save_string_xyz() )
f.close()
--------------------------------------------------------------------------

    Molecular point group: c1
  Charge       = 0
  Multiplicity = 1
  Basis Set: 6-31G*
  Basis Set:
  @DF-RHF Final Energy:  -387.11814359034850
    Total Energy =                       -387.1181435903491774
    Molecular point group: c1
  Basis Set: 6-31G*
  Basis Set:
  Basis Set: 6-31G*
  Basis Set:
  @DF-RHF Final Energy:  -387.11815016128605
    Total Energy =                       -387.1181501612857119
  Basis Set: 6-31G*
  Basis Set:
  Basis Set: 6-31G*
  Basis Set:
  @DF-RHF Final Energy:  -387.11831482711739
    Total Energy =                       -387.1183148271176151
  Basis Set: 6-31G*
  Basis Set:
  Basis Set: 6-31G*
  Basis Set:
  @DF-RHF Final Energy:  -387.11841205990953
    Total Energy =                       -387.1184120599103835
  Basis Set: 6-31G*
  Basis Set:
  Basis Set: 6-31G*
  Basis Set:
  @DF-RHF Final Energy:  -387.11843033881200
    Total Energy =                       -387.1184303388121180
  Basis Set: 6-31G*
  Basis Set:
  Basis Set: 6-31G*
  Basis Set:
  @DF-RHF Final Energy:  -387.11843762813692
    Total Energy =                       -387.1184376281369168
  Basis Set: 6-31G*
  Basis Set:
  Basis Set: 6-31G*
  Basis Set:
  @DF-RHF Final Energy:  -387.11844149978816
    Total Energy =                       -387.1184414997883323
  Basis Set: 6-31G*
  Basis Set:
  Charge       = 0
  Multiplicity = 1
  Basis Set: 6-31G*
  Basis Set:

    Orbital Energies (a.u.)
    -----------------------

    Doubly Occupied:

       1A    -20.562059     2A    -11.326257     3A    -11.235734
       4A    -11.234691     5A    -11.223651     6A    -11.219648
       7A    -11.218121     8A    -11.217467     9A    -11.211032
      10A     -1.402017    11A     -1.103013    12A     -1.069846
      13A     -1.012279    14A     -0.942576    15A     -0.875814
      16A     -0.821891    17A     -0.788398    18A     -0.781630
      19A     -0.665403    20A     -0.655014    21A     -0.634627
      22A     -0.624377    23A     -0.605908    24A     -0.595724
      25A     -0.567954    26A     -0.559105    27A     -0.528247
      28A     -0.524495    29A     -0.515276    30A     -0.497429
      31A     -0.489306    32A     -0.477674    33A     -0.462423
      34A     -0.457752    35A     -0.441183    36A     -0.409658

  @DF-RHF Final Energy:  -387.11844240468082

   => Energetics <=

    Nuclear Repulsion Energy =            439.0012803713711378
    One-Electron Energy =               -1394.3240886510345717
    Two-Electron Energy =                 568.2043658749827273
    DFT Exchange-Correlation Energy =       0.0000000000000000
    Empirical Dispersion Energy =           0.0000000000000000
    PCM Polarization Energy =               0.0000000000000000
    EFP Energy =                            0.0000000000000000
    Total Energy =                       -387.1184424046806498
    Molecular point group: c1
  Basis Set: 6-31G*
  Basis Set:

  -Total Gradient:
     Atom            X                  Y                   Z
    ------   -----------------  -----------------  -----------------
       1       -0.000002335131     0.000003863494    -0.000000773411
       2        0.000005975927    -0.000004122134     0.000011744038
       3       -0.000005158152     0.000004651879    -0.000016147261
       4        0.000005096350     0.000004598208    -0.000004680176
       5       -0.000001658542    -0.000007857758     0.000011286257
       6        0.000000297307    -0.000000173821    -0.000002961033
       7       -0.000000017155    -0.000002363683     0.000001701261
       8        0.000637899426     0.004327519411    -0.004128281427
       9       -0.000001654180    -0.000002939368     0.000001479094
      10       -0.000000698975     0.000003435325     0.000001805646
      11       -0.000868599748    -0.002750402741     0.003998953415
      12       -0.000337650766    -0.003040019639     0.002564167444
      13        0.000000462639     0.000002743711     0.000001017875
      14        0.000565710521     0.001456042169    -0.002440013845
      15       -0.000005713190    -0.000007266842    -0.000003814825
      16       -0.000000403657    -0.000000829030     0.000003883416
      17       -0.000001387035     0.000011264668     0.000001889563
      18       -0.000003611007     0.000010973812    -0.000000829372
      19        0.000000815483    -0.000002249495    -0.000004232393
      20        0.000009251805    -0.000005139773     0.000001474493
      21       -0.000000542965    -0.000004725259     0.000005479257
      22       -0.000003124678     0.000009191851    -0.000000810413
      23       -0.000003429562     0.000001953116    -0.000001491993
      24        0.000007897994    -0.000005504609     0.000002165320
      25        0.000002577311    -0.000002643487    -0.000003010932

  **** Optimization is complete! (in 8 steps) ****
    Final optimized geometry and variables:
    Molecular point group: c1

    Geometry (in Angstrom), charge = 0, multiplicity = 1:

    H           -3.324455300460     1.026227084266     1.121376436605
    C           -3.351341238219     0.392854096634     0.225877991230
    C           -2.470929047073     0.854346966959    -0.907621805126
    O           -4.045111685629    -0.571353196239     0.197313880840
    C           -1.020571396921     1.094445562119    -0.466925830198
    H           -2.528660711662     0.122644942272    -1.705264509217
    H           -2.891514513849     1.787733811799    -1.279642641400
    C           -0.283678284267    -0.184755470207    -0.066570690764
    H           -0.486923818871     1.576548751020    -1.280802078994
    H           -1.006162382170     1.799363690641     0.363007691002
    C            1.158381395221     0.060921721288     0.415179586474
    H           -0.283060770117    -0.886419187624    -0.897491660126
    H           -0.837944256708    -0.692635538842     0.720431455107
    C            2.127620568435    -1.044177564810    -0.014892372123
    H            1.508615384503     1.010464495773     0.018229429253
    H            1.173034795087     0.164563714976     1.497530093188
    C            3.547005364056    -0.907252696925     0.546550913206
    H            2.170976292401    -1.071532938922    -1.102379020797
    H            1.724585699227    -2.006097227430     0.296354413631
    C            4.310635873501     0.322989388885     0.052620614092
    H            4.109740961618    -1.797874692497     0.278136259013
    H            3.503417587843    -0.892995959610     1.633691314208
    H            4.355850289710     0.344526778247    -1.033040509780
    H            3.849591901663     1.247873613347     0.383180355642
    H            5.330568600684     0.317847025775     0.424442960023

  Mulliken Charges: (a.u.)
   Center  Symbol    Alpha    Beta     Spin     Total
       1     H     0.43256  0.43256  0.00000  0.13489
       2     C     2.83083  2.83083  0.00000  0.33834
       3     C     3.20870  3.20870  0.00000 -0.41740
       4     O     4.23780  4.23780  0.00000 -0.47559
       5     C     3.16802  3.16802  0.00000 -0.33604
       6     H     0.39957  0.39957  0.00000  0.20085
       7     H     0.40655  0.40655  0.00000  0.18690
       8     C     3.15734  3.15734  0.00000 -0.31469
       9     H     0.41256  0.41256  0.00000  0.17488
      10     H     0.41910  0.41910  0.00000  0.16180
      11     C     3.15618  3.15618  0.00000 -0.31237
      12     H     0.41610  0.41610  0.00000  0.16779
      13     H     0.41677  0.41677  0.00000  0.16645
      14     C     3.15476  3.15476  0.00000 -0.30953
      15     H     0.42045  0.42045  0.00000  0.15910
      16     H     0.42022  0.42022  0.00000  0.15956
      17     C     3.15318  3.15318  0.00000 -0.30637
      18     H     0.42344  0.42344  0.00000  0.15312
      19     H     0.42021  0.42021  0.00000  0.15958
      20     C     3.24156  3.24156  0.00000 -0.48311
      21     H     0.42005  0.42005  0.00000  0.15990
      22     H     0.42280  0.42280  0.00000  0.15440
      23     H     0.42226  0.42226  0.00000  0.15548
      24     H     0.42048  0.42048  0.00000  0.15905
      25     H     0.41850  0.41850  0.00000  0.16300

   Total alpha = 36.00000, Total beta = 36.00000, Total charge = -0.00000
