                              Psi4 1.0.54 Driver

  ==> Input File <==

--------------------------------------------------------------------------
set {
	reference rhf
	basis cc-pvtz
}

set_num_threads( 4 )
memory 2 gb

molecule MOL {
0 1

O	 1.615353	 1.697381	 -0.497402
C	 1.030724	 1.287636	 -1.441519
C	 -0.275961	 0.537407	 -1.404506
O	 1.461909	 1.440565	 -2.682933
C	 -0.824290	 0.329213	 -0.000115
H	 -0.978421	 1.086001	 -2.023412
H	 -0.116201	 -0.410130	 -1.908582
C	 -2.146151	 -0.432825	 -0.000068
H	 -0.954755	 1.292897	 0.479016
H	 -0.091406	 -0.204757	 0.594062
C	 -3.366283	 0.483552	 0.000557
H	 -2.189286	 -1.084450	 -0.869996
H	 -2.188867	 -1.085083	 0.869399
C	 -4.687436	 -0.278003	 0.000108
H	 -3.325150	 1.134819	 -0.867957
H	 -3.325087	 1.133730	 0.869885
H	 -4.773783	 -0.912098	 -0.876078
H	 -5.531922	 0.401392	 0.000363
H	 -4.773901	 -0.912898	 0.875703
C	 2.682053	 2.129856	 -2.865829
H	 2.612507	 3.136700	 -2.481589
H	 2.856760	 2.148608	 -3.929301
H	 3.488958	 1.616324	 -2.364427

	symmetry c1
}
set optking {
	frozen_dihedral = ("
		9 5 8 12
	")
}

ee,wfn = optimize('scf', return_wfn=True)
oeprop( wfn, 'DIPOLE', 'QUADRUPOLE', 'MULLIKEN_CHARGES')
f=open( 'psi4out.xyz', 'w' )
f.write( "23  " )
f.write( str(ee) + "\n" )
f.write( MOL.save_string_xyz() )
f.close()
--------------------------------------------------------------------------

    Molecular point group: c1
  Charge       = 0
  Multiplicity = 1
  Basis Set: CC-PVTZ
  Basis Set:
  @DF-RHF Final Energy:  -423.12718954039246
    Total Energy =                       -423.1271895403923509
    Molecular point group: c1
  Basis Set: CC-PVTZ
  Basis Set:
  Basis Set: CC-PVTZ
  Basis Set:
  @DF-RHF Final Energy:  -423.12742823013781
    Total Energy =                       -423.1274282301379799
  Basis Set: CC-PVTZ
  Basis Set:
  Basis Set: CC-PVTZ
  Basis Set:
  @DF-RHF Final Energy:  -423.12716709760934
    Total Energy =                       -423.1271670976093446
  Basis Set: CC-PVTZ
  Basis Set:
  Basis Set: CC-PVTZ
  Basis Set:
  @DF-RHF Final Energy:  -423.12749135609880
    Total Energy =                       -423.1274913560988580
  Basis Set: CC-PVTZ
  Basis Set:
  Basis Set: CC-PVTZ
  Basis Set:
  @DF-RHF Final Energy:  -423.12749760449236
    Total Energy =                       -423.1274976044924188
  Basis Set: CC-PVTZ
  Basis Set:
  Charge       = 0
  Multiplicity = 1
  Basis Set: CC-PVTZ
  Basis Set:

    Orbital Energies (a.u.)
    -----------------------

    Doubly Occupied:

       1A    -20.596230     2A    -20.534113     3A    -11.364381
       4A    -11.278436     5A    -11.233778     6A    -11.217266
       7A    -11.216334     8A    -11.215614     9A    -11.208599
      10A     -1.472114    11A     -1.365690    12A     -1.094179
      13A     -1.043704    14A     -0.987624    15A     -0.932617
      16A     -0.847818    17A     -0.794499    18A     -0.768453
      19A     -0.703250    20A     -0.685521    21A     -0.676379
      22A     -0.633552    23A     -0.626894    24A     -0.600106
      25A     -0.575301    26A     -0.559881    27A     -0.556094
      28A     -0.529580    29A     -0.522084    30A     -0.501869
      31A     -0.495089    32A     -0.470463    33A     -0.466050
      34A     -0.461909    35A     -0.453506    36A     -0.439339

  @DF-RHF Final Energy:  -423.12749769216197

   => Energetics <=

    Nuclear Repulsion Energy =            456.8867981488377268
    One-Electron Energy =               -1481.7719512336921071
    Two-Electron Energy =                 601.7576553926916176
    DFT Exchange-Correlation Energy =       0.0000000000000000
    Empirical Dispersion Energy =           0.0000000000000000
    PCM Polarization Energy =               0.0000000000000000
    EFP Energy =                            0.0000000000000000
    Total Energy =                       -423.1274976921628195
    Molecular point group: c1
  Basis Set: CC-PVTZ
  Basis Set:

  -Total Gradient:
     Atom            X                  Y                   Z
    ------   -----------------  -----------------  -----------------
       1        0.000019741435     0.000009204149    -0.000026677799
       2       -0.000019585955    -0.000014077544    -0.000004506912
       3       -0.000015782010     0.000009091538     0.000014600563
       4        0.000012485733     0.000018620458     0.000028312061
       5        0.000688319851    -0.001109029475     0.003103125382
       6        0.000000319748    -0.000008824276    -0.000004719406
       7       -0.000000077682    -0.000003056701    -0.000002537870
       8        0.001476401871    -0.002654292152     0.001374701319
       9       -0.000809787357     0.001343209052    -0.002799205189
      10       -0.000002947809     0.000004227333    -0.000011478919
      11        0.000008081304    -0.000016420342    -0.000036814206
      12       -0.001346827369     0.002397412957    -0.001634769096
      13       -0.000001831723     0.000006022054    -0.000009731267
      14       -0.000012667647     0.000007626047     0.000021247985
      15       -0.000000455551     0.000007719562    -0.000005906975
      16        0.000001820479     0.000008273780    -0.000003105710
      17        0.000003432954     0.000005731124    -0.000000302660
      18       -0.000007110630    -0.000001734110     0.000007133677
      19       -0.000004922037    -0.000009442869    -0.000000539758
      20        0.000005676724    -0.000007592614    -0.000008415702
      21       -0.000002596831     0.000000158677     0.000001508424
      22        0.000006635313     0.000005009485    -0.000001449291
      23        0.000001677197     0.000002163867    -0.000000468653

  **** Optimization is complete! (in 6 steps) ****
    Final optimized geometry and variables:
    Molecular point group: c1

    Geometry (in Angstrom), charge = 0, multiplicity = 1:

    O            2.080871396210     0.905041775136     0.471747960904
    C            1.483367758280     0.483448599490    -0.459077535127
    C            0.201916927867    -0.307296105710    -0.392235804890
    O            1.876334184465     0.657088556420    -1.710560199683
    C           -0.297381057634    -0.548887604441     1.028148717047
    H           -0.532990236992     0.225803704260    -0.986146494161
    H            0.376684434012    -1.244387008815    -0.910136811117
    C           -1.641979709142    -1.290530705099     1.057701566482
    H           -0.396517307218     0.412135319583     1.518248245339
    H            0.455866949760    -1.101215102383     1.574509608980
    C           -2.851214203620    -0.354968508449     1.074149156580
    H           -1.724964592853    -1.934517273825     0.185853107070
    H           -1.686969776587    -1.935208456593     1.928836284623
    C           -4.182390216268    -1.097815493077     1.041705838718
    H           -2.799443400652     0.324007764507     0.227062661912
    H           -2.806360490512     0.266641111742     1.963618582215
    H           -4.275728708512    -1.696485051574     0.141632041867
    H           -5.018113582918    -0.408080995562     1.067804307621
    H           -4.277958280577    -1.765213710038     1.891810644484
    C            3.070024570147     1.383676053748    -1.921018056994
    H            2.980980322938     2.385591257335    -1.527967365339
    H            3.215602066933     1.414407966080    -2.988616475876
    H            3.905094974221     0.891456122016    -1.444969060045

  Mulliken Charges: (a.u.)
   Center  Symbol    Alpha    Beta     Spin     Total
       1     O     4.19695  4.19695  0.00000 -0.39390
       2     C     2.80679  2.80679  0.00000  0.38641
       3     C     3.09827  3.09827  0.00000 -0.19654
       4     O     4.14723  4.14723  0.00000 -0.29446
       5     C     3.09293  3.09293  0.00000 -0.18586
       6     H     0.44039  0.44039  0.00000  0.11922
       7     H     0.43962  0.43962  0.00000  0.12076
       8     C     3.09930  3.09930  0.00000 -0.19860
       9     H     0.44665  0.44665  0.00000  0.10670
      10     H     0.43995  0.43995  0.00000  0.12009
      11     C     3.08197  3.08197  0.00000 -0.16395
      12     H     0.45731  0.45731  0.00000  0.08538
      13     H     0.44448  0.44448  0.00000  0.11103
      14     C     3.15059  3.15059  0.00000 -0.30118
      15     H     0.45603  0.45603  0.00000  0.08793
      16     H     0.45231  0.45231  0.00000  0.09538
      17     H     0.45520  0.45520  0.00000  0.08959
      18     H     0.44791  0.44791  0.00000  0.10419
      19     H     0.45435  0.45435  0.00000  0.09129
      20     C     3.03784  3.03784  0.00000 -0.07568
      21     H     0.45429  0.45429  0.00000  0.09142
      22     H     0.44529  0.44529  0.00000  0.10941
      23     H     0.45432  0.45432  0.00000  0.09136

   Total alpha = 36.00000, Total beta = 36.00000, Total charge = -0.00000

*** Psi4 exiting successfully. Buy a developer a beer!
