  ==> Input File <==

--------------------------------------------------------------------------
set {
	reference rhf
	basis 6-31G*
}

set_num_threads( 4 )
memory 2 gb

molecule MOL {
0 1

H	 -3.819561	 1.116136	 -0.253279
C	 -3.153025	 0.434225	 0.238034
C	 -2.039235	 0.067880	 -0.352953
H	 -3.419878	 0.066852	 1.211038
O	 -1.180634	 -0.819263	 0.215062
H	 -1.750278	 0.429812	 -1.323883
C	 0.051604	 -1.018856	 -0.387932
C	 1.043764	 0.054862	 -0.001873
H	 -0.017620	 -1.041351	 -1.469781
H	 0.437898	 -1.966374	 -0.042284
F	 2.212596	 -0.199467	 -0.571921
F	 0.652529	 1.252447	 -0.405055
F	 1.230877	 0.110694	 1.300533

	symmetry c1
}
set optking {
	frozen_dihedral = ("
		3 5 7 9
	")
}

ee = optimize('scf')
oeprop('DIPOLE', 'QUADRUPOLE', 'MULLIKEN_CHARGES')
f=open( 'psi4out.xyz', 'w' )
f.write( "13  " )
f.write( str(ee) + "\n" )
f.write( MOL.save_string_xyz() )
f.close()
--------------------------------------------------------------------------

    Molecular point group: c1
  Charge       = 0
  Multiplicity = 1
  Basis Set: 6-31G*
  Basis Set:
  @DF-RHF Final Energy:  -527.53581400901840
    Total Energy =                       -527.5358140090181678
    Molecular point group: c1
  Basis Set: 6-31G*
  Basis Set:
  Basis Set: 6-31G*
  Basis Set:
  @DF-RHF Final Energy:  -527.53584560722925
    Total Energy =                       -527.5358456072292483
  Basis Set: 6-31G*
  Basis Set:
  Basis Set: 6-31G*
  Basis Set:
  @DF-RHF Final Energy:  -527.53585581656500
    Total Energy =                       -527.5358558165650038
  Basis Set: 6-31G*
  Basis Set:
  Basis Set: 6-31G*
  Basis Set:
  @DF-RHF Final Energy:  -527.53585884529639
    Total Energy =                       -527.5358588452958202
  Basis Set: 6-31G*
  Basis Set:
  Charge       = 0
  Multiplicity = 1
  Basis Set: 6-31G*
  Basis Set:

    Orbital Energies (a.u.)
    -----------------------

    Doubly Occupied:

       1A    -26.344890     2A    -26.344160     3A    -26.340867
       4A    -20.608261     5A    -11.503582     6A    -11.318822
       7A    -11.298964     8A    -11.215844     9A     -1.742119
      10A     -1.640203    11A     -1.638598    12A     -1.438002
      13A     -1.083871    14A     -1.016708    15A     -0.925614
      16A     -0.836608    17A     -0.831194    18A     -0.822526
      19A     -0.790601    20A     -0.721678    21A     -0.711403
      22A     -0.696132    23A     -0.675796    24A     -0.660816
      25A     -0.654948    26A     -0.643435    27A     -0.635159
      28A     -0.585017    29A     -0.563031    30A     -0.523647
      31A     -0.512787    32A     -0.351793

  @DF-RHF Final Energy:  -527.53585939003187

   => Energetics <=

    Nuclear Repulsion Energy =            414.0313298633639647
    One-Electron Energy =               -1551.7802226169742426
    Two-Electron Energy =                 610.2130333635782335
    DFT Exchange-Correlation Energy =       0.0000000000000000
    Empirical Dispersion Energy =           0.0000000000000000
    PCM Polarization Energy =               0.0000000000000000
    EFP Energy =                            0.0000000000000000
    Total Energy =                       -527.5358593900321011
    Molecular point group: c1
  Basis Set: 6-31G*
  Basis Set:

  -Total Gradient:
     Atom            X                  Y                   Z
    ------   -----------------  -----------------  -----------------
       1       -0.000012976543    -0.000029121475    -0.000013348663
       2        0.000018920973    -0.000019020450    -0.000000113614
       3        0.000259172793     0.000556224761     0.000410810367
       4       -0.000004368980    -0.000006542991    -0.000005446496
       5       -0.000373207596    -0.000939973798    -0.000513508134
       6       -0.000001232717    -0.000022195968    -0.000022243273
       7        0.000192736052     0.001191303319     0.000109074293
       8        0.000024986625    -0.000034387436    -0.000036632242
       9       -0.000109170020    -0.000758904939     0.000015169232
      10        0.000001280944     0.000003296610     0.000009020745
      11       -0.000029466351    -0.000000055266     0.000003892353
      12        0.000043575529     0.000041810066     0.000005829258
      13       -0.000010250703     0.000017567563     0.000037496178

  **** Optimization is complete! (in 5 steps) ****
    Final optimized geometry and variables:
    Molecular point group: c1

    Geometry (in Angstrom), charge = 0, multiplicity = 1:

    H           -3.830643111341     1.097543480999    -0.265373547435
    C           -3.153628618343     0.426624948540     0.226782655331
    C           -2.059450719673     0.035741678869    -0.384539359990
    H           -3.394770403366     0.088920862101     1.217186522735
    O           -1.193765028868    -0.845691197991     0.182821868882
    H           -1.795662155522     0.366711430105    -1.373477751709
    C            0.043981561332    -1.025669338743    -0.414641307225
    C            1.035247933714     0.042323749954    -0.009641475050
    H           -0.019753445226    -1.040781217806    -1.497246576833
    H            0.431202198331    -1.975716461485    -0.077331988171
    F            2.209476651248    -0.215182597598    -0.566723016538
    F            0.657696044012     1.245684192589    -0.409140896568
    F            1.205662502506     0.088186025189     1.295475914063

  Mulliken Charges: (a.u.)
   Center  Symbol    Alpha    Beta     Spin     Total
       1     H     0.40704  0.40704  0.00000  0.18591
       2     C     3.23501  3.23501  0.00000 -0.47003
       3     C     2.89607  2.89607  0.00000  0.20787
       4     H     0.40183  0.40183  0.00000  0.19633
       5     O     4.30145  4.30145  0.00000 -0.60291
       6     H     0.40665  0.40665  0.00000  0.18671
       7     C     3.06396  3.06396  0.00000 -0.12792
       8     C     2.45652  2.45652  0.00000  1.08696
       9     H     0.40550  0.40550  0.00000  0.18900
      10     H     0.38946  0.38946  0.00000  0.22109
      11     F     4.68267  4.68267  0.00000 -0.36534
      12     F     4.67950  4.67950  0.00000 -0.35900
      13     F     4.67434  4.67434  0.00000 -0.34868

   Total alpha = 32.00000, Total beta = 32.00000, Total charge =  0.00000
