                              Psi4 1.0.54 Driver

  ==> Input File <==

--------------------------------------------------------------------------
set {
	reference rhf
	basis cc-pvtz
}

set_num_threads( 4 )
memory 2 gb

molecule MOL {
0 1

H	 -0.366580	 2.045936	 -0.305741
C	 0.351829	 1.335402	 0.083179
N	 -0.000018	 0.000080	 -0.334836
H	 1.327156	 1.599860	 -0.305475
H	 0.380566	 1.445403	 1.171445
C	 -1.195041	 -0.015030	 -1.143583
C	 1.100324	 -0.669740	 -0.985090
H	 -1.468363	 -1.035514	 -1.380226
H	 -2.016224	 0.432808	 -0.598344
H	 -1.077059	 0.530216	 -2.084783
H	 1.957181	 -0.700719	 -0.324016
H	 0.824487	 -1.689469	 -1.222136
H	 1.407380	 -0.178171	 -1.913092

	symmetry c1
}
set optking {
	frozen_dihedral = ("
		6 3 2 1
	")
}

ee,wfn = optimize('scf', return_wfn=True)
oeprop( wfn, 'DIPOLE', 'QUADRUPOLE', 'MULLIKEN_CHARGES')
f=open( 'psi4out.xyz', 'w' )
f.write( "13  " )
f.write( str(ee) + "\n" )
f.write( MOL.save_string_xyz() )
f.close()
--------------------------------------------------------------------------

    Molecular point group: c1
  Charge       = 0
  Multiplicity = 1
  Basis Set: CC-PVTZ
  Basis Set:
  @DF-RHF Final Energy:  -173.32683042196030
    Total Energy =                       -173.3268304219604374
    Molecular point group: c1
  Basis Set: CC-PVTZ
  Basis Set:
  Basis Set: CC-PVTZ
  Basis Set:
  @DF-RHF Final Energy:  -173.14074947399698
    Total Energy =                       -173.1407494739970332
  Basis Set: CC-PVTZ
  Basis Set:
  Basis Set: CC-PVTZ
  Basis Set:
  @DF-RHF Final Energy:  -173.25630920488112
    Total Energy =                       -173.2563092048810063
  Basis Set: CC-PVTZ
  Basis Set:
  Basis Set: CC-PVTZ
  Basis Set:
  @DF-RHF Final Energy:  -173.32159199738061
    Total Energy =                       -173.3215919973806649
  Basis Set: CC-PVTZ
  Basis Set:
  @DF-RHF Final Energy:  -173.32540660945398
    Total Energy =                       -173.3254066094540065
  @DF-RHF Final Energy:  -173.32740790560172
    Total Energy =                       -173.3274079056017172
  Basis Set: CC-PVTZ
  Basis Set:
  @DF-RHF Final Energy:  -173.32770862396393
    Total Energy =                       -173.3277086239639573
  Basis Set: CC-PVTZ
  Basis Set:
  Basis Set: CC-PVTZ
  Basis Set:
  @DF-RHF Final Energy:  -173.32771994184728
    Total Energy =                       -173.3277199418471355
  Basis Set: CC-PVTZ
  Basis Set:
  Basis Set: CC-PVTZ
  Basis Set:
  @DF-RHF Final Energy:  -173.32772111834419
    Total Energy =                       -173.3277211183440727
  Basis Set: CC-PVTZ
  Basis Set:
  Charge       = 0
  Multiplicity = 1
  Basis Set: CC-PVTZ
  Basis Set:

    Orbital Energies (a.u.)
    -----------------------

    Doubly Occupied:

       1A    -15.534657     2A    -11.233994     3A    -11.233927
       4A    -11.233777     5A     -1.221048     6A     -0.952101
       7A     -0.951885     8A     -0.806342     9A     -0.638519
      10A     -0.629477    11A     -0.627983    12A     -0.550088
      13A     -0.547104    14A     -0.514069    15A     -0.502180
      16A     -0.500703    17A     -0.340410

  @DF-RHF Final Energy:  -173.32772121947994

   => Energetics <=

    Nuclear Repulsion Energy =            138.9162922602430399
    One-Electron Energy =                -508.4514967741988585
    Two-Electron Energy =                 196.2074832944759066
    DFT Exchange-Correlation Energy =       0.0000000000000000
    Empirical Dispersion Energy =           0.0000000000000000
    PCM Polarization Energy =               0.0000000000000000
    EFP Energy =                            0.0000000000000000
    Total Energy =                       -173.3277212194799120
    Molecular point group: c1
  Basis Set: CC-PVTZ
  Basis Set:

  -Total Gradient:
     Atom            X                  Y                   Z
    ------   -----------------  -----------------  -----------------
       1        0.000101639137    -0.000057013554    -0.001566317391
       2       -0.000163722968     0.000106007417     0.002464391707
       3        0.000132353438    -0.000084705726    -0.002087636011
       4        0.000003826329     0.000004857046    -0.000003004042
       5        0.000000907314    -0.000002144594     0.000005414341
       6       -0.000065521584     0.000048284407     0.001184356363
       7       -0.000004218428    -0.000004522735    -0.000010271640
       8       -0.000002805385    -0.000012109674     0.000006276958
       9        0.000001565865     0.000001015838     0.000005832794
      10        0.000000102978     0.000000877193    -0.000002214323
      11        0.000001759919     0.000003437155     0.000006496081
      12       -0.000002160908    -0.000004799328     0.000002670669
      13       -0.000003725709     0.000000816557    -0.000005995506

  **** Optimization is complete! (in 10 steps) ****
    Final optimized geometry and variables:
    Molecular point group: c1

    Geometry (in Angstrom), charge = 0, multiplicity = 1:

    H           -0.763384795025     1.839617090922     0.146314338325
    C            0.210204163505     1.370487234404     0.228278751686
    N            0.094396908182    -0.077416359295     0.274955980153
    H            0.783996780920     1.698467114613    -0.634122650786
    H            0.698083272542     1.757814187193     1.116338219854
    C           -1.262516085599    -0.557544176365     0.203289930295
    C            0.982572843243    -0.755048693079    -0.634523023296
    H           -1.281770967073    -1.629554536393     0.356448834032
    H           -1.859019693767    -0.103184831804     0.984021213260
    H           -1.745712817539    -0.347582646156    -0.756347098618
    H            2.002997120258    -0.435187525752    -0.464139385324
    H            0.940361440418    -1.824001660934    -0.465762992227
    H            0.743237217171    -0.570075464470    -1.686542602486

  Mulliken Charges: (a.u.)
   Center  Symbol    Alpha    Beta     Spin     Total
       1     H     0.46086  0.46086  0.00000  0.07829
       2     C     3.08484  3.08484  0.00000 -0.16967
       3     N     3.59889  3.59889  0.00000 -0.19779
       4     H     0.46433  0.46433  0.00000  0.07135
       5     H     0.45122  0.45122  0.00000  0.09757
       6     C     3.09012  3.09012  0.00000 -0.18025
       7     C     3.09033  3.09033  0.00000 -0.18066
       8     H     0.45376  0.45376  0.00000  0.09249
       9     H     0.45226  0.45226  0.00000  0.09547
      10     H     0.47372  0.47372  0.00000  0.05255
      11     H     0.45220  0.45220  0.00000  0.09560
      12     H     0.45383  0.45383  0.00000  0.09233
      13     H     0.47364  0.47364  0.00000  0.05272

   Total alpha = 17.00000, Total beta = 17.00000, Total charge =  0.00000

*** Psi4 exiting successfully. Buy a developer a beer!
