  ==> Input File <==

--------------------------------------------------------------------------
set {
	reference rhf
	basis 6-31G*
}

set_num_threads( 4 )
memory 2 gb

molecule MOL {
0 1

H	 -3.185215	 -2.496920	 2.238962
C	 -2.863623	 -1.740803	 1.549377
C	 -1.643817	 -1.773515	 1.064605
H	 -3.557745	 -0.969821	 1.272444
O	 -1.180634	 -0.819263	 0.215062
H	 -0.935885	 -2.540919	 1.323679
C	 0.051604	 -1.018856	 -0.387932
C	 1.043764	 0.054862	 -0.001873
H	 -0.017620	 -1.041351	 -1.469781
H	 0.437898	 -1.966374	 -0.042284
F	 2.212596	 -0.199467	 -0.571921
F	 0.652529	 1.252447	 -0.405055
F	 1.230877	 0.110694	 1.300533

	symmetry c1
}
set optking {
	frozen_dihedral = ("
		3 5 7 9
	")
}

ee = optimize('scf')
oeprop('DIPOLE', 'QUADRUPOLE', 'MULLIKEN_CHARGES')
f=open( 'psi4out.xyz', 'w' )
f.write( "13  " )
f.write( str(ee) + "\n" )
f.write( MOL.save_string_xyz() )
f.close()
--------------------------------------------------------------------------

    Molecular point group: c1
  Charge       = 0
  Multiplicity = 1
  Basis Set: 6-31G*
  Basis Set:
  @DF-RHF Final Energy:  -527.53306476846001
    Total Energy =                       -527.5330647684600081
    Molecular point group: c1
  Basis Set: 6-31G*
  Basis Set:
  Basis Set: 6-31G*
  Basis Set:
  @DF-RHF Final Energy:  -527.53418310437610
    Total Energy =                       -527.5341831043760976
  Basis Set: 6-31G*
  Basis Set:
  Basis Set: 6-31G*
  Basis Set:
  @DF-RHF Final Energy:  -527.53447549431166
    Total Energy =                       -527.5344754943120051
  Basis Set: 6-31G*
  Basis Set:
  Basis Set: 6-31G*
  Basis Set:
  @DF-RHF Final Energy:  -527.53448626876536
    Total Energy =                       -527.5344862687653631
  Basis Set: 6-31G*
  Basis Set:
  @DF-RHF Final Energy:  -527.53449524218354
    Total Energy =                       -527.5344952421834250
  Basis Set: 6-31G*
  Basis Set:
  @DF-RHF Final Energy:  -527.53450519696366
    Total Energy =                       -527.5345051969636643
  Basis Set: 6-31G*
  Basis Set:
  Basis Set: 6-31G*
  Basis Set:
  @DF-RHF Final Energy:  -527.53451068817549
    Total Energy =                       -527.5345106881759421
  Basis Set: 6-31G*
  Basis Set:
  Basis Set: 6-31G*
  Basis Set:
  @DF-RHF Final Energy:  -527.53451228945914
    Total Energy =                       -527.5345122894591441
  Basis Set: 6-31G*
  Basis Set:
  Charge       = 0
  Multiplicity = 1
  Basis Set: 6-31G*
  Basis Set:

    Orbital Energies (a.u.)
    -----------------------

    Doubly Occupied:

       1A    -26.342963     2A    -26.340218     3A    -26.338813
       4A    -20.607431     5A    -11.502051     6A    -11.318689
       7A    -11.301763     8A    -11.218102     9A     -1.739755
      10A     -1.637792    11A     -1.636196    12A     -1.437979
      13A     -1.086536    14A     -1.015635    15A     -0.923659
      16A     -0.836446    17A     -0.829542    18A     -0.812143
      19A     -0.797439    20A     -0.723854    21A     -0.710816
      22A     -0.698446    23A     -0.676379    24A     -0.657225
      25A     -0.652895    26A     -0.640882    27A     -0.628590
      28A     -0.588718    29A     -0.563048    30A     -0.528446
      31A     -0.508291    32A     -0.353936

  @DF-RHF Final Energy:  -527.53451235551665

   => Energetics <=

    Nuclear Repulsion Energy =            408.9437465293666492
    One-Electron Energy =               -1541.6471637363813443
    Two-Electron Energy =                 605.1689048514977003
    DFT Exchange-Correlation Energy =       0.0000000000000000
    Empirical Dispersion Energy =           0.0000000000000000
    PCM Polarization Energy =               0.0000000000000000
    EFP Energy =                            0.0000000000000000
    Total Energy =                       -527.5345123555171085
    Molecular point group: c1
  Basis Set: 6-31G*
  Basis Set:

  -Total Gradient:
     Atom            X                  Y                   Z
    ------   -----------------  -----------------  -----------------
       1        0.000000473289     0.000000188449    -0.000000300467
       2        0.000005633700    -0.000002273120    -0.000006367530
       3       -0.000400715309    -0.000331848389    -0.000591052230
       4       -0.000000814391     0.000001461552     0.000003255394
       5        0.000548064666     0.000249511529     0.000876075348
       6       -0.000001285146    -0.000000971521     0.000001875044
       7        0.000035018939     0.001002283776    -0.000294020161
       8        0.000006355562    -0.000001232172    -0.000015049061
       9       -0.000176024986    -0.000909823063     0.000002255415
      10        0.000005748283     0.000005911599    -0.000000143522
      11       -0.000013910410    -0.000016062566     0.000009008080
      12       -0.000014229874     0.000004810047     0.000000098170
      13        0.000005685678    -0.000001956109     0.000014365519

  **** Optimization is complete! (in 9 steps) ****
    Final optimized geometry and variables:
    Molecular point group: c1

    Geometry (in Angstrom), charge = 0, multiplicity = 1:

    H           -3.316035500951    -2.067738943532     1.880539231069
    C           -2.980738814122    -1.323703476170     1.184227489906
    C           -1.723029000005    -1.300073110141     0.807036350990
    H           -3.689019657847    -0.601790567002     0.823396544089
    O           -1.239392229351    -0.353532214581    -0.035645192017
    H           -0.997476246215    -2.011883170875     1.161428872535
    C           -0.042214659050    -0.598493621225    -0.695192667795
    C            0.957578950302     0.471997483492    -0.331315402091
    H           -0.200345897905    -0.577672447778    -1.765359245696
    H            0.388196314120    -1.555836960257    -0.428170641856
    F            2.094393609934     0.252496125050    -0.976697955270
    F            0.535609017818     1.677161076377    -0.654284523176
    F            1.220881334373     0.466662047753     0.962934526188

  Mulliken Charges: (a.u.)
   Center  Symbol    Alpha    Beta     Spin     Total
       1     H     0.40705  0.40705  0.00000  0.18591
       2     C     3.23440  3.23440  0.00000 -0.46880
       3     C     2.89754  2.89754  0.00000  0.20492
       4     H     0.40130  0.40130  0.00000  0.19741
       5     O     4.30322  4.30322  0.00000 -0.60645
       6     H     0.40692  0.40692  0.00000  0.18616
       7     C     3.05577  3.05577  0.00000 -0.11154
       8     C     2.45310  2.45310  0.00000  1.09380
       9     H     0.39583  0.39583  0.00000  0.20834
      10     H     0.40658  0.40658  0.00000  0.18685
      11     F     4.68381  4.68381  0.00000 -0.36762
      12     F     4.67530  4.67530  0.00000 -0.35060
      13     F     4.67918  4.67918  0.00000 -0.35835

   Total alpha = 32.00000, Total beta = 32.00000, Total charge = -0.00000
