  ==> Input File <==

--------------------------------------------------------------------------
set {
	reference rhf
	basis cc-pvtz
}

set_num_threads( 4 )
memory 2 gb

molecule MOL {
0 1

O	 -2.071633	 -1.227563	 -0.223463
C	 -1.652164	 -0.152425	 0.058082
C	 -0.327811	 0.006324	 0.778296
C	 -2.402515	 1.108629	 -0.298924
C	 0.843231	 -0.001575	 -0.211665
H	 -0.319484	 0.928173	 1.350354
H	 -0.227804	 -0.823091	 1.466705
C	 2.197693	 0.138030	 0.476937
H	 0.722944	 0.805202	 -0.930230
H	 0.813976	 -0.926978	 -0.776588
C	 3.368287	 0.075120	 -0.498212
H	 2.230439	 1.078170	 1.020617
H	 2.302864	 -0.648110	 1.218868
H	 3.309919	 0.871482	 -1.232674
H	 3.380176	 -0.867732	 -1.034176
H	 4.314712	 0.172912	 0.020552
H	 -3.240910	 0.874416	 -0.936711
H	 -1.747554	 1.818823	 -0.790984
H	 -2.760419	 1.579708	 0.610998

	symmetry c1
}
set optking {
	frozen_dihedral = ("
		11 8 5 9
	")
}

ee = optimize('scf')
oeprop('DIPOLE', 'QUADRUPOLE', 'MULLIKEN_CHARGES')
f=open( 'psi4out.xyz', 'w' )
f.write( "19  " )
f.write( str(ee) + "\n" )
f.write( MOL.save_string_xyz() )
f.close()
--------------------------------------------------------------------------

    Molecular point group: c1
  Charge       = 0
  Multiplicity = 1
  Basis Set: CC-PVTZ
  Basis Set:
  @DF-RHF Final Energy:  -309.17735069101531
    Total Energy =                       -309.1773506910155902
    Molecular point group: c1
  Basis Set: CC-PVTZ
  Basis Set:
  Basis Set: CC-PVTZ
  Basis Set:
  @DF-RHF Final Energy:  -309.17734576485418
    Total Energy =                       -309.1773457648542944
  Basis Set: CC-PVTZ
  Basis Set:
  Basis Set: CC-PVTZ
  Basis Set:
  @DF-RHF Final Energy:  -309.17735176989407
    Total Energy =                       -309.1773517698940168
  Basis Set: CC-PVTZ
  Basis Set:
  Charge       = 0
  Multiplicity = 1
  Basis Set: CC-PVTZ
  Basis Set:

    Orbital Energies (a.u.)
    -----------------------

    Doubly Occupied:

       1A    -20.536945     2A    -11.319487     3A    -11.228832
       4A    -11.227867     5A    -11.227047     6A    -11.223074
       7A    -11.213169     8A     -1.397078     9A     -1.092976
      10A     -1.030534    11A     -0.984720    12A     -0.890959
      13A     -0.807362    14A     -0.734602    15A     -0.665092
      16A     -0.648233    17A     -0.625045    18A     -0.615133
      19A     -0.583003    20A     -0.575050    21A     -0.553558
      22A     -0.538094    23A     -0.514506    24A     -0.501058
      25A     -0.482976    26A     -0.476951    27A     -0.470270
      28A     -0.399241

  @DF-RHF Final Energy:  -309.17735250560685

   => Energetics <=

    Nuclear Repulsion Energy =            301.8557480337847778
    One-Electron Energy =               -1016.9404848596816464
    Two-Electron Energy =                 405.9073843202903049
    DFT Exchange-Correlation Energy =       0.0000000000000000
    Empirical Dispersion Energy =           0.0000000000000000
    PCM Polarization Energy =               0.0000000000000000
    EFP Energy =                            0.0000000000000000
    Total Energy =                       -309.1773525056066205
    Molecular point group: c1
  Basis Set: CC-PVTZ
  Basis Set:

  -Total Gradient:
     Atom            X                  Y                   Z
    ------   -----------------  -----------------  -----------------
       1       -0.000043320054    -0.000004238321     0.000095632101
       2        0.000144915008     0.000010554470    -0.000294145689
       3       -0.000036906806     0.000004570596     0.000076964312
       4       -0.000063482371    -0.000009108878     0.000110833280
       5        0.000188201528    -0.000388934637    -0.000327590649
       6        0.000004668878    -0.000001429308     0.000007051735
       7        0.000006891912     0.000001901008     0.000012195810
       8       -0.000061713294     0.000445324316     0.000020041801
       9       -0.000159108084     0.000223425362     0.000267594412
      10       -0.000004526951    -0.000002180316     0.000004437749
      11        0.000012164004    -0.000285322627     0.000030709684
      12       -0.000002940164    -0.000002707967     0.000005463603
      13        0.000004680634    -0.000002688404    -0.000001619143
      14       -0.000001646696     0.000001914637    -0.000001142465
      15        0.000001324234     0.000003895673     0.000000889875
      16        0.000000665840    -0.000000301302     0.000000244110
      17        0.000002372077    -0.000002182740     0.000001168569
      18        0.000012987159    -0.000016596411     0.000000235336
      19       -0.000005226850     0.000024104853    -0.000008964432

  **** Optimization is complete! (in 4 steps) ****
    Final optimized geometry and variables:
    Molecular point group: c1

    Geometry (in Angstrom), charge = 0, multiplicity = 1:

    O           -2.075538964483    -1.219774000513    -0.222312280087
    C           -1.652447703521    -0.145505769829     0.057180707704
    C           -0.327744852845     0.010167222443     0.777309101965
    C           -2.399926927812     1.117207541480    -0.300007848158
    C            0.843254949376     0.000671535896    -0.212943425248
    H           -0.317625161196     0.931748925109     1.349845848125
    H           -0.229297182205    -0.819768799946     1.465250206128
    C            2.197259046314     0.144180166242     0.475837252372
    H            0.721192508138     0.807075700971    -0.931626559155
    H            0.814578629498    -0.925931542090    -0.775779609762
    C            3.368202727756     0.084266486984    -0.499097101207
    H            2.226728723949     1.083530984329     1.020940636630
    H            2.305166292796    -0.642776944846     1.216582409124
    H            3.305656161489     0.877343804245    -1.236831187284
    H            3.385040506858    -0.860631423574    -1.031195345027
    H            4.314068569262     0.189312039253     0.019274645407
    H           -3.238564310371     0.884808431341    -0.938137379654
    H           -1.743435664434     1.826316656259    -0.791542561367
    H           -2.757359322092     1.588653796578     0.609922878662

  Mulliken Charges: (a.u.)
   Center  Symbol    Alpha    Beta     Spin     Total
       1     O     4.17773  4.17773  0.00000 -0.35545
       2     C     2.85809  2.85809  0.00000  0.28382
       3     C     3.09810  3.09810  0.00000 -0.19621
       4     C     3.15511  3.15511  0.00000 -0.31022
       5     C     3.09729  3.09729  0.00000 -0.19457
       6     H     0.44951  0.44951  0.00000  0.10097
       7     H     0.43906  0.43906  0.00000  0.12189
       8     C     3.08581  3.08581  0.00000 -0.17162
       9     H     0.45281  0.45281  0.00000  0.09437
      10     H     0.44125  0.44125  0.00000  0.11751
      11     C     3.14929  3.14929  0.00000 -0.29858
      12     H     0.45387  0.45387  0.00000  0.09227
      13     H     0.45161  0.45161  0.00000  0.09678
      14     H     0.45516  0.45516  0.00000  0.08969
      15     H     0.45271  0.45271  0.00000  0.09458
      16     H     0.44736  0.44736  0.00000  0.10527
      17     H     0.43602  0.43602  0.00000  0.12796
      18     H     0.45090  0.45090  0.00000  0.09819
      19     H     0.44833  0.44833  0.00000  0.10335

   Total alpha = 28.00000, Total beta = 28.00000, Total charge =  0.00000
