  ==> Input File <==

--------------------------------------------------------------------------
set {
	reference rhf
	basis 6-31G*
}

set_num_threads( 4 )
memory 2 gb

molecule MOL {
0 1

O	 -2.439739	 -0.935931	 -0.423848
C	 -1.921153	 0.064240	 -0.045697
C	 -2.624470	 1.379923	 0.150949
O	 -0.632575	 0.154573	 0.251549
H	 -2.168117	 2.136577	 -0.476876
H	 -3.669540	 1.273223	 -0.098610
H	 -2.519365	 1.700893	 1.180846
C	 0.160891	 -1.019931	 0.106212
C	 1.589627	 -0.672828	 0.480843
H	 0.089836	 -1.367806	 -0.916050
H	 -0.238459	 -1.792301	 0.749618
C	 1.793419	 -0.407574	 1.973662
H	 1.871368	 0.210430	 -0.088727
H	 2.243510	 -1.477335	 0.154557
C	 3.236466	 -0.035148	 2.311175
H	 1.129606	 0.394966	 2.288910
H	 1.503707	 -1.288205	 2.537502
H	 3.355231	 0.146890	 3.374561
H	 3.544606	 0.864163	 1.785279
H	 3.921745	 -0.831043	 2.033647

	symmetry c1
}
set optking {
	frozen_dihedral = ("
		12 9 8 10
	")
}

ee = optimize('scf')
oeprop('DIPOLE', 'QUADRUPOLE', 'MULLIKEN_CHARGES')
f=open( 'psi4out.xyz', 'w' )
f.write( "20  " )
f.write( str(ee) + "\n" )
f.write( MOL.save_string_xyz() )
f.close()
--------------------------------------------------------------------------

    Molecular point group: c1
  Charge       = 0
  Multiplicity = 1
  Basis Set: 6-31G*
  Basis Set:
  @DF-RHF Final Energy:  -383.94535928958373
    Total Energy =                       -383.9453592895838483
    Molecular point group: c1
  Basis Set: 6-31G*
  Basis Set:
  Basis Set: 6-31G*
  Basis Set:
  @DF-RHF Final Energy:  -383.94545043046753
    Total Energy =                       -383.9454504304677585
  Basis Set: 6-31G*
  Basis Set:
  Basis Set: 6-31G*
  Basis Set:
  @DF-RHF Final Energy:  -383.94470203507092
    Total Energy =                       -383.9447020350713728
  Basis Set: 6-31G*
  Basis Set:
  Basis Set: 6-31G*
  Basis Set:
  @DF-RHF Final Energy:  -383.94552321250114
    Total Energy =                       -383.9455232125012571
  Basis Set: 6-31G*
  Basis Set:
  Basis Set: 6-31G*
  Basis Set:
  @DF-RHF Final Energy:  -383.94552546980310
    Total Energy =                       -383.9455254698028739
  Basis Set: 6-31G*
  Basis Set:
  Basis Set: 6-31G*
  Basis Set:
  @DF-RHF Final Energy:  -383.94552663173903
    Total Energy =                       -383.9455266317389714
  Basis Set: 6-31G*
  Basis Set:
  Charge       = 0
  Multiplicity = 1
  Basis Set: 6-31G*
  Basis Set:

    Orbital Energies (a.u.)
    -----------------------

    Doubly Occupied:

       1A    -20.601994     2A    -20.544131     3A    -11.374566
       4A    -11.282217     5A    -11.233458     6A    -11.225382
       7A    -11.221094     8A    -11.213630     9A     -1.468086
      10A     -1.362302    11A     -1.086217    12A     -1.028415
      13A     -0.981407    14A     -0.880367    15A     -0.810532
      16A     -0.777018    17A     -0.689662    18A     -0.682633
      19A     -0.667267    20A     -0.631235    21A     -0.601738
      22A     -0.592576    23A     -0.572192    24A     -0.551119
      25A     -0.544545    26A     -0.530980    27A     -0.512054
      28A     -0.482957    29A     -0.475820    30A     -0.472987
      31A     -0.448453    32A     -0.438690

  @DF-RHF Final Energy:  -383.94552720558761

   => Energetics <=

    Nuclear Repulsion Energy =            384.7416533568050454
    One-Electron Energy =               -1285.4029118262119482
    Two-Electron Energy =                 516.7157312638190660
    DFT Exchange-Correlation Energy =       0.0000000000000000
    Empirical Dispersion Energy =           0.0000000000000000
    PCM Polarization Energy =               0.0000000000000000
    EFP Energy =                            0.0000000000000000
    Total Energy =                       -383.9455272055878368
    Molecular point group: c1
  Basis Set: 6-31G*
  Basis Set:

  -Total Gradient:
     Atom            X                  Y                   Z
    ------   -----------------  -----------------  -----------------
       1        0.000004291840     0.000000800854    -0.000003489693
       2        0.000001298630     0.000005021914     0.000013568867
       3       -0.000006289606    -0.000000325353     0.000002464036
       4       -0.000022877175     0.000005452233    -0.000002511083
       5       -0.000001354884     0.000001258007    -0.000002919246
       6       -0.000001204539     0.000002884454    -0.000000905895
       7        0.000002193687     0.000000094769    -0.000003459820
       8       -0.000184988499     0.001463359026    -0.000589669412
       9       -0.000262537206     0.001166420465    -0.000105547770
      10        0.000238088273    -0.001520694224     0.000514723929
      11        0.000002022652    -0.000001072464     0.000004687824
      12        0.000230109611    -0.001126361216     0.000175454695
      13       -0.000010252180    -0.000001091270     0.000000494156
      14        0.000011301544     0.000000953945    -0.000001257545
      15        0.000001809730    -0.000004901009     0.000000886060
      16        0.000000473653     0.000002782096    -0.000002233760
      17       -0.000001019300     0.000004074177     0.000000016339
      18        0.000000480159    -0.000002882354     0.000000357515
      19       -0.000001615835     0.000002381696     0.000002498776
      20        0.000000069450     0.000001844252    -0.000003157971

  **** Optimization is complete! (in 7 steps) ****
    Final optimized geometry and variables:
    Molecular point group: c1

    Geometry (in Angstrom), charge = 0, multiplicity = 1:

    O           -2.329447276647    -0.771684280977    -0.983968715958
    C           -1.807800523628     0.237866496137    -0.636097155218
    C           -2.514991433052     1.551699726297    -0.440435414278
    O           -0.513038859236     0.340619209477    -0.371760877463
    H           -2.079026086901     2.302198565308    -1.089694963000
    H           -3.565048631314     1.434695002351    -0.663006308003
    H           -2.387132938420     1.887750817648     0.582099166022
    C            0.283586753673    -0.831462189547    -0.513865510685
    C            1.709685059111    -0.481714797203    -0.130622901691
    H            0.221713659419    -1.182836752125    -1.535063818184
    H           -0.118657159897    -1.608584253291     0.123105407733
    C            1.899047792514    -0.211445020036     1.363132809499
    H            2.028372619731     0.379221373254    -0.711830304499
    H            2.343777139023    -1.313843193956    -0.429825232105
    C            3.343965987957     0.134780079185     1.719629577497
    H            1.245046468225     0.599924477247     1.667738681375
    H            1.587746338616    -1.088760415438     1.926178057257
    H            3.452132271339     0.315527744508     2.784357975573
    H            3.672912423832     1.028715215759     1.197491715039
    H            4.020012012448    -0.672141779641     1.450840476828

  Mulliken Charges: (a.u.)
   Center  Symbol    Alpha    Beta     Spin     Total
       1     O     4.28328  4.28328  0.00000 -0.56657
       2     C     2.61930  2.61930  0.00000  0.76141
       3     C     3.28163  3.28163  0.00000 -0.56327
       4     O     4.30845  4.30845  0.00000 -0.61689
       5     H     0.40055  0.40055  0.00000  0.19890
       6     H     0.39686  0.39686  0.00000  0.20629
       7     H     0.40079  0.40079  0.00000  0.19843
       8     C     3.00306  3.00306  0.00000 -0.00611
       9     C     3.16434  3.16434  0.00000 -0.32868
      10     H     0.40839  0.40839  0.00000  0.18321
      11     H     0.41069  0.41069  0.00000  0.17862
      12     C     3.15539  3.15539  0.00000 -0.31078
      13     H     0.41365  0.41365  0.00000  0.17271
      14     H     0.41839  0.41839  0.00000  0.16322
      15     C     3.24035  3.24035  0.00000 -0.48069
      16     H     0.41302  0.41302  0.00000  0.17397
      17     H     0.42241  0.42241  0.00000  0.15518
      18     H     0.41750  0.41750  0.00000  0.16500
      19     H     0.42039  0.42039  0.00000  0.15923
      20     H     0.42158  0.42158  0.00000  0.15683

   Total alpha = 32.00000, Total beta = 32.00000, Total charge =  0.00000
