                              Psi4 1.0.54 Driver

  ==> Input File <==

--------------------------------------------------------------------------
set {
	reference rhf
	basis cc-pvtz
}

set_num_threads( 4 )
memory 2 gb

molecule MOL {
0 1

H	 2.100255	 -0.919522	 -0.618233
C	 1.772102	 0.116444	 -0.775531
C	 0.692262	 0.592428	 0.156232
O	 2.261266	 0.768048	 -1.632132
C	 -0.554654	 -0.292621	 0.086567
H	 0.459509	 1.621120	 -0.085545
H	 1.098023	 0.565474	 1.165445
C	 -1.846385	 0.513195	 -0.016346
H	 -0.473986	 -0.956115	 -0.769708
H	 -0.597929	 -0.929215	 0.966651
C	 -3.089953	 -0.365049	 -0.098564
H	 -1.798267	 1.154820	 -0.891143
H	 -1.925398	 1.173265	 0.842889
H	 -3.055079	 -1.012299	 -0.968245
H	 -3.988403	 0.236438	 -0.170014
H	 -3.183055	 -0.995885	 0.779079

	symmetry c1
}
set optking {
	frozen_dihedral = ("
		6 3 5 9
	")
}

ee,wfn = optimize('scf', return_wfn=True)
oeprop( wfn, 'DIPOLE', 'QUADRUPOLE', 'MULLIKEN_CHARGES')
f=open( 'psi4out.xyz', 'w' )
f.write( "16  " )
f.write( str(ee) + "\n" )
f.write( MOL.save_string_xyz() )
f.close()
--------------------------------------------------------------------------

    Molecular point group: c1
  Charge       = 0
  Multiplicity = 1
  Basis Set: CC-PVTZ
  Basis Set:
  @DF-RHF Final Energy:  -270.11441507306711
    Total Energy =                       -270.1144150730671072
    Molecular point group: c1
  Basis Set: CC-PVTZ
  Basis Set:
  Basis Set: CC-PVTZ
  Basis Set:
  @DF-RHF Final Energy:  -270.11429534294911
    Total Energy =                       -270.1142953429491627
  Basis Set: CC-PVTZ
  Basis Set:
  Basis Set: CC-PVTZ
  Basis Set:
  @DF-RHF Final Energy:  -270.11166491634606
    Total Energy =                       -270.1116649163458874
  Basis Set: CC-PVTZ
  Basis Set:
  Basis Set: CC-PVTZ
  Basis Set:
  @DF-RHF Final Energy:  -270.11468789954387
    Total Energy =                       -270.1146878995439238
  Basis Set: CC-PVTZ
  Basis Set:
  @DF-RHF Final Energy:  -270.11472400448616
    Total Energy =                       -270.1147240044858790
  @DF-RHF Final Energy:  -270.11475974391914
    Total Energy =                       -270.1147597439191941
  Basis Set: CC-PVTZ
  Basis Set:
  @DF-RHF Final Energy:  -270.11476452558077
    Total Energy =                       -270.1147645255808243
  Basis Set: CC-PVTZ
  Basis Set:
  Basis Set: CC-PVTZ
  Basis Set:
  @DF-RHF Final Energy:  -270.11476723749365
    Total Energy =                       -270.1147672374934814
  Basis Set: CC-PVTZ
  Basis Set:
  Basis Set: CC-PVTZ
  Basis Set:
  @DF-RHF Final Energy:  -270.11476839829243
    Total Energy =                       -270.1147683982924264
  Basis Set: CC-PVTZ
  Basis Set:
  Charge       = 0
  Multiplicity = 1
  Basis Set: CC-PVTZ
  Basis Set:

    Orbital Energies (a.u.)
    -----------------------

    Doubly Occupied:

       1A    -20.551550     2A    -11.321651     3A    -11.234446
       4A    -11.233745     5A    -11.226937     6A    -11.216043
       7A     -1.406693     8A     -1.095603     9A     -1.019094
      10A     -0.907194    11A     -0.813109    12A     -0.795426
      13A     -0.675596    14A     -0.652311    15A     -0.628505
      16A     -0.604566    17A     -0.591098    18A     -0.540175
      19A     -0.530482    20A     -0.519844    21A     -0.486525
      22A     -0.483478    23A     -0.471662    24A     -0.412449

  @DF-RHF Final Energy:  -270.11476847381027

   => Energetics <=

    Nuclear Repulsion Energy =            229.7299561958637639
    One-Electron Energy =                -820.8530858175511185
    Two-Electron Energy =                 321.0083611478769967
    DFT Exchange-Correlation Energy =       0.0000000000000000
    Empirical Dispersion Energy =           0.0000000000000000
    PCM Polarization Energy =               0.0000000000000000
    EFP Energy =                            0.0000000000000000
    Total Energy =                       -270.1147684738103294
    Molecular point group: c1
  Basis Set: CC-PVTZ
  Basis Set:

  -Total Gradient:
     Atom            X                  Y                   Z
    ------   -----------------  -----------------  -----------------
       1        0.000000969896     0.000002184250    -0.000000149353
       2       -0.000000768643     0.000006530977    -0.000002264623
       3        0.000796360558    -0.000933308536    -0.002540402926
       4        0.000006050154    -0.000004516447    -0.000003697455
       5       -0.001398230837     0.002074241583    -0.001050963642
       6       -0.000440589412     0.000434271939     0.002268684725
       7        0.000001018515    -0.000001084015     0.000003817862
       8       -0.000009456522    -0.000002146870     0.000000524269
       9        0.001042456659    -0.001582137698     0.001325167948
      10       -0.000001737946    -0.000000899377     0.000000225356
      11        0.000008403756     0.000007830533    -0.000000978672
      12       -0.000000852682    -0.000000796859    -0.000002226486
      13       -0.000000763214     0.000001632880     0.000002435442
      14       -0.000000522377    -0.000001541771    -0.000002458039
      15       -0.000002736616     0.000000483131     0.000000119397
      16        0.000000398712    -0.000000743718     0.000002166199

  **** Optimization is complete! (in 10 steps) ****
    Final optimized geometry and variables:
    Molecular point group: c1

    Geometry (in Angstrom), charge = 0, multiplicity = 1:

    H            2.155630870678    -1.173177240676    -0.304543805228
    C            1.912549674430    -0.105795402903    -0.390108790923
    C            0.806424870434     0.370347636896     0.509532316985
    O            2.507622098241     0.577502655876    -1.149269590229
    C           -0.451997357367    -0.519984179696     0.435018887669
    H            0.583973428672     1.401104353804     0.268851349473
    H            1.201730160752     0.364439879767     1.522061426869
    C           -1.746926382255     0.282689300299     0.348125347346
    H           -0.384172145121    -1.189899789741    -0.418132279552
    H           -0.492743653574    -1.167695836341     1.304327057832
    C           -2.990135845474    -0.597933624442     0.301231947931
    H           -1.715050664945     0.914561701455    -0.534325172977
    H           -1.808881169913     0.952488887058     1.201160836081
    H           -2.970396635783    -1.257374232779    -0.559925319703
    H           -3.890460922583     0.001598104763     0.237643517601
    H           -3.066532295590    -1.216487480523     1.189187886304

  Mulliken Charges: (a.u.)
   Center  Symbol    Alpha    Beta     Spin     Total
       1     H     0.46468  0.46468  0.00000  0.07065
       2     C     2.90609  2.90609  0.00000  0.18783
       3     C     3.08420  3.08420  0.00000 -0.16840
       4     O     4.16504  4.16504  0.00000 -0.33009
       5     C     3.10025  3.10025  0.00000 -0.20051
       6     H     0.44243  0.44243  0.00000  0.11513
       7     H     0.44584  0.44584  0.00000  0.10832
       8     C     3.08426  3.08426  0.00000 -0.16852
       9     H     0.45319  0.45319  0.00000  0.09361
      10     H     0.44933  0.44933  0.00000  0.10133
      11     C     3.14937  3.14937  0.00000 -0.29874
      12     H     0.44910  0.44910  0.00000  0.10181
      13     H     0.45129  0.45129  0.00000  0.09742
      14     H     0.45373  0.45373  0.00000  0.09254
      15     H     0.44644  0.44644  0.00000  0.10712
      16     H     0.45475  0.45475  0.00000  0.09050

   Total alpha = 24.00000, Total beta = 24.00000, Total charge = -0.00000

*** Psi4 exiting successfully. Buy a developer a beer!
