  ==> Input File <==

--------------------------------------------------------------------------
set {
	reference rhf
	basis 6-31G*
}

set_num_threads( 1 )
memory 2 gb

molecule MOL {
0 1

H	 -4.198650	 -0.208115	 -1.278479
O	 -3.452007	 0.283848	 -0.965577
C	 -3.181085	 -0.079926	 0.364119
C	 -1.765924	 0.277073	 0.805136
H	 -3.327791	 -1.152017	 0.410903
H	 -3.905698	 0.375695	 1.036898
C	 -0.677594	 -0.417312	 -0.014550
H	 -1.637766	 1.358238	 0.744969
H	 -1.659588	 0.017670	 1.857098
C	 0.738335	 -0.034840	 0.421385
H	 -0.814977	 -0.178223	 -1.064632
H	 -0.802730	 -1.495410	 0.071702
C	 1.822265	 -0.738362	 -0.399735
H	 0.853533	 1.043532	 0.342250
H	 0.871597	 -0.279636	 1.474438
C	 3.258060	 -0.455774	 0.057203
H	 1.718003	 -0.459167	 -1.447053
H	 1.651028	 -1.811884	 -0.354513
C	 3.709143	 0.994797	 -0.123830
H	 3.930637	 -1.101717	 -0.501982
H	 3.365259	 -0.739518	 1.102287
H	 3.601178	 1.310569	 -1.158127
H	 4.753787	 1.110486	 0.148516
H	 3.135362	 1.678896	 0.492569

	symmetry c1
}
set optking {
	frozen_dihedral = ("
		20 16 13 17,
		17 13 10 7,
		13 10 7 11,
		11 7 4 3,
		7 4 3 2
	")
}

ee = energy('scf')
oeprop('DIPOLE', 'QUADRUPOLE', 'MULLIKEN_CHARGES')
f=open( 'psi4out.xyz', 'w' )
f.write( "24  " )
f.write( str(ee) + "\n" )
f.write( MOL.save_string_xyz() )
f.close()
--------------------------------------------------------------------------

    Molecular point group: c1

    Geometry (in Angstrom), charge = 0, multiplicity = 1:

       Center              X                  Y                   Z               Mass
    ------------   -----------------  -----------------  -----------------  -----------------
           H         -4.191898148059    -0.195655862810    -1.276446145409     1.007825032070
           O         -3.445255148059     0.296307137190    -0.963544145409    15.994914619560
           C         -3.174333148059    -0.067466862810     0.366151854591    12.000000000000
           C         -1.759172148059     0.289532137190     0.807168854591    12.000000000000
           H         -3.321039148059    -1.139557862810     0.412935854591     1.007825032070
           H         -3.898946148059     0.388154137190     1.038930854591     1.007825032070
           C         -0.670842148059    -0.404852862810    -0.012517145409    12.000000000000
           H         -1.631014148059     1.370697137190     0.747001854591     1.007825032070
           H         -1.652836148059     0.030129137190     1.859130854591     1.007825032070
           C          0.745086851941    -0.022380862810     0.423417854591    12.000000000000
           H         -0.808225148059    -0.165763862810    -1.062599145409     1.007825032070
           H         -0.795978148059    -1.482950862810     0.073734854591     1.007825032070
           C          1.829016851941    -0.725902862810    -0.397702145409    12.000000000000
           H          0.860284851941     1.055991137190     0.344282854591     1.007825032070
           H          0.878348851941    -0.267176862810     1.476470854591     1.007825032070
           C          3.264811851941    -0.443314862810     0.059235854591    12.000000000000
           H          1.724754851941    -0.446707862810    -1.445020145409     1.007825032070
           H          1.657779851941    -1.799424862810    -0.352480145409     1.007825032070
           C          3.715894851941     1.007256137190    -0.121797145409    12.000000000000
           H          3.937388851941    -1.089257862810    -0.499949145409     1.007825032070
           H          3.372010851941    -0.727058862810     1.104319854591     1.007825032070
           H          3.607929851941     1.323028137190    -1.156094145409     1.007825032070
           H          4.760538851941     1.122945137190     0.150548854591     1.007825032070
           H          3.142113851941     1.691355137190     0.494601854591     1.007825032070

  Charge       = 0
  Multiplicity = 1
  Basis Set: 6-31G*
  Basis Set:

    Orbital Energies (a.u.)
    -----------------------

    Doubly Occupied:

       1A    -20.550938     2A    -11.267843     3A    -11.215286
       4A    -11.212163     5A    -11.209793     6A    -11.209188
       7A    -11.207863     8A    -11.205158     9A     -1.358511
      10A     -1.085993    11A     -1.046327    12A     -0.983935
      13A     -0.912348    14A     -0.844550    15A     -0.790088
      16A     -0.773920    17A     -0.701986    18A     -0.641176
      19A     -0.634874    20A     -0.610090    21A     -0.591019
      22A     -0.577493    23A     -0.558305    24A     -0.534282
      25A     -0.517052    26A     -0.504320    27A     -0.492587
      28A     -0.476076    29A     -0.465634    30A     -0.455922
      31A     -0.450073    32A     -0.444389    33A     -0.420402

  @DF-RHF Final Energy:  -349.24559625678870

   => Energetics <=

    Nuclear Repulsion Energy =            383.8248030155321544
    One-Electron Energy =               -1234.2423191144569046
    Two-Electron Energy =                 501.1719198421353667
    DFT Exchange-Correlation Energy =       0.0000000000000000
    Empirical Dispersion Energy =           0.0000000000000000
    PCM Polarization Energy =               0.0000000000000000
    EFP Energy =                            0.0000000000000000
    Total Energy =                       -349.2455962567894403

  Mulliken Charges: (a.u.)
   Center  Symbol    Alpha    Beta     Spin     Total
       1     H     0.27986  0.27986  0.00000  0.44029
       2     O     4.37196  4.37196  0.00000 -0.74392
       3     C     2.99352  2.99352  0.00000  0.01295
       4     C     3.16226  3.16226  0.00000 -0.32451
       5     H     0.43475  0.43475  0.00000  0.13050
       6     H     0.42834  0.42834  0.00000  0.14333
       7     C     3.15436  3.15436  0.00000 -0.30871
       8     H     0.41587  0.41587  0.00000  0.16825
       9     H     0.42228  0.42228  0.00000  0.15544
      10     C     3.15415  3.15415  0.00000 -0.30830
      11     H     0.40837  0.40837  0.00000  0.18327
      12     H     0.42735  0.42735  0.00000  0.14529
      13     C     3.15214  3.15214  0.00000 -0.30429
      14     H     0.42088  0.42088  0.00000  0.15825
      15     H     0.42638  0.42638  0.00000  0.14725
      16     C     3.15216  3.15216  0.00000 -0.30432
      17     H     0.42338  0.42338  0.00000  0.15325
      18     H     0.42324  0.42324  0.00000  0.15352
      19     C     3.24099  3.24099  0.00000 -0.48199
      20     H     0.42165  0.42165  0.00000  0.15671
      21     H     0.42410  0.42410  0.00000  0.15180
      22     H     0.42201  0.42201  0.00000  0.15598
      23     H     0.42001  0.42001  0.00000  0.15998
      24     H     0.42000  0.42000  0.00000  0.15999

   Total alpha = 33.00000, Total beta = 33.00000, Total charge =  0.00000
