  ==> Input File <==

--------------------------------------------------------------------------
set {
	reference rhf
	basis cc-pvtz
}

set_num_threads( 4 )
memory 2 gb

molecule MOL {
0 1

H	 -3.262855	 1.763689	 0.640529
C	 -2.848091	 0.785116	 0.769650
C	 -1.748888	 0.461586	 0.133703
H	 -3.345460	 0.093498	 1.420869
O	 -1.189946	 -0.765863	 0.237511
H	 -1.237660	 1.149615	 -0.514672
C	 0.026572	 -0.995256	 -0.379403
C	 1.057223	 0.049888	 -0.004615
H	 -0.054361	 -1.010670	 -1.459674
H	 0.397526	 -1.952058	 -0.044198
F	 2.203233	 -0.234060	 -0.590375
F	 0.698147	 1.254887	 -0.392621
F	 1.266440	 0.094219	 1.288722

	symmetry c1
}
set optking {
	frozen_dihedral = ("
		3 5 7 9
	")
}

ee = optimize('scf')
oeprop('DIPOLE', 'QUADRUPOLE', 'MULLIKEN_CHARGES')
f=open( 'psi4out.xyz', 'w' )
f.write( "13  " )
f.write( str(ee) + "\n" )
f.write( MOL.save_string_xyz() )
f.close()
--------------------------------------------------------------------------

    Molecular point group: c1
  Charge       = 0
  Multiplicity = 1
  Basis Set: CC-PVTZ
  Basis Set:
  @DF-RHF Final Energy:  -527.73178970594245
    Total Energy =                       -527.7317897059419920
    Molecular point group: c1
  Basis Set: CC-PVTZ
  Basis Set:
  Basis Set: CC-PVTZ
  Basis Set:
  @DF-RHF Final Energy:  -527.73716663207642
    Total Energy =                       -527.7371666320764234
  Basis Set: CC-PVTZ
  Basis Set:
  Basis Set: CC-PVTZ
  Basis Set:
  @DF-RHF Final Energy:  -527.73824408422820
    Total Energy =                       -527.7382440842281994
  Basis Set: CC-PVTZ
  Basis Set:
  Basis Set: CC-PVTZ
  Basis Set:
  @DF-RHF Final Energy:  -527.73844866310981
    Total Energy =                       -527.7384486631101481
  Basis Set: CC-PVTZ
  Basis Set:
  Basis Set: CC-PVTZ
  Basis Set:
  @DF-RHF Final Energy:  -527.73850762684606
    Total Energy =                       -527.7385076268459443
  Basis Set: CC-PVTZ
  Basis Set:
  Basis Set: CC-PVTZ
  Basis Set:
  @DF-RHF Final Energy:  -527.73852377434821
    Total Energy =                       -527.7385237743485504
  Basis Set: CC-PVTZ
  Basis Set:
  Basis Set: CC-PVTZ
  Basis Set:
  @DF-RHF Final Energy:  -527.73852695102164
    Total Energy =                       -527.7385269510211856
  Basis Set: CC-PVTZ
  Basis Set:
  Charge       = 0
  Multiplicity = 1
  Basis Set: CC-PVTZ
  Basis Set:

    Orbital Energies (a.u.)
    -----------------------

    Doubly Occupied:

       1A    -26.342823     2A    -26.342653     3A    -26.340260
       4A    -20.600814     5A    -11.501270     6A    -11.318772
       7A    -11.294936     8A    -11.214969     9A     -1.752649
      10A     -1.648336    11A     -1.647742    12A     -1.439478
      13A     -1.085609    14A     -1.022317    15A     -0.933838
      16A     -0.844301    17A     -0.840854    18A     -0.836188
      19A     -0.784725    20A     -0.727542    21A     -0.720213
      22A     -0.700832    23A     -0.682066    24A     -0.669804
      25A     -0.662808    26A     -0.652713    27A     -0.645300
      28A     -0.593231    29A     -0.565146    30A     -0.527497
      31A     -0.502130    32A     -0.359896

  @DF-RHF Final Energy:  -527.73852760183604

   => Energetics <=

    Nuclear Repulsion Energy =            417.1814081731097303
    One-Electron Energy =               -1558.2364516555637692
    Two-Electron Energy =                 613.3165158806182262
    DFT Exchange-Correlation Energy =       0.0000000000000000
    Empirical Dispersion Energy =           0.0000000000000000
    PCM Polarization Energy =               0.0000000000000000
    EFP Energy =                            0.0000000000000000
    Total Energy =                       -527.7385276018358127
    Molecular point group: c1
  Basis Set: CC-PVTZ
  Basis Set:

  -Total Gradient:
     Atom            X                  Y                   Z
    ------   -----------------  -----------------  -----------------
       1       -0.000006822566     0.000011436905     0.000000063774
       2       -0.000013906414    -0.000035947407     0.000045387482
       3        0.001761244545     0.001373760557     0.003944683276
       4       -0.000003354516     0.000012045124    -0.000000196706
       5       -0.002856594356    -0.003507086435    -0.005990453456
       6        0.000005488978    -0.000015847921    -0.000004330063
       7        0.001805467850     0.007510116477     0.002052072453
       8       -0.000054391491     0.000105485846     0.000014090660
       9       -0.000716963915    -0.005342004432    -0.000060413031
      10       -0.000006689818    -0.000017934989    -0.000009410484
      11        0.000086000567    -0.000044995522    -0.000031975731
      12       -0.000011907210    -0.000039522781     0.000021494399
      13        0.000012428338    -0.000009505432     0.000018987428

  **** Optimization is complete! (in 8 steps) ****
    Final optimized geometry and variables:
    Molecular point group: c1

    Geometry (in Angstrom), charge = 0, multiplicity = 1:

    H           -3.384686686989     1.640064818120     0.546111590551
    C           -2.871596584969     0.711519759030     0.692556477583
    C           -1.957082815588     0.334562406333    -0.166235406611
    H           -3.127031596291     0.107146643132     1.540775414858
    O           -1.328197068072    -0.862277042494    -0.062630724631
    H           -1.686883984303     0.929897707224    -1.018840358512
    C           -0.057548381239    -1.016243411120    -0.592449046939
    C            0.988893691965    -0.042589838221    -0.084568825048
    H           -0.062488234826    -1.003262994422    -1.677305203369
    H            0.276648275022    -1.996326516424    -0.286865378511
    F            2.171113822454    -0.432115174417    -0.517286238887
    F            0.803926073268     1.188798699126    -0.512331265374
    F            1.028419112219    -0.005564376748     1.225069237491

  Mulliken Charges: (a.u.)
   Center  Symbol    Alpha    Beta     Spin     Total
       1     H     0.42534  0.42534  0.00000  0.14932
       2     C     3.18922  3.18922  0.00000 -0.37844
       3     C     2.96696  2.96696  0.00000  0.06607
       4     H     0.42404  0.42404  0.00000  0.15192
       5     O     4.14595  4.14595  0.00000 -0.29190
       6     H     0.43037  0.43037  0.00000  0.13926
       7     C     3.01998  3.01998  0.00000 -0.03995
       8     C     2.67987  2.67987  0.00000  0.64026
       9     H     0.45156  0.45156  0.00000  0.09687
      10     H     0.43813  0.43813  0.00000  0.12374
      11     F     4.61029  4.61029  0.00000 -0.22057
      12     F     4.61159  4.61159  0.00000 -0.22319
      13     F     4.60669  4.60669  0.00000 -0.21339

   Total alpha = 32.00000, Total beta = 32.00000, Total charge = -0.00000
