  ==> Input File <==

--------------------------------------------------------------------------
set {
	reference rhf
	basis 6-31G*
}

set_num_threads( 4 )
memory 2 gb

molecule MOL {
0 1

H	 -2.009186	 0.885615	 -4.201575
C	 -1.350972	 0.773307	 -3.358411
C	 -1.315688	 1.749583	 -2.374141
C	 -0.540837	 -0.346875	 -3.259384
H	 -1.944501	 2.617843	 -2.452158
C	 -0.469097	 1.604476	 -1.290300
H	 -0.569548	 -1.102621	 -4.023340
C	 0.307397	 -0.494248	 -2.175338
H	 -0.428581	 2.349806	 -0.519253
C	 0.345096	 0.482433	 -1.187191
H	 0.936049	 -1.359469	 -2.094651
C	 1.239129	 0.373821	 0.000060
O	 1.970282	 -0.730723	 0.000018
O	 1.298197	 1.190016	 0.865621
C	 3.377318	 -0.566646	 -0.000065
H	 3.695437	 -0.028981	 -0.881264
H	 3.789299	 -1.563704	 0.000236
H	 3.695516	 -0.028316	 0.880770

	symmetry c1
}
set optking {
	frozen_dihedral = ("
		10 12 13 15
	")
}

ee = optimize('scf')
oeprop('DIPOLE', 'QUADRUPOLE', 'MULLIKEN_CHARGES')
f=open( 'psi4out.xyz', 'w' )
f.write( "18  " )
f.write( str(ee) + "\n" )
f.write( MOL.save_string_xyz() )
f.close()
--------------------------------------------------------------------------

    Molecular point group: c1
  Charge       = 0
  Multiplicity = 1
  Basis Set: 6-31G*
  Basis Set:
  @DF-RHF Final Energy:  -457.33632278393566
    Total Energy =                       -457.3363227839355432
    Molecular point group: c1
  Basis Set: 6-31G*
  Basis Set:
  Basis Set: 6-31G*
  Basis Set:
  @DF-RHF Final Energy:  -457.33474704516647
    Total Energy =                       -457.3347470451667505
  Basis Set: 6-31G*
  Basis Set:
  Basis Set: 6-31G*
  Basis Set:
  @DF-RHF Final Energy:  -457.33694274245079
    Total Energy =                       -457.3369427424510150
  Basis Set: 6-31G*
  Basis Set:
  Basis Set: 6-31G*
  Basis Set:
  @DF-RHF Final Energy:  -457.33704325074098
    Total Energy =                       -457.3370432507413170
  Basis Set: 6-31G*
  Basis Set:
  Basis Set: 6-31G*
  Basis Set:
  @DF-RHF Final Energy:  -457.33704577975493
    Total Energy =                       -457.3370457797552717
  Basis Set: 6-31G*
  Basis Set:
  Charge       = 0
  Multiplicity = 1
  Basis Set: 6-31G*
  Basis Set:

    Orbital Energies (a.u.)
    -----------------------

    Doubly Occupied:

       1A    -20.591985     2A    -20.551747     3A    -11.379303
       4A    -11.287467     5A    -11.248173     6A    -11.247663
       7A    -11.246456     8A    -11.244248     9A    -11.239802
      10A    -11.239057    11A     -1.463216    12A     -1.365287
      13A     -1.167251    14A     -1.046417    15A     -1.027203
      16A     -0.974651    17A     -0.866351    18A     -0.836990
      19A     -0.777226    20A     -0.738034    21A     -0.683973
      22A     -0.674390    23A     -0.664389    24A     -0.635662
      25A     -0.626113    26A     -0.603933    27A     -0.596067
      28A     -0.558014    29A     -0.527076    30A     -0.518841
      31A     -0.502638    32A     -0.497794    33A     -0.458217
      34A     -0.442670    35A     -0.347317    36A     -0.343381

  @DF-RHF Final Energy:  -457.33704620994706

   => Energetics <=

    Nuclear Repulsion Energy =            494.1171982838918666
    One-Electron Energy =               -1602.4704844164602946
    Two-Electron Energy =                 651.0162399226207981
    DFT Exchange-Correlation Energy =       0.0000000000000000
    Empirical Dispersion Energy =           0.0000000000000000
    PCM Polarization Energy =               0.0000000000000000
    EFP Energy =                            0.0000000000000000
    Total Energy =                       -457.3370462099476299
    Molecular point group: c1
  Basis Set: 6-31G*
  Basis Set:

  -Total Gradient:
     Atom            X                  Y                   Z
    ------   -----------------  -----------------  -----------------
       1       -0.000004643988     0.000002485406     0.000004926934
       2       -0.000005488474     0.000041608162     0.000012642875
       3       -0.000019108185    -0.000015834605    -0.000034277487
       4        0.000030183057    -0.000016390559     0.000013832015
       5       -0.000003960427     0.000003594179    -0.000001354213
       6        0.000021097453    -0.000009719383     0.000012270281
       7       -0.000002085971     0.000000948080     0.000004213112
       8       -0.000012139046    -0.000025090126    -0.000021635418
       9       -0.000003647035     0.000002910855    -0.000004612833
      10        0.004293787476     0.002967413827    -0.002960487344
      11        0.000001856123     0.000009087978     0.000003419450
      12       -0.006192821364    -0.004357768250     0.001295950042
      13        0.001851533143     0.001366544127     0.008087912486
      14       -0.000004741444     0.000007518169     0.000014376876
      15        0.000064027312     0.000038016406    -0.006418272500
      16       -0.000010897339    -0.000008499266    -0.000004143596
      17       -0.000004536269     0.000002134924    -0.000001057271
      18        0.000001584977    -0.000008959924    -0.000003703415

  **** Optimization is complete! (in 6 steps) ****
    Final optimized geometry and variables:
    Molecular point group: c1

    Geometry (in Angstrom), charge = 0, multiplicity = 1:

    H           -2.570013373550     0.535728137409    -3.014704259000
    C           -1.922692741292     0.411061228892    -2.164937040918
    C           -1.890953192096     1.380641744556    -1.172351081932
    C           -1.125284599227    -0.717178857067    -2.064732930768
    H           -2.511798330745     2.254503972846    -1.251817980210
    C           -1.059811003250     1.220300670092    -0.080189337974
    H           -1.153913531815    -1.468350165444    -2.833116872213
    C           -0.290646565154    -0.879218464577    -0.971283256168
    H           -1.022492084495     1.959811565374     0.696611973202
    C           -0.252355462309     0.091228860581     0.022579648860
    H            0.325097316481    -1.753001588176    -0.885125698420
    C            0.649019168883    -0.028821941120     1.202629808172
    O            1.410208473084    -1.135561879040     1.202004417014
    O            0.740023118383     0.801096231314     2.046286789371
    C            2.811810589911    -0.933808259961     1.207226941018
    H            3.121508468232    -0.445923228949     0.290233605264
    H            3.259170005197    -1.913778502858     1.264102456386
    H            3.110618649314    -0.340533127357     2.059117902456

  Mulliken Charges: (a.u.)
   Center  Symbol    Alpha    Beta     Spin     Total
       1     H     0.39475  0.39475  0.00000  0.21050
       2     C     3.08958  3.08958  0.00000 -0.17917
       3     C     3.10698  3.10698  0.00000 -0.21396
       4     C     3.10664  3.10664  0.00000 -0.21329
       5     H     0.39477  0.39477  0.00000  0.21046
       6     C     3.08557  3.08557  0.00000 -0.17114
       7     H     0.39577  0.39577  0.00000  0.20846
       8     C     3.08944  3.08944  0.00000 -0.17888
       9     H     0.37594  0.37594  0.00000  0.24813
      10     C     3.07846  3.07846  0.00000 -0.15692
      11     H     0.38165  0.38165  0.00000  0.23671
      12     C     2.58569  2.58569  0.00000  0.82862
      13     O     4.32285  4.32285  0.00000 -0.64571
      14     O     4.27156  4.27156  0.00000 -0.54313
      15     C     3.09479  3.09479  0.00000 -0.18957
      16     H     0.41766  0.41766  0.00000  0.16468
      17     H     0.40568  0.40568  0.00000  0.18863
      18     H     0.40221  0.40221  0.00000  0.19557

   Total alpha = 36.00000, Total beta = 36.00000, Total charge = -0.00000
