  ==> Input File <==

--------------------------------------------------------------------------
set {
	reference rhf
	basis 6-31G*
}

set_num_threads( 4 )
memory 2 gb

molecule MOL {
0 1

H	 -2.422191	 -0.466275	 0.860157
O	 -2.315789	 -0.143634	 -0.024262
C	 -0.945151	 -0.064130	 -0.333158
H	 -0.813375	 -0.223047	 -1.403232
C	 -0.232801	 -1.184051	 0.407206
C	 -0.355424	 1.302939	 0.054523
H	 -0.318824	 -0.992899	 1.473524
H	 -0.742411	 -2.122033	 0.217954
C	 1.248522	 -1.270719	 -0.013048
H	 -0.546144	 2.018388	 -0.742941
H	 -0.890929	 1.656788	 0.930149
C	 1.156425	 1.235120	 0.355905
H	 1.825384	 -1.683246	 0.809111
H	 1.357782	 -1.965923	 -0.840362
C	 1.828244	 0.099899	 -0.419275
H	 1.626109	 2.185622	 0.123525
H	 1.309438	 1.071213	 1.419539
H	 2.901447	 0.112642	 -0.255830
H	 1.681817	 0.263413	 -1.484607

	symmetry c1
}
set optking {
	frozen_dihedral = ("
		1 2 3 4
	")
}

ee = optimize('scf')
oeprop('DIPOLE', 'QUADRUPOLE', 'MULLIKEN_CHARGES')
f=open( 'psi4out.xyz', 'w' )
f.write( "19  " )
f.write( str(ee) + "\n" )
f.write( MOL.save_string_xyz() )
f.close()
--------------------------------------------------------------------------

    Molecular point group: c1
  Charge       = 0
  Multiplicity = 1
  Basis Set: 6-31G*
  Basis Set:
  @DF-RHF Final Energy:  -309.04544983696718
    Total Energy =                       -309.0454498369675775
    Molecular point group: c1
  Basis Set: 6-31G*
  Basis Set:
  Basis Set: 6-31G*
  Basis Set:
  @DF-RHF Final Energy:  -309.04694393627386
    Total Energy =                       -309.0469439362735784
  Basis Set: 6-31G*
  Basis Set:
  Basis Set: 6-31G*
  Basis Set:
  @DF-RHF Final Energy:  -309.04729588064305
    Total Energy =                       -309.0472958806427641
  Basis Set: 6-31G*
  Basis Set:
  Basis Set: 6-31G*
  Basis Set:
  @DF-RHF Final Energy:  -309.04730214697884
    Total Energy =                       -309.0473021469788364
  Basis Set: 6-31G*
  Basis Set:
  Charge       = 0
  Multiplicity = 1
  Basis Set: 6-31G*
  Basis Set:

    Orbital Energies (a.u.)
    -----------------------

    Doubly Occupied:

       1A    -20.548787     2A    -11.268796     3A    -11.220976
       4A    -11.218927     5A    -11.217861     6A    -11.216807
       7A    -11.210214     8A     -1.358106     9A     -1.110469
      10A     -1.004763    11A     -0.988747    12A     -0.850548
      13A     -0.836571    14A     -0.750633    15A     -0.670568
      16A     -0.668435    17A     -0.620939    18A     -0.595056
      19A     -0.581023    20A     -0.557403    21A     -0.532129
      22A     -0.521625    23A     -0.501775    24A     -0.492575
      25A     -0.464022    26A     -0.449767    27A     -0.430554
      28A     -0.408780

  @DF-RHF Final Energy:  -309.04730291940228

   => Energetics <=

    Nuclear Repulsion Energy =            331.1954216057064855
    One-Electron Energy =               -1075.8917395538467190
    Two-Electron Energy =                 435.6490150287380629
    DFT Exchange-Correlation Energy =       0.0000000000000000
    Empirical Dispersion Energy =           0.0000000000000000
    PCM Polarization Energy =               0.0000000000000000
    EFP Energy =                            0.0000000000000000
    Total Energy =                       -309.0473029194021137
    Molecular point group: c1
  Basis Set: 6-31G*
  Basis Set:

  -Total Gradient:
     Atom            X                  Y                   Z
    ------   -----------------  -----------------  -----------------
       1       -0.000063971984    -0.002051871176    -0.000769982004
       2        0.000090487906     0.002128476901     0.001006666238
       3       -0.000140884247     0.001725184509    -0.000483082619
       4        0.000112430472    -0.001835302563     0.000300622720
       5       -0.000028067236     0.000009230217    -0.000028517948
       6        0.000054307816    -0.000015329920     0.000012435527
       7        0.000002674365    -0.000006923854    -0.000024441026
       8        0.000003765305    -0.000007017919     0.000009199858
       9       -0.000009803579    -0.000007720177     0.000053346469
      10        0.000023346299     0.000024108726    -0.000017737894
      11        0.000000246163    -0.000008083456    -0.000017628956
      12       -0.000024995679     0.000035681991    -0.000023733488
      13        0.000021364613    -0.000025545244    -0.000004196597
      14       -0.000016763550     0.000005155563    -0.000002461878
      15       -0.000008421426     0.000022371585    -0.000024048760
      16       -0.000005085685     0.000013972297     0.000017995454
      17       -0.000004804131    -0.000000150042     0.000001691197
      18       -0.000011770810    -0.000012624602     0.000000821194
      19        0.000005945388     0.000006387165    -0.000006947486

  **** Optimization is complete! (in 5 steps) ****
    Final optimized geometry and variables:
    Molecular point group: c1

    Geometry (in Angstrom), charge = 0, multiplicity = 1:

    H           -2.515529198310    -0.410970412842     0.777977023420
    O           -2.340303523017    -0.092368258759    -0.096602596812
    C           -0.949963709076    -0.064597852672    -0.318592705089
    H           -0.833304789250    -0.232139579968    -1.383577721063
    C           -0.220542492324    -1.188579892642     0.410695142735
    C           -0.359204196967     1.301783929920     0.064247181886
    H           -0.288355439742    -1.008078894130     1.483626823820
    H           -0.721809843332    -2.132378758112     0.219541025411
    C            1.259419860780    -1.265671722866    -0.018744226675
    H           -0.572261254064     2.011858809323    -0.728929382846
    H           -0.885757092586     1.659646901891     0.944406245630
    C            1.156424736181     1.239790306295     0.346287575930
    H            1.846364248006    -1.668170300950     0.801165593434
    H            1.365428172152    -1.965168353600    -0.842395578458
    C            1.822098104744     0.107550666328    -0.438417062768
    H            1.620026122543     2.191693777076     0.107598572060
    H            1.328146880949     1.076485545418     1.407787760801
    H            2.897945445434     0.125117137990    -0.294448844289
    H            1.654963903412     0.266888145766    -1.501072025955

  Mulliken Charges: (a.u.)
   Center  Symbol    Alpha    Beta     Spin     Total
       1     H     0.28304  0.28304  0.00000  0.43391
       2     O     4.38131  4.38131  0.00000 -0.76263
       3     C     2.90151  2.90151  0.00000  0.19699
       4     H     0.41827  0.41827  0.00000  0.16346
       5     C     3.18672  3.18672  0.00000 -0.37345
       6     C     3.16186  3.16186  0.00000 -0.32372
       7     H     0.42579  0.42579  0.00000  0.14842
       8     H     0.41097  0.41097  0.00000  0.17806
       9     C     3.15808  3.15808  0.00000 -0.31617
      10     H     0.41488  0.41488  0.00000  0.17024
      11     H     0.42013  0.42013  0.00000  0.15974
      12     C     3.16528  3.16528  0.00000 -0.33057
      13     H     0.41770  0.41770  0.00000  0.16461
      14     H     0.41653  0.41653  0.00000  0.16694
      15     C     3.16457  3.16457  0.00000 -0.32915
      16     H     0.41575  0.41575  0.00000  0.16849
      17     H     0.42155  0.42155  0.00000  0.15689
      18     H     0.41619  0.41619  0.00000  0.16763
      19     H     0.41986  0.41986  0.00000  0.16028

   Total alpha = 28.00000, Total beta = 28.00000, Total charge =  0.00000
