                              Psi4 1.0.54 Driver

  ==> Input File <==

--------------------------------------------------------------------------
set {
	reference rhf
	basis cc-pvtz
}

set_num_threads( 4 )
memory 2 gb

molecule MOL {
0 1

H	 -0.090691	 3.910894	 1.306571
O	 -0.183243	 3.763519	 0.383199
C	 -0.166196	 2.390893	 0.107978
C	 1.229227	 1.814352	 0.242839
H	 -0.848674	 1.846143	 0.752648
H	 -0.509039	 2.268893	 -0.909498
O	 1.172093	 0.457955	 -0.054438
H	 1.598983	 1.968248	 1.257971
H	 1.904504	 2.335039	 -0.432779
C	 2.395478	 -0.199028	 -0.000366
H	 2.505946	 -0.901710	 -0.823354
H	 3.174616	 0.545641	 -0.071768
H	 2.513730	 -0.742241	 0.934223

	symmetry c1
}
set optking {
	frozen_dihedral = ("
		4 7 10 13
	")
}

ee,wfn = optimize('scf', return_wfn=True)
oeprop( wfn, 'DIPOLE', 'QUADRUPOLE', 'MULLIKEN_CHARGES')
f=open( 'psi4out.xyz', 'w' )
f.write( "13  " )
f.write( str(ee) + "\n" )
f.write( MOL.save_string_xyz() )
f.close()
--------------------------------------------------------------------------

    Molecular point group: c1
  Charge       = 0
  Multiplicity = 1
  Basis Set: CC-PVTZ
  Basis Set:
  @DF-RHF Final Energy:  -268.05854055261341
    Total Energy =                       -268.0585405526135787
    Molecular point group: c1
  Basis Set: CC-PVTZ
  Basis Set:
  Basis Set: CC-PVTZ
  Basis Set:
  @DF-RHF Final Energy:  -268.05941519597013
    Total Energy =                       -268.0594151959703595
  Basis Set: CC-PVTZ
  Basis Set:
  Basis Set: CC-PVTZ
  Basis Set:
  @DF-RHF Final Energy:  -268.05968251619834
    Total Energy =                       -268.0596825161983361
  Basis Set: CC-PVTZ
  Basis Set:
  Charge       = 0
  Multiplicity = 1
  Basis Set: CC-PVTZ
  Basis Set:

    Orbital Energies (a.u.)
    -----------------------

    Doubly Occupied:

       1A    -20.553508     2A    -20.552613     3A    -11.269634
       4A    -11.267360     5A    -11.267057     6A     -1.388816
       7A     -1.368624     8A     -1.019581     9A     -0.914168
      10A     -0.842439    11A     -0.711572    12A     -0.674127
      13A     -0.660693    14A     -0.639611    15A     -0.597109
      16A     -0.571317    17A     -0.548847    18A     -0.491749
      19A     -0.483082    20A     -0.441252    21A     -0.420405

  @DF-RHF Final Energy:  -268.05968446335771

   => Energetics <=

    Nuclear Repulsion Energy =            190.2463774126565852
    One-Electron Energy =                -743.2449962525419096
    Two-Electron Energy =                 284.9389343765274702
    DFT Exchange-Correlation Energy =       0.0000000000000000
    Empirical Dispersion Energy =           0.0000000000000000
    PCM Polarization Energy =               0.0000000000000000
    EFP Energy =                            0.0000000000000000
    Total Energy =                       -268.0596844633578826
    Molecular point group: c1
  Basis Set: CC-PVTZ
  Basis Set:

  -Total Gradient:
     Atom            X                  Y                   Z
    ------   -----------------  -----------------  -----------------
       1       -0.000001541144     0.000003557232    -0.000000769795
       2        0.000003705750     0.000014035292    -0.000000704408
       3       -0.000005494220    -0.000006777464     0.000003248933
       4        0.000309213657     0.000465920105    -0.001955892289
       5       -0.000000365951    -0.000003057741    -0.000003807999
       6       -0.000005188334    -0.000001833622     0.000001654164
       7       -0.000628100308    -0.001284943603     0.002637036225
       8       -0.000003321931    -0.000016330399    -0.000016688315
       9        0.000002701883    -0.000033380980    -0.000010438760
      10        0.001425102531     0.002955267995     0.000376597285
      11        0.000019694219    -0.000044270670     0.000008917573
      12        0.000053815737    -0.000010784951     0.000005902931
      13       -0.001170221886    -0.002037401197    -0.001045055544

  **** Optimization is complete! (in 4 steps) ****
    Final optimized geometry and variables:
    Molecular point group: c1

    Geometry (in Angstrom), charge = 0, multiplicity = 1:

    H           -0.975744173114     2.265305029015     1.129594902847
    O           -1.066882690273     2.105659832531     0.208117959859
    C           -1.050970152544     0.729249861497    -0.048347765518
    C            0.343600711892     0.153518640040     0.097121842179
    H           -1.735750984169     0.194210434378     0.601941453631
    H           -1.391292267041     0.593451341819    -1.064953326663
    O            0.283420260779    -1.205296673386    -0.191831872324
    H            0.707354266718     0.319147248587     1.112568326943
    H            1.020521189041     0.667163734620    -0.581077059088
    C            1.493804271610    -1.894433539233    -0.137801231970
    H            1.511678945839    -2.618903212749    -0.941638487375
    H            2.344413733081    -1.231208077106    -0.255286303046
    H            1.588991787299    -2.432860922508     0.800409551500

  Mulliken Charges: (a.u.)
   Center  Symbol    Alpha    Beta     Spin     Total
       1     H     0.39420  0.39420  0.00000  0.21160
       2     O     4.20210  4.20210  0.00000 -0.40420
       3     C     2.97468  2.97468  0.00000  0.05065
       4     C     2.96516  2.96516  0.00000  0.06967
       5     H     0.46671  0.46671  0.00000  0.06658
       6     H     0.45295  0.45295  0.00000  0.09410
       7     O     4.17907  4.17907  0.00000 -0.35814
       8     H     0.48249  0.48249  0.00000  0.03501
       9     H     0.46870  0.46870  0.00000  0.06260
      10     C     3.02887  3.02887  0.00000 -0.05775
      11     H     0.45151  0.45151  0.00000  0.09699
      12     H     0.47139  0.47139  0.00000  0.05721
      13     H     0.46217  0.46217  0.00000  0.07565

   Total alpha = 21.00000, Total beta = 21.00000, Total charge = -0.00000

*** Psi4 exiting successfully. Buy a developer a beer!
