  ==> Input File <==

--------------------------------------------------------------------------
set {
	reference rhf
	basis cc-pvtz
}

set_num_threads( 4 )
memory 2 gb

molecule MOL {
0 1

H	 -0.939693	 0.000281	 1.681345
O	 -0.046262	 -0.000157	 1.387678
C	 -0.000837	 0.000006	 -0.025491
C	 -0.233459	 1.417659	 -0.544428
C	 1.352002	 -0.532693	 -0.493683
C	 -1.126187	 -0.926241	 -0.465765
H	 -0.240112	 1.443372	 -1.627982
H	 0.550671	 2.086297	 -0.202180
H	 -1.181295	 1.798014	 -0.184708
H	 1.403358	 -0.578430	 -1.575376
H	 2.157964	 0.109127	 -0.150805
H	 1.521191	 -1.526380	 -0.098176
H	 -1.172286	 -0.991880	 -1.546439
H	 -2.077414	 -0.559684	 -0.101053
H	 -0.971415	 -1.920283	 -0.065589

	symmetry c1
}
set optking {
	frozen_dihedral = ("
		4 3 2 1
	")
}

ee = optimize('scf')
oeprop('DIPOLE', 'QUADRUPOLE', 'MULLIKEN_CHARGES')
f=open( 'psi4out.xyz', 'w' )
f.write( "15  " )
f.write( str(ee) + "\n" )
f.write( MOL.save_string_xyz() )
f.close()
--------------------------------------------------------------------------

    Molecular point group: c1
  Charge       = 0
  Multiplicity = 1
  Basis Set: CC-PVTZ
  Basis Set:
  @DF-RHF Final Energy:  -232.24417826262410
    Total Energy =                       -232.2441782626242457
    Molecular point group: c1
  Basis Set: CC-PVTZ
  Basis Set:
  Basis Set: CC-PVTZ
  Basis Set:
  @DF-RHF Final Energy:  -232.24592061169352
    Total Energy =                       -232.2459206116933501
  Basis Set: CC-PVTZ
  Basis Set:
  Basis Set: CC-PVTZ
  Basis Set:
  @DF-RHF Final Energy:  -232.24632596444025
    Total Energy =                       -232.2463259644404161
  Basis Set: CC-PVTZ
  Basis Set:
  Charge       = 0
  Multiplicity = 1
  Basis Set: CC-PVTZ
  Basis Set:

    Orbital Energies (a.u.)
    -----------------------

    Doubly Occupied:

       1A    -20.541772     2A    -11.280795     3A    -11.212652
       4A    -11.206318     5A    -11.203562     6A     -1.364539
       7A     -1.065298     8A     -0.944034     9A     -0.938566
      10A     -0.778512    11A     -0.672515    12A     -0.624241
      13A     -0.622845    14A     -0.576242    15A     -0.557549
      16A     -0.532981    17A     -0.517020    18A     -0.511303
      19A     -0.504310    20A     -0.458546    21A     -0.428340

  @DF-RHF Final Energy:  -232.24632576501480

   => Energetics <=

    Nuclear Repulsion Energy =            200.6644933974037315
    One-Electron Energy =                -712.7377517095401345
    Two-Electron Energy =                 279.8269325471217144
    DFT Exchange-Correlation Energy =       0.0000000000000000
    Empirical Dispersion Energy =           0.0000000000000000
    PCM Polarization Energy =               0.0000000000000000
    EFP Energy =                            0.0000000000000000
    Total Energy =                       -232.2463257650147170
    Molecular point group: c1
  Basis Set: CC-PVTZ
  Basis Set:

  -Total Gradient:
     Atom            X                  Y                   Z
    ------   -----------------  -----------------  -----------------
       1       -0.000099135714    -0.001574355464     0.000067577566
       2        0.000504358457     0.001988167495    -0.000358654861
       3       -0.001267441532    -0.000429354535    -0.000100154596
       4        0.000979792174     0.000135378802     0.000126831464
       5        0.000018403904     0.000025528403     0.000238387278
       6       -0.000078156597    -0.000103949880    -0.000053939537
       7       -0.000151107516    -0.000082160049     0.000054847736
       8        0.000089768079    -0.000134479927    -0.000014335260
       9       -0.000011143409     0.000141497729     0.000036104552
      10       -0.000033279865    -0.000104690230    -0.000013850406
      11       -0.000064098843     0.000027418468    -0.000028161178
      12        0.000125891584     0.000032547243     0.000050114492
      13        0.000057111079     0.000092033165     0.000044590004
      14       -0.000106759239    -0.000006941973    -0.000041502728
      15        0.000035797442    -0.000006639248    -0.000007854525

  **** Optimization is complete! (in 4 steps) ****
    Final optimized geometry and variables:
    Molecular point group: c1

    Geometry (in Angstrom), charge = 0, multiplicity = 1:

    H           -0.823266418363     0.059482898566     1.743816821510
    O            0.046033753629     0.024716641786     1.387912051481
    C           -0.004001376088     0.001424316869    -0.025537005010
    C           -0.225455293307     1.421521539812    -0.542560500153
    C            1.355306457685    -0.522112820521    -0.471275582167
    C           -1.120541989072    -0.929916897467    -0.490561199750
    H           -0.246716402556     1.447594592621    -1.626222392982
    H            0.568806951993     2.070546911311    -0.196515102126
    H           -1.167380532927     1.820008726888    -0.179571962381
    H            1.422202006051    -0.557033239364    -1.552455118001
    H            2.142315640851     0.121203958081    -0.098480151426
    H            1.521477997258    -1.518334432219    -0.081269433000
    H           -1.152879087546    -0.989618027697    -1.571734158852
    H           -2.088960435434    -0.572435549187    -0.151971462538
    H           -0.969387851267    -1.927390326536    -0.096103026595

  Mulliken Charges: (a.u.)
   Center  Symbol    Alpha    Beta     Spin     Total
       1     H     0.39498  0.39498  0.00000  0.21005
       2     O     4.21203  4.21203  0.00000 -0.42407
       3     C     2.87838  2.87838  0.00000  0.24323
       4     C     3.14650  3.14650  0.00000 -0.29299
       5     C     3.14238  3.14238  0.00000 -0.28477
       6     C     3.15420  3.15420  0.00000 -0.30840
       7     H     0.45721  0.45721  0.00000  0.08559
       8     H     0.44781  0.44781  0.00000  0.10437
       9     H     0.45509  0.45509  0.00000  0.08982
      10     H     0.45902  0.45902  0.00000  0.08196
      11     H     0.44755  0.44755  0.00000  0.10490
      12     H     0.44983  0.44983  0.00000  0.10034
      13     H     0.45360  0.45360  0.00000  0.09279
      14     H     0.45586  0.45586  0.00000  0.08827
      15     H     0.44555  0.44555  0.00000  0.10890

   Total alpha = 21.00000, Total beta = 21.00000, Total charge = -0.00000
