                              Psi4 1.0.54 Driver

  ==> Input File <==

--------------------------------------------------------------------------
set {
	reference rhf
	basis cc-pvtz
}

set_num_threads( 4 )
memory 2 gb

molecule MOL {
0 1

O	 0.074770	 1.259872	 0.000487
C	 0.029490	 0.077183	 0.000078
C	 -1.232113	 -0.748027	 0.000015
O	 1.106773	 -0.690081	 -0.000204
C	 -2.501422	 0.088592	 -0.000052
H	 -1.188777	 -1.400384	 -0.865133
H	 -1.188857	 -1.400312	 0.865225
H	 -2.548170	 0.725504	 -0.873205
H	 -3.371613	 -0.556398	 -0.000040
H	 -2.548215	 0.725571	 0.873047
C	 1.761925	 -0.889206	 1.236229
H	 2.104399	 0.051180	 1.641965
H	 2.601336	 -1.532608	 1.028265
H	 1.099002	 -1.359298	 1.947420

	symmetry c1
}
set optking {
	frozen_dihedral = ("
		11 4 2 3
	")
}

ee,wfn = optimize('scf', return_wfn=True)
oeprop( wfn, 'DIPOLE', 'QUADRUPOLE', 'MULLIKEN_CHARGES')
f=open( 'psi4out.xyz', 'w' )
f.write( "14  " )
f.write( str(ee) + "\n" )
f.write( MOL.save_string_xyz() )
f.close()
--------------------------------------------------------------------------

    Molecular point group: c1
  Charge       = 0
  Multiplicity = 1
  Basis Set: CC-PVTZ
  Basis Set:
  @DF-RHF Final Energy:  -305.96837899167144
    Total Energy =                       -305.9683789916715000
    Molecular point group: c1
  Basis Set: CC-PVTZ
  Basis Set:
  Basis Set: CC-PVTZ
  Basis Set:
  @DF-RHF Final Energy:  -305.96912834239731
    Total Energy =                       -305.9691283423973687
  Basis Set: CC-PVTZ
  Basis Set:
  Basis Set: CC-PVTZ
  Basis Set:
  @DF-RHF Final Energy:  -305.96847946382121
    Total Energy =                       -305.9684794638212679
  Basis Set: CC-PVTZ
  Basis Set:
  Basis Set: CC-PVTZ
  Basis Set:
  @DF-RHF Final Energy:  -305.96937646731396
    Total Energy =                       -305.9693764673139640
  Basis Set: CC-PVTZ
  Basis Set:
  Basis Set: CC-PVTZ
  Basis Set:
  @DF-RHF Final Energy:  -305.96940181396218
    Total Energy =                       -305.9694018139623495
  Basis Set: CC-PVTZ
  Basis Set:
  Charge       = 0
  Multiplicity = 1
  Basis Set: CC-PVTZ
  Basis Set:

    Orbital Energies (a.u.)
    -----------------------

    Doubly Occupied:

       1A    -20.578609     2A    -20.546675     3A    -11.368642
       4A    -11.288413     5A    -11.241641     6A    -11.217936
       7A     -1.463139     8A     -1.370281     9A     -1.064493
      10A     -0.976187    11A     -0.891724    12A     -0.767578
      13A     -0.702714    14A     -0.680848    15A     -0.674118
      16A     -0.621961    17A     -0.617514    18A     -0.556902
      19A     -0.545333    20A     -0.525760    21A     -0.511592
      22A     -0.496138    23A     -0.459022    24A     -0.440490

  @DF-RHF Final Energy:  -305.96940333091845

   => Energetics <=

    Nuclear Repulsion Energy =            247.1341906553542742
    One-Electron Energy =                -906.9917671489687336
    Two-Electron Energy =                 353.8881731626958640
    DFT Exchange-Correlation Energy =       0.0000000000000000
    Empirical Dispersion Energy =           0.0000000000000000
    PCM Polarization Energy =               0.0000000000000000
    EFP Energy =                            0.0000000000000000
    Total Energy =                       -305.9694033309186239
    Molecular point group: c1
  Basis Set: CC-PVTZ
  Basis Set:

  -Total Gradient:
     Atom            X                  Y                   Z
    ------   -----------------  -----------------  -----------------
       1       -0.000046668582     0.000015251241    -0.000004926976
       2       -0.000879373654    -0.001494819983    -0.004920486399
       3        0.000037942096    -0.000010007185     0.003640728562
       4        0.003165522445     0.004785415124     0.000637487224
       5       -0.000020995115     0.000011785432    -0.000006634598
       6       -0.000006258296    -0.000020427919    -0.000000219064
       7        0.000004034496    -0.000019238878    -0.000006278077
       8       -0.000000165757    -0.000002935269     0.000010241085
       9       -0.000001911732     0.000002626962     0.000000953776
      10       -0.000000797770    -0.000004023480    -0.000009211652
      11       -0.002277661613    -0.003246559945     0.000669974333
      12        0.000000693243    -0.000013538711    -0.000026758491
      13        0.000000012138     0.000005200419     0.000004266568
      14        0.000025628103    -0.000008727808     0.000010863707

  **** Optimization is complete! (in 6 steps) ****
    Final optimized geometry and variables:
    Molecular point group: c1

    Geometry (in Angstrom), charge = 0, multiplicity = 1:

    O            0.190727904852     1.397217327874    -0.173345706728
    C            0.130616128150     0.222998978973    -0.212846968371
    C           -1.144472986556    -0.578128253010    -0.242007016700
    O            1.239010642100    -0.546957601817    -0.222274121542
    C           -2.405697145124     0.269780601476    -0.265241011920
    H           -1.090696371569    -1.236137605096    -1.102740523710
    H           -1.124712414217    -1.231828116715     0.624897621724
    H           -2.427612615233     0.907189335114    -1.139048808125
    H           -3.282958664532    -0.365253406519    -0.283283562185
    H           -2.462653858434     0.907382699462     0.606843790390
    C            1.871309228338    -0.755850654582     1.020647069578
    H            2.173843938263     0.185474192183     1.459728314734
    H            2.742103403031    -1.361214324405     0.828584669640
    H            1.216383605498    -1.283835367688     1.705170227613

  Mulliken Charges: (a.u.)
   Center  Symbol    Alpha    Beta     Spin     Total
       1     O     4.17070  4.17070  0.00000 -0.34139
       2     C     2.79030  2.79030  0.00000  0.41940
       3     C     3.10288  3.10288  0.00000 -0.20575
       4     O     4.16978  4.16978  0.00000 -0.33957
       5     C     3.13883  3.13883  0.00000 -0.27767
       6     H     0.43904  0.43904  0.00000  0.12192
       7     H     0.44596  0.44596  0.00000  0.10808
       8     H     0.44670  0.44670  0.00000  0.10660
       9     H     0.45047  0.45047  0.00000  0.09907
      10     H     0.44855  0.44855  0.00000  0.10290
      11     C     3.03378  3.03378  0.00000 -0.06757
      12     H     0.45199  0.45199  0.00000  0.09602
      13     H     0.44332  0.44332  0.00000  0.11335
      14     H     0.46770  0.46770  0.00000  0.06461

   Total alpha = 24.00000, Total beta = 24.00000, Total charge = -0.00000

*** Psi4 exiting successfully. Buy a developer a beer!
