                              Psi4 1.0.54 Driver

  ==> Input File <==

--------------------------------------------------------------------------
set {
	reference rhf
	basis cc-pvtz
}

set_num_threads( 4 )
memory 2 gb

molecule MOL {
0 1

H	 -2.243521	 -1.037587	 -1.214041
C	 -2.743588	 -0.077537	 -1.401451
C	 -2.653809	 0.914422	 -0.273689
O	 -3.304969	 0.106966	 -2.425227
C	 -1.216901	 1.136108	 0.207794
H	 -3.115428	 1.840217	 -0.591721
H	 -3.246044	 0.509150	 0.543818
C	 -0.247837	 0.040196	 -0.230469
H	 -0.872882	 2.093195	 -0.169002
H	 -1.209325	 1.218376	 1.291938
C	 1.181757	 0.280428	 0.247371
H	 -0.259600	 -0.030819	 -1.314870
H	 -0.591284	 -0.923375	 0.136958
C	 2.151032	 -0.811012	 -0.202643
H	 1.515939	 1.247397	 -0.115449
H	 1.191514	 0.341223	 1.333422
C	 3.580021	 -0.656538	 0.320835
H	 2.170545	 -0.847575	 -1.289412
H	 1.766632	 -1.772905	 0.124928
C	 4.327657	 0.562694	 -0.213579
H	 4.138806	 -1.549270	 0.057813
H	 3.561991	 -0.620783	 1.406976
H	 4.355973	 0.557257	 -1.298551
H	 3.867136	 1.491650	 0.100501
H	 5.351524	 0.571613	 0.142204

	symmetry c1
}
set optking {
	frozen_dihedral = ("
		6 3 5 8
	")
}

ee,wfn = optimize('scf', return_wfn=True)
oeprop( wfn, 'DIPOLE', 'QUADRUPOLE', 'MULLIKEN_CHARGES')
f=open( 'psi4out.xyz', 'w' )
f.write( "25  " )
f.write( str(ee) + "\n" )
f.write( MOL.save_string_xyz() )
f.close()
--------------------------------------------------------------------------

    Molecular point group: c1
  Charge       = 0
  Multiplicity = 1
  Basis Set: CC-PVTZ
  Basis Set:
  @DF-RHF Final Energy:  -387.25044961825802
    Total Energy =                       -387.2504496182580169
    Molecular point group: c1
  Basis Set: CC-PVTZ
  Basis Set:
  Basis Set: CC-PVTZ
  Basis Set:
  @DF-RHF Final Energy:  -386.03546136409039
    Total Energy =                       -386.0354613640904518
  Basis Set: CC-PVTZ
  Basis Set:
  Basis Set: CC-PVTZ
  Basis Set:
  @DF-RHF Final Energy:  -386.28587631909789
    Total Energy =                       -386.2858763190973832
  Basis Set: CC-PVTZ
  Basis Set:
  Basis Set: CC-PVTZ
  Basis Set:
  @DF-RHF Final Energy:  -386.74099500750054
    Total Energy =                       -386.7409950075002598
  Basis Set: CC-PVTZ
  Basis Set:
  @DF-RHF Final Energy:  -387.03577180321986
    Total Energy =                       -387.0357718032195180
  @DF-RHF Final Energy:  -387.19515088160756
    Total Energy =                       -387.1951508816077876
  @DF-RHF Final Energy:  -387.24630424694328
    Total Energy =                       -387.2463042469429411
  @DF-RHF Final Energy:  -387.25183306412907
    Total Energy =                       -387.2518330641287321
  @DF-RHF Final Energy:  -387.24700966054104
    Total Energy =                       -387.2470096605410390
  @DF-RHF Final Energy:  -387.25308097271466
    Total Energy =                       -387.2530809727148835
  @DF-RHF Final Energy:  -387.25346051197783
    Total Energy =                       -387.2534605119773232
  @DF-RHF Final Energy:  -387.25350761451284
    Total Energy =                       -387.2535076145130688
  @DF-RHF Final Energy:  -387.25354565952767
    Total Energy =                       -387.2535456595276173
  Basis Set: CC-PVTZ
  Basis Set:
  @DF-RHF Final Energy:  -387.25355591199241
    Total Energy =                       -387.2535559119924073
  Basis Set: CC-PVTZ
  Basis Set:
  Basis Set: CC-PVTZ
  Basis Set:
  @DF-RHF Final Energy:  -387.25355787775510
    Total Energy =                       -387.2535578777547016
  Basis Set: CC-PVTZ
  Basis Set:
  Basis Set: CC-PVTZ
  Basis Set:
  @DF-RHF Final Energy:  -387.25355953002111
    Total Energy =                       -387.2535595300208797
  Basis Set: CC-PVTZ
  Basis Set:
  Charge       = 0
  Multiplicity = 1
  Basis Set: CC-PVTZ
  Basis Set:

    Orbital Energies (a.u.)
    -----------------------

    Doubly Occupied:

       1A    -20.549998     2A    -11.319297     3A    -11.233363
       4A    -11.232775     5A    -11.225095     6A    -11.218999
       7A    -11.217237     8A    -11.216432     9A    -11.209103
      10A     -1.404726    11A     -1.104471    12A     -1.068844
      13A     -1.013931    14A     -0.944015    15A     -0.878182
      16A     -0.832238    17A     -0.783756    18A     -0.771747
      19A     -0.682021    20A     -0.655706    21A     -0.631641
      22A     -0.622492    23A     -0.613286    24A     -0.587581
      25A     -0.574432    26A     -0.560236    27A     -0.535575
      28A     -0.525251    29A     -0.511467    30A     -0.499485
      31A     -0.491425    32A     -0.474314    33A     -0.466504
      34A     -0.460773    35A     -0.444661    36A     -0.409048

  @DF-RHF Final Energy:  -387.25355962973066

   => Energetics <=

    Nuclear Repulsion Energy =            441.0757937759879610
    One-Electron Energy =               -1398.7184912880438787
    Two-Electron Energy =                 570.3891378823255991
    DFT Exchange-Correlation Energy =       0.0000000000000000
    Empirical Dispersion Energy =           0.0000000000000000
    PCM Polarization Energy =               0.0000000000000000
    EFP Energy =                            0.0000000000000000
    Total Energy =                       -387.2535596297303755
    Molecular point group: c1
  Basis Set: CC-PVTZ
  Basis Set:

  -Total Gradient:
     Atom            X                  Y                   Z
    ------   -----------------  -----------------  -----------------
       1       -0.000000793873    -0.000000643847    -0.000002412973
       2       -0.000003338988     0.000008995742    -0.000006586293
       3       -0.001907101295     0.001775338755     0.003523956930
       4       -0.000004051395    -0.000010746978     0.000006391203
       5       -0.003170968426    -0.001739394003     0.001429137887
       6        0.002467595668    -0.001062885138    -0.003383937386
       7       -0.000008994562     0.000001372826    -0.000005081374
       8        0.002624080693     0.001038149291    -0.001557665201
       9        0.000003432038    -0.000006834931    -0.000004165210
      10        0.000000910921    -0.000000752675     0.000011708289
      11       -0.000003770118     0.000007690962    -0.000018704792
      12        0.000011471014    -0.000004530109    -0.000001223776
      13       -0.000003485213     0.000005595279    -0.000006785964
      14        0.000000367660    -0.000009455373     0.000017303049
      15        0.000005343399    -0.000001310444     0.000000846316
      16       -0.000000736041    -0.000000744433     0.000007150318
      17        0.000000595832     0.000005373656    -0.000004954688
      18        0.000000601401     0.000002193887    -0.000009989432
      19       -0.000001618557     0.000001326592     0.000001262912
      20       -0.000019215018    -0.000009198650    -0.000003776915
      21        0.000005032979    -0.000003523848     0.000002061285
      22       -0.000003668666    -0.000009272334     0.000006597561
      23        0.000006379499     0.000002608959    -0.000004876817
      24        0.000000985990     0.000010982986    -0.000000395270
      25        0.000000945057    -0.000000336167     0.000004140343

  **** Optimization is complete! (in 17 steps) ****
    Final optimized geometry and variables:
    Molecular point group: c1

    Geometry (in Angstrom), charge = 0, multiplicity = 1:

    H           -2.253963287865     0.923013767242    -2.053611485199
    C           -1.721184657258     1.865505941349    -1.888786697114
    C           -1.653578316275     2.347529552436    -0.461774403996
    O           -1.255500904067     2.446043439311    -2.808666512150
    C           -0.754191193535     1.489468059655     0.463424170719
    H           -1.280113192305     3.360764125761    -0.508752511104
    H           -2.671445860060     2.363273856215    -0.084116016887
    C           -0.464458139958     0.060488595082     0.001826310544
    H            0.196188752944     2.000567326202     0.568727134914
    H           -1.194757740096     1.466023505705     1.453276802382
    C            0.427994765496    -0.695346755644     0.983086261692
    H            0.018366023192     0.080706374900    -0.971057556705
    H           -1.393767523939    -0.489280581360    -0.126214517483
    C            0.739492316328    -2.119912555951     0.528270403339
    H            1.349437905122    -0.138431705198     1.119312997041
    H           -0.056983899058    -0.728320185532     1.956023493593
    C            1.563821506099    -2.943726161013     1.519091510515
    H            1.258308728171    -2.086354266555    -0.426930421884
    H           -0.197476984894    -2.638989935544     0.345516747428
    C            2.989542247255    -2.442189646308     1.735306996819
    H            1.606379480917    -3.967360649096     1.160219615255
    H            1.045483303428    -2.979734812636     2.473745725755
    H            3.530084020706    -2.388586745922     0.795725242701
    H            3.010006005872    -1.456864351821     2.185114473367
    H            3.535747303867    -3.109883226220     2.391636204003

  Mulliken Charges: (a.u.)
   Center  Symbol    Alpha    Beta     Spin     Total
       1     H     0.46032  0.46032  0.00000  0.07936
       2     C     2.90838  2.90838  0.00000  0.18325
       3     C     3.08437  3.08437  0.00000 -0.16873
       4     O     4.16715  4.16715  0.00000 -0.33430
       5     C     3.10029  3.10029  0.00000 -0.20057
       6     H     0.44093  0.44093  0.00000  0.11814
       7     H     0.44890  0.44890  0.00000  0.10221
       8     C     3.10647  3.10647  0.00000 -0.21294
       9     H     0.44631  0.44631  0.00000  0.10739
      10     H     0.44747  0.44747  0.00000  0.10506
      11     C     3.09292  3.09292  0.00000 -0.18584
      12     H     0.44482  0.44482  0.00000  0.11037
      13     H     0.45054  0.45054  0.00000  0.09892
      14     C     3.09511  3.09511  0.00000 -0.19021
      15     H     0.45047  0.45047  0.00000  0.09906
      16     H     0.45345  0.45345  0.00000  0.09309
      17     C     3.09106  3.09106  0.00000 -0.18211
      18     H     0.45225  0.45225  0.00000  0.09550
      19     H     0.44972  0.44972  0.00000  0.10057
      20     C     3.15259  3.15259  0.00000 -0.30517
      21     H     0.44778  0.44778  0.00000  0.10444
      22     H     0.45477  0.45477  0.00000  0.09046
      23     H     0.45400  0.45400  0.00000  0.09200
      24     H     0.45401  0.45401  0.00000  0.09197
      25     H     0.44595  0.44595  0.00000  0.10811

   Total alpha = 36.00000, Total beta = 36.00000, Total charge = -0.00000

*** Psi4 exiting successfully. Buy a developer a beer!
