  ==> Input File <==

--------------------------------------------------------------------------
set {
	reference rhf
	basis 6-31G*
}

set_num_threads( 1 )
memory 2 gb

molecule MOL {
0 1

O	 -0.988096	 -1.408613	 0.050699
C	 -0.676749	 -0.249230	 -0.009274
C	 -1.746085	 0.827156	 -0.009539
N	 0.623947	 0.147590	 -0.102813
H	 -1.701500	 1.431508	 -0.908902
H	 -2.703425	 0.330732	 0.036390
H	 -1.647323	 1.487769	 0.845106
C	 1.534375	 -0.197483	 0.971395
C	 1.095138	 1.171948	 -1.008857
H	 2.503725	 -0.450252	 0.556082
H	 1.146255	 -1.042665	 1.512662
H	 1.663578	 0.633120	 1.661921
H	 2.113389	 0.944962	 -1.301570
H	 0.499162	 1.212621	 -1.906683
H	 1.090986	 2.157069	 -0.545895

	symmetry c1
}
set optking {
	frozen_dihedral = ("
		2 4 8 10
	")
}

ee = energy('scf')
oeprop('DIPOLE', 'QUADRUPOLE', 'MULLIKEN_CHARGES')
f=open( 'psi4out.xyz', 'w' )
f.write( "15  " )
f.write( str(ee) + "\n" )
f.write( MOL.save_string_xyz() )
f.close()
--------------------------------------------------------------------------

    Molecular point group: c1

    Geometry (in Angstrom), charge = 0, multiplicity = 1:

       Center              X                  Y                   Z               Mass
    ------------   -----------------  -----------------  -----------------  -----------------
           O         -0.969729521904    -1.465144301996     0.066265598936    15.994914619560
           C         -0.658382521904    -0.305761301996     0.006292598936    12.000000000000
           C         -1.727718521904     0.770624698004     0.006027598936    12.000000000000
           N          0.642313478096     0.091058698004    -0.087246401064    14.003074004780
           H         -1.683133521904     1.374976698004    -0.893335401064     1.007825032070
           H         -2.685058521904     0.274200698004     0.051956598936     1.007825032070
           H         -1.628956521904     1.431237698004     0.860672598936     1.007825032070
           C          1.552741478096    -0.254014301996     0.986961598936    12.000000000000
           C          1.113504478096     1.115416698004    -0.993290401064    12.000000000000
           H          2.522091478096    -0.506783301996     0.571648598936     1.007825032070
           H          1.164621478096    -1.099196301996     1.528228598936     1.007825032070
           H          1.681944478096     0.576588698004     1.677487598936     1.007825032070
           H          2.131755478096     0.888430698004    -1.286003401064     1.007825032070
           H          0.517528478096     1.156089698004    -1.891116401064     1.007825032070
           H          1.109352478096     2.100537698004    -0.530328401064     1.007825032070

  Charge       = 0
  Multiplicity = 1
  Basis Set: 6-31G*
  Basis Set:

    Orbital Energies (a.u.)
    -----------------------

    Doubly Occupied:

       1A    -20.531968     2A    -15.563857     3A    -11.345053
       4A    -11.263584     5A    -11.255665     6A    -11.226005
       7A     -1.390596     8A     -1.240358     9A     -1.008879
      10A     -0.974668    11A     -0.918772    12A     -0.739383
      13A     -0.676641    14A     -0.657928    15A     -0.648849
      16A     -0.594906    17A     -0.582580    18A     -0.573993
      19A     -0.560644    20A     -0.549282    21A     -0.536124
      22A     -0.488692    23A     -0.417766    24A     -0.356755

  @DF-RHF Final Energy:  -286.00700061521945

   => Energetics <=

    Nuclear Repulsion Energy =            251.5283138415402107
    One-Electron Energy =                -886.8647045300306218
    Two-Electron Energy =                 349.3293900732705879
    DFT Exchange-Correlation Energy =       0.0000000000000000
    Empirical Dispersion Energy =           0.0000000000000000
    PCM Polarization Energy =               0.0000000000000000
    EFP Energy =                            0.0000000000000000
    Total Energy =                       -286.0070006152197948

  Mulliken Charges: (a.u.)
   Center  Symbol    Alpha    Beta     Spin     Total
       1     O     4.27323  4.27323  0.00000 -0.54646
       2     C     2.64685  2.64685  0.00000  0.70629
       3     C     3.28835  3.28835  0.00000 -0.57671
       4     N     3.82033  3.82033  0.00000 -0.64067
       5     H     0.40956  0.40956  0.00000  0.18087
       6     H     0.39564  0.39564  0.00000  0.20872
       7     H     0.40753  0.40753  0.00000  0.18493
       8     C     3.14069  3.14069  0.00000 -0.28139
       9     C     3.14010  3.14010  0.00000 -0.28020
      10     H     0.41539  0.41539  0.00000  0.16922
      11     H     0.39620  0.39620  0.00000  0.20759
      12     H     0.42426  0.42426  0.00000  0.15149
      13     H     0.40879  0.40879  0.00000  0.18242
      14     H     0.40956  0.40956  0.00000  0.18088
      15     H     0.42350  0.42350  0.00000  0.15300

   Total alpha = 24.00000, Total beta = 24.00000, Total charge = -0.00000
