  ==> Input File <==

--------------------------------------------------------------------------
set {
	reference rhf
	basis 6-31G*
}

set_num_threads( 4 )
memory 2 gb

molecule MOL {
0 1

O	 3.225979	 0.970355	 -0.599647
C	 2.701189	 0.057885	 -0.047330
C	 1.245376	 -0.013843	 0.345420
O	 3.347903	 -1.046386	 0.304773
C	 0.455112	 1.231400	 -0.050772
H	 0.838542	 -0.913825	 -0.103701
H	 1.208210	 -0.175333	 1.419774
C	 -0.998893	 1.219485	 0.433193
H	 0.482531	 1.345121	 -1.130325
H	 0.957290	 2.103070	 0.354729
C	 -1.883438	 0.145884	 -0.207175
H	 -1.431207	 2.195402	 0.224832
H	 -1.019646	 1.105716	 1.516076
C	 -3.347647	 0.245583	 0.225435
H	 -1.822183	 0.231698	 -1.291012
H	 -1.510341	 -0.844814	 0.042401
C	 -3.988288	 -1.113259	 0.513984
H	 -3.918194	 0.753430	 -0.550325
H	 -3.418864	 0.871264	 1.113776
C	 -5.451540	 -1.005159	 0.941662
H	 -3.917092	 -1.740113	 -0.372372
H	 -3.421937	 -1.620560	 1.292234
H	 -5.877457	 -1.984067	 1.138994
H	 -6.051894	 -0.532995	 0.169113
H	 -5.552873	 -0.412000	 1.846188
C	 4.728119	 -1.109107	 -0.004993
H	 4.882018	 -1.033965	 -1.071845
H	 5.068212	 -2.067527	 0.355250
H	 5.265056	 -0.311663	 0.488280

	symmetry c1
}
set optking {
	frozen_dihedral = ("
		17 14 11 15
	")
}

ee = optimize('scf')
oeprop('DIPOLE', 'QUADRUPOLE', 'MULLIKEN_CHARGES')
f=open( 'psi4out.xyz', 'w' )
f.write( "29  " )
f.write( str(ee) + "\n" )
f.write( MOL.save_string_xyz() )
f.close()
--------------------------------------------------------------------------

    Molecular point group: c1
  Charge       = 0
  Multiplicity = 1
  Basis Set: 6-31G*
  Basis Set:
  @DF-RHF Final Energy:  -501.03971787066610
    Total Energy =                       -501.0397178706655268
    Molecular point group: c1
  Basis Set: 6-31G*
  Basis Set:
  Basis Set: 6-31G*
  Basis Set:
  @DF-RHF Final Energy:  -501.03994008064853
    Total Energy =                       -501.0399400806481935
  Basis Set: 6-31G*
  Basis Set:
  Basis Set: 6-31G*
  Basis Set:
  @DF-RHF Final Energy:  -501.04001405796294
    Total Energy =                       -501.0400140579632762
  Basis Set: 6-31G*
  Basis Set:
  Basis Set: 6-31G*
  Basis Set:
  @DF-RHF Final Energy:  -501.04001755116644
    Total Energy =                       -501.0400175511666703
  Basis Set: 6-31G*
  Basis Set:
  Basis Set: 6-31G*
  Basis Set:
  @DF-RHF Final Energy:  -501.04000794418823
    Total Energy =                       -501.0400079441876642
  Basis Set: 6-31G*
  Basis Set:
  Basis Set: 6-31G*
  Basis Set:
  @DF-RHF Final Energy:  -501.04001870556681
    Total Energy =                       -501.0400187055661263
  Basis Set: 6-31G*
  Basis Set:
  Charge       = 0
  Multiplicity = 1
  Basis Set: 6-31G*
  Basis Set:

    Orbital Energies (a.u.)
    -----------------------

    Doubly Occupied:

       1A    -20.603354     2A    -20.545178     3A    -11.371990
       4A    -11.280650     5A    -11.234755     6A    -11.218819
       7A    -11.217686     8A    -11.216286     9A    -11.215792
      10A    -11.214240    11A    -11.209016    12A     -1.469050
      13A     -1.362493    14A     -1.097215    15A     -1.066077
      16A     -1.019290    17A     -0.976594    18A     -0.927977
      19A     -0.862105    20A     -0.801092    21A     -0.789974
      22A     -0.763834    23A     -0.700385    24A     -0.682274
      25A     -0.672067    26A     -0.643507    27A     -0.630624
      28A     -0.608409    29A     -0.594759    30A     -0.580551
      31A     -0.564878    32A     -0.552671    33A     -0.534513
      34A     -0.527207    35A     -0.518457    36A     -0.509094
      37A     -0.496280    38A     -0.477090    39A     -0.473062
      40A     -0.459330    41A     -0.457304    42A     -0.455016
      43A     -0.440751    44A     -0.434897

  @DF-RHF Final Energy:  -501.04001870369837

   => Energetics <=

    Nuclear Repulsion Energy =            611.1746755487353084
    One-Electron Energy =               -1893.4762044883477756
    Two-Electron Energy =                 781.2615102359147841
    DFT Exchange-Correlation Energy =       0.0000000000000000
    Empirical Dispersion Energy =           0.0000000000000000
    PCM Polarization Energy =               0.0000000000000000
    EFP Energy =                            0.0000000000000000
    Total Energy =                       -501.0400187036977968
    Molecular point group: c1
  Basis Set: 6-31G*
  Basis Set:

  -Total Gradient:
     Atom            X                  Y                   Z
    ------   -----------------  -----------------  -----------------
       1        0.000006133967     0.000005605285     0.000019036679
       2       -0.000011482245    -0.000019248988    -0.000049497869
       3       -0.000001388150     0.000017674516     0.000008153140
       4        0.000006008923     0.000005946684     0.000013058784
       5        0.000023414822    -0.000001915780     0.000005014935
       6       -0.000007395530    -0.000001569059    -0.000002108912
       7       -0.000004413433     0.000000574365     0.000000755295
       8       -0.000013518718    -0.000007100849    -0.000001587146
       9        0.000005711589     0.000000279165     0.000004300358
      10        0.000019173450    -0.000002056725    -0.000000326760
      11       -0.000224451381    -0.004339923916     0.000633545027
      12       -0.000010342629    -0.000012414501    -0.000011933734
      13       -0.000015786431    -0.000007634697    -0.000010395614
      14       -0.000874537693     0.000565768131    -0.003435442467
      15        0.000383279877     0.003603308829     0.000318021129
      16        0.000008942583    -0.000003547475    -0.000015835374
      17        0.000752558639     0.000208153923     0.002550254462
      18       -0.000009730629    -0.000020598668    -0.000023917679
      19       -0.000003507982    -0.000002191579     0.000004199152
      20       -0.000021495909    -0.000008515787    -0.000013464838
      21        0.000004062192     0.000016340143     0.000007722503
      22        0.000002512118     0.000009081000     0.000003594240
      23       -0.000014780981    -0.000001982130    -0.000000270657
      24       -0.000004682961     0.000001214582     0.000003121553
      25        0.000005461116    -0.000005556499    -0.000007015089
      26       -0.000000046977     0.000000133401     0.000000667737
      27       -0.000000699417     0.000000153207     0.000000159615
      28        0.000000374842     0.000000020166     0.000000252385
      29        0.000000626929     0.000000003254    -0.000000060852

  **** Optimization is complete! (in 7 steps) ****
    Final optimized geometry and variables:
    Molecular point group: c1

    Geometry (in Angstrom), charge = 0, multiplicity = 1:

    O            3.180815540383     1.031061913441    -0.780825279280
    C            2.665249375395     0.116787970933    -0.222845634375
    C            1.212281329197     0.036704804939     0.178713829806
    O            3.321291031414    -0.982109338443     0.128844406464
    C            0.411428234553     1.275717411934    -0.215902684518
    H            0.808659232026    -0.867051591577    -0.265789854136
    H            1.182514842926    -0.122370246327     1.253665821191
    C           -1.038574578391     1.255329586441     0.278175955000
    H            0.430789452134     1.385874700339    -1.296067529082
    H            0.910841242619     2.152028266790     0.183067892377
    C           -1.919717218972     0.165781473739    -0.344275419895
    H           -1.482950996194     2.224387969137     0.062152455408
    H           -1.052370962583     1.152864738031     1.362391955040
    C           -3.398360587121     0.285266409445     0.075007762514
    H           -1.838953426741     0.250079739315    -1.425685911564
    H           -1.541249810990    -0.815911276703    -0.074106079884
    C           -4.067506592390    -1.061581909875     0.358048691592
    H           -3.957095111393     0.818858241778    -0.689826144828
    H           -3.470243913804     0.893575410610     0.974789530126
    C           -5.539984948940    -0.929135722107     0.743616152911
    H           -3.979777728270    -1.702663475186    -0.517098642285
    H           -3.527045276566    -1.563167623250     1.157947564626
    H           -5.982594188065    -1.899121742070     0.948316382429
    H           -6.113900431487    -0.465438516276    -0.053752590745
    H           -5.658573175608    -0.317070679965     1.633453731998
    C            4.700062836260    -1.036696313858    -0.188785001863
    H            4.847253984977    -0.963852096640    -1.256747383937
    H            5.048553085251    -1.991732202474     0.172402653246
    H            5.234577917645    -0.234208356740     0.298908377163

  Mulliken Charges: (a.u.)
   Center  Symbol    Alpha    Beta     Spin     Total
       1     O     4.28595  4.28595  0.00000 -0.57189
       2     C     2.60480  2.60480  0.00000  0.79040
       3     C     3.20974  3.20974  0.00000 -0.41947
       4     O     4.30746  4.30746  0.00000 -0.61492
       5     C     3.15437  3.15437  0.00000 -0.30874
       6     H     0.39878  0.39878  0.00000  0.20243
       7     H     0.40128  0.40128  0.00000  0.19744
       8     C     3.15880  3.15880  0.00000 -0.31760
       9     H     0.41324  0.41324  0.00000  0.17352
      10     H     0.40873  0.40873  0.00000  0.18254
      11     C     3.15705  3.15705  0.00000 -0.31409
      12     H     0.41776  0.41776  0.00000  0.16448
      13     H     0.42395  0.42395  0.00000  0.15210
      14     C     3.15263  3.15263  0.00000 -0.30525
      15     H     0.42069  0.42069  0.00000  0.15862
      16     H     0.42113  0.42113  0.00000  0.15774
      17     C     3.15313  3.15313  0.00000 -0.30625
      18     H     0.42065  0.42065  0.00000  0.15870
      19     H     0.42210  0.42210  0.00000  0.15579
      20     C     3.24000  3.24000  0.00000 -0.48000
      21     H     0.42284  0.42284  0.00000  0.15433
      22     H     0.42335  0.42335  0.00000  0.15330
      23     H     0.41923  0.41923  0.00000  0.16154
      24     H     0.42147  0.42147  0.00000  0.15706
      25     H     0.42175  0.42175  0.00000  0.15650
      26     C     3.09240  3.09240  0.00000 -0.18480
      27     H     0.40909  0.40909  0.00000  0.18182
      28     H     0.40852  0.40852  0.00000  0.18297
      29     H     0.40913  0.40913  0.00000  0.18175

   Total alpha = 44.00000, Total beta = 44.00000, Total charge = -0.00000
