                              Psi4 1.0.54 Driver

  ==> Input File <==

--------------------------------------------------------------------------
set {
	reference rhf
	basis cc-pvtz
}

set_num_threads( 4 )
memory 2 gb

molecule MOL {
0 1

O	 1.658222	 1.623019	 -0.484092
C	 1.154999	 1.072067	 -1.402927
C	 -0.154873	 0.327365	 -1.366936
O	 1.693218	 1.039331	 -2.611093
C	 -0.824290	 0.329213	 -0.000115
H	 -0.797392	 0.771974	 -2.119892
H	 0.041776	 -0.684150	 -1.706951
C	 -2.146151	 -0.432825	 -0.000068
H	 -0.989485	 1.353130	 0.315446
H	 -0.149221	 -0.104459	 0.728926
C	 -3.366283	 0.483552	 0.000557
H	 -2.189286	 -1.084450	 -0.869996
H	 -2.188867	 -1.085083	 0.869399
C	 -4.687436	 -0.278003	 0.000108
H	 -3.325150	 1.134819	 -0.867957
H	 -3.325087	 1.133730	 0.869885
H	 -4.773783	 -0.912098	 -0.876078
H	 -5.531922	 0.401392	 0.000363
H	 -4.773901	 -0.912898	 0.875703
C	 2.929128	 1.701275	 -2.789088
H	 2.833134	 2.753986	 -2.568188
H	 3.195528	 1.560974	 -3.824073
H	 3.686117	 1.274338	 -2.148068

	symmetry c1
}
set optking {
	frozen_dihedral = ("
		9 5 8 12
	")
}

ee,wfn = optimize('scf', return_wfn=True)
oeprop( wfn, 'DIPOLE', 'QUADRUPOLE', 'MULLIKEN_CHARGES')
f=open( 'psi4out.xyz', 'w' )
f.write( "23  " )
f.write( str(ee) + "\n" )
f.write( MOL.save_string_xyz() )
f.close()
--------------------------------------------------------------------------

    Molecular point group: c1
  Charge       = 0
  Multiplicity = 1
  Basis Set: CC-PVTZ
  Basis Set:
  @DF-RHF Final Energy:  -423.12606525878175
    Total Energy =                       -423.1260652587820914
    Molecular point group: c1
  Basis Set: CC-PVTZ
  Basis Set:
  Basis Set: CC-PVTZ
  Basis Set:
  @DF-RHF Final Energy:  -423.12633723046889
    Total Energy =                       -423.1263372304692894
  Basis Set: CC-PVTZ
  Basis Set:
  Basis Set: CC-PVTZ
  Basis Set:
  @DF-RHF Final Energy:  -423.12623547694091
    Total Energy =                       -423.1262354769409058
  Basis Set: CC-PVTZ
  Basis Set:
  Basis Set: CC-PVTZ
  Basis Set:
  @DF-RHF Final Energy:  -423.12642801562771
    Total Energy =                       -423.1264280156274253
  Basis Set: CC-PVTZ
  Basis Set:
  Charge       = 0
  Multiplicity = 1
  Basis Set: CC-PVTZ
  Basis Set:

    Orbital Energies (a.u.)
    -----------------------

    Doubly Occupied:

       1A    -20.596245     2A    -20.534147     3A    -11.364347
       4A    -11.278456     5A    -11.234010     6A    -11.217117
       7A    -11.216198     8A    -11.215466     9A    -11.208363
      10A     -1.472097    11A     -1.365698    12A     -1.093590
      13A     -1.043997    14A     -0.987421    15A     -0.932350
      16A     -0.847041    17A     -0.795049    18A     -0.768950
      19A     -0.702871    20A     -0.685530    21A     -0.676330
      22A     -0.635900    23A     -0.624055    24A     -0.600033
      25A     -0.574562    26A     -0.560206    27A     -0.555927
      28A     -0.529706    29A     -0.522373    30A     -0.498825
      31A     -0.496920    32A     -0.470704    33A     -0.465608
      34A     -0.462086    35A     -0.453479    36A     -0.438741

  @DF-RHF Final Energy:  -423.12642886101418

   => Energetics <=

    Nuclear Repulsion Energy =            455.9687818362251051
    One-Electron Energy =               -1479.9416237056216232
    Two-Electron Energy =                 600.8464130083823420
    DFT Exchange-Correlation Energy =       0.0000000000000000
    Empirical Dispersion Energy =           0.0000000000000000
    PCM Polarization Energy =               0.0000000000000000
    EFP Energy =                            0.0000000000000000
    Total Energy =                       -423.1264288610141193
    Molecular point group: c1
  Basis Set: CC-PVTZ
  Basis Set:

  -Total Gradient:
     Atom            X                  Y                   Z
    ------   -----------------  -----------------  -----------------
       1        0.000006816965     0.000023151400     0.000012740580
       2        0.000040736786    -0.000067839091    -0.000008012486
       3       -0.000045402287     0.000006991342     0.000060438047
       4       -0.000012035552     0.000013381059    -0.000012761110
       5        0.000155815796    -0.000397678878     0.002961662066
       6       -0.000002513246    -0.000013313754     0.000012370260
       7       -0.000003124762    -0.000003181703    -0.000018054763
       8        0.001418507782    -0.002410374633     0.001273649393
       9       -0.000449116467     0.000770646825    -0.002776922198
      10       -0.000016577643    -0.000022834113     0.000025107513
      11        0.000095186790    -0.000014865214     0.000061065116
      12       -0.001171003608     0.002142661443    -0.001578670524
      13       -0.000004076132    -0.000011630809     0.000015830428
      14       -0.000051009859    -0.000028721780    -0.000029745746
      15        0.000016831005    -0.000005404359     0.000018885440
      16        0.000008518410     0.000004921408     0.000001199637
      17       -0.000009278649    -0.000009149536     0.000014180670
      18       -0.000009940064    -0.000006971268    -0.000011690555
      19       -0.000003693605     0.000012646291    -0.000009384832
      20        0.000027927122     0.000016652489     0.000002334737
      21        0.000007894855    -0.000003999439    -0.000005629963
      22       -0.000001688342    -0.000001101973     0.000000423471
      23        0.000001224713     0.000006014291    -0.000009015183

  **** Optimization is complete! (in 5 steps) ****
    Final optimized geometry and variables:
    Molecular point group: c1

    Geometry (in Angstrom), charge = 0, multiplicity = 1:

    O            2.036984081833     0.974018697563     0.482576097088
    C            1.533629502145     0.403540615272    -0.424312234846
    C            0.241036863488    -0.369464171376    -0.363535994183
    O            2.056606508848     0.371028327005    -1.639305693394
    C           -0.408238758316    -0.375642099190     1.015781453702
    H           -0.422508426208     0.057241262119    -1.108840612830
    H            0.454417904223    -1.378064408240    -0.701215912774
    C           -1.757832316698    -1.115510433777     1.024162253768
    H           -0.549463715648     0.652852714820     1.324301343573
    H            0.278312870443    -0.819000572341     1.724754310817
    C           -2.961945111956    -0.174415809214     0.992121379366
    H           -1.823008177370    -1.773249737615     0.161534106989
    H           -1.829709601139    -1.747671372357     1.902525053176
    C           -4.296490097045    -0.909727236684     0.938345844493
    H           -2.880366220619     0.486526490549     0.132804984042
    H           -2.936575168330     0.465403358318     1.869358187552
    H           -4.367667575986    -1.529312055856     0.050456450869
    H           -5.127964737690    -0.214542776887     0.923500575510
    H           -4.421367466641    -1.555939836012     1.800924144415
    C            3.275565259426     1.057445510793    -1.839837701547
    H            3.160069114371     2.109953472545    -1.627423748245
    H            3.531314303317     0.913077364191    -2.876969534445
    H            4.050002557269     0.652892088757    -1.205167790577

  Mulliken Charges: (a.u.)
   Center  Symbol    Alpha    Beta     Spin     Total
       1     O     4.19688  4.19688  0.00000 -0.39376
       2     C     2.80809  2.80809  0.00000  0.38383
       3     C     3.09777  3.09777  0.00000 -0.19554
       4     O     4.14716  4.14716  0.00000 -0.29432
       5     C     3.09382  3.09382  0.00000 -0.18763
       6     H     0.44001  0.44001  0.00000  0.11998
       7     H     0.43926  0.43926  0.00000  0.12149
       8     C     3.09875  3.09875  0.00000 -0.19750
       9     H     0.44641  0.44641  0.00000  0.10718
      10     H     0.43980  0.43980  0.00000  0.12039
      11     C     3.08185  3.08185  0.00000 -0.16370
      12     H     0.45722  0.45722  0.00000  0.08555
      13     H     0.44504  0.44504  0.00000  0.10991
      14     C     3.15079  3.15079  0.00000 -0.30158
      15     H     0.45561  0.45561  0.00000  0.08878
      16     H     0.45200  0.45200  0.00000  0.09600
      17     H     0.45533  0.45533  0.00000  0.08934
      18     H     0.44796  0.44796  0.00000  0.10409
      19     H     0.45452  0.45452  0.00000  0.09097
      20     C     3.03782  3.03782  0.00000 -0.07563
      21     H     0.45430  0.45430  0.00000  0.09141
      22     H     0.44529  0.44529  0.00000  0.10942
      23     H     0.45433  0.45433  0.00000  0.09134

   Total alpha = 36.00000, Total beta = 36.00000, Total charge =  0.00000

*** Psi4 exiting successfully. Buy a developer a beer!
