  ==> Input File <==

--------------------------------------------------------------------------
set {
	reference rhf
	basis 6-31G*
}

set_num_threads( 4 )
memory 2 gb

molecule MOL {
0 1

H	 2.465338	 -2.224223	 0.000000
O	 2.784187	 -1.332015	 0.000000
C	 1.765313	 -0.449364	 0.000000
C	 0.877909	 -0.498355	 -1.070540
C	 1.584081	 0.477600	 1.007981
H	 1.040277	 -1.227880	 -1.841441
C	 -0.185166	 0.378956	 -1.127659
H	 2.252249	 0.537624	 1.844328
C	 0.506071	 1.343506	 0.918993
H	 -0.865421	 0.334158	 -1.957782
C	 -0.388828	 1.319744	 -0.127018
N	 0.318941	 2.322166	 1.987962
H	 -1.208780	 2.006884	 -0.157372
O	 1.108693	 2.322219	 2.883687
O	 -0.611273	 3.063703	 1.903774

	symmetry c1
}
set optking {
	frozen_dihedral = ("
		4 3 2 1
	")
}

ee = optimize('scf')
oeprop('DIPOLE', 'QUADRUPOLE', 'MULLIKEN_CHARGES')
f=open( 'psi4out.xyz', 'w' )
f.write( "15  " )
f.write( str(ee) + "\n" )
f.write( MOL.save_string_xyz() )
f.close()
--------------------------------------------------------------------------

    Molecular point group: c1
  Charge       = 0
  Multiplicity = 1
  Basis Set: 6-31G*
  Basis Set:
  @DF-RHF Final Energy:  -509.02242518172835
    Total Energy =                       -509.0224251817282948
    Molecular point group: c1
  Basis Set: 6-31G*
  Basis Set:
  Basis Set: 6-31G*
  Basis Set:
  @DF-RHF Final Energy:  -509.02391521021980
    Total Energy =                       -509.0239152102196840
  Basis Set: 6-31G*
  Basis Set:
  Basis Set: 6-31G*
  Basis Set:
  @DF-RHF Final Energy:  -508.99856713749318
    Total Energy =                       -508.9985671374928415
  Basis Set: 6-31G*
  Basis Set:
  Basis Set: 6-31G*
  Basis Set:
  @DF-RHF Final Energy:  -509.02255751682634
    Total Energy =                       -509.0225575168266232
  Basis Set: 6-31G*
  Basis Set:
  Basis Set: 6-31G*
  Basis Set:
  @DF-RHF Final Energy:  -509.02410074856766
    Total Energy =                       -509.0241007485674345
  Basis Set: 6-31G*
  Basis Set:
  Basis Set: 6-31G*
  Basis Set:
  @DF-RHF Final Energy:  -509.02411196067180
    Total Energy =                       -509.0241119606714619
  Basis Set: 6-31G*
  Basis Set:
  Charge       = 0
  Multiplicity = 1
  Basis Set: 6-31G*
  Basis Set:

    Orbital Energies (a.u.)
    -----------------------

    Doubly Occupied:

       1A    -20.604951     2A    -20.602783     3A    -20.602422
       4A    -15.857415     5A    -11.323541     6A    -11.308909
       7A    -11.268148     8A    -11.267101     9A    -11.266074
      10A    -11.265811    11A     -1.636249    12A     -1.423053
      13A     -1.419473    14A     -1.200336    15A     -1.094372
      16A     -1.046931    17A     -0.963935    18A     -0.864996
      19A     -0.838968    20A     -0.793575    21A     -0.735313
      22A     -0.732504    23A     -0.718552    24A     -0.710894
      25A     -0.680158    26A     -0.641541    27A     -0.624655
      28A     -0.570047    29A     -0.560665    30A     -0.530150
      31A     -0.512877    32A     -0.489296    33A     -0.486275
      34A     -0.452679    35A     -0.377657    36A     -0.353450

  @DF-RHF Final Energy:  -509.02411462906031

   => Energetics <=

    Nuclear Repulsion Energy =            502.9055252062752857
    One-Electron Energy =               -1692.2077713385717743
    Two-Electron Energy =                 680.2781315032359544
    DFT Exchange-Correlation Energy =       0.0000000000000000
    Empirical Dispersion Energy =           0.0000000000000000
    PCM Polarization Energy =               0.0000000000000000
    EFP Energy =                            0.0000000000000000
    Total Energy =                       -509.0241146290604775
    Molecular point group: c1
  Basis Set: 6-31G*
  Basis Set:

  -Total Gradient:
     Atom            X                  Y                   Z
    ------   -----------------  -----------------  -----------------
       1       -0.000099885635     0.000024680154     0.001667539708
       2        0.000520945310     0.000398240157    -0.002406310548
       3       -0.001040972520    -0.001146991097     0.001576582790
       4        0.000547168121     0.000887572986    -0.000702619522
       5        0.000124571826    -0.000167835430    -0.000089473305
       6       -0.000003602691     0.000022973500     0.000027365648
       7        0.000069656722    -0.000127728466    -0.000072427954
       8        0.000014082754    -0.000015770828    -0.000002643655
       9       -0.000176278867     0.000081656293    -0.000096041247
      10       -0.000032566990     0.000032485125    -0.000002052027
      11        0.000073535661     0.000035618110     0.000118419861
      12        0.000049609637    -0.000028961436    -0.000007188944
      13       -0.000004499778    -0.000029854949    -0.000041765252
      14       -0.000119064560     0.000037043480    -0.000071359955
      15        0.000077301006    -0.000003127593     0.000101974387

  **** Optimization is complete! (in 7 steps) ****
    Final optimized geometry and variables:
    Molecular point group: c1

    Geometry (in Angstrom), charge = 0, multiplicity = 1:

    H            1.745317006873    -3.127693531643    -0.665131802028
    O            2.018318202768    -2.220048032483    -0.651591126492
    C            0.941556569252    -1.388891036396    -0.707674208529
    C            0.063020178424    -1.418893274764    -1.780953604830
    C            0.775431956107    -0.459497788997     0.301987562331
    H            0.220799600691    -2.131514837222    -2.570490420528
    C           -0.999952693469    -0.533475480962    -1.835522210816
    H            1.458302315481    -0.425984240262     1.125494790216
    C           -0.287252464996     0.420402373514     0.213932287129
    H           -1.679026125547    -0.565371916289    -2.667171677226
    C           -1.187252781973     0.403322786887    -0.834067521838
    N           -0.467080647073     1.402757537371     1.280291563816
    H           -1.998617774475     1.100904924605    -0.861928632914
    O            0.317534650322     1.395748970579     2.178894155074
    O           -1.389979584154     2.154185954102     1.189992484211

  Mulliken Charges: (a.u.)
   Center  Symbol    Alpha    Beta     Spin     Total
       1     H     0.26860  0.26860  0.00000  0.46281
       2     O     4.38142  4.38142  0.00000 -0.76284
       3     C     2.81429  2.81429  0.00000  0.37142
       4     C     3.11130  3.11130  0.00000 -0.22259
       5     C     3.10791  3.10791  0.00000 -0.21581
       6     H     0.38765  0.38765  0.00000  0.22469
       7     C     3.10394  3.10394  0.00000 -0.20788
       8     H     0.35811  0.35811  0.00000  0.28378
       9     C     2.91664  2.91664  0.00000  0.16671
      10     H     0.38673  0.38673  0.00000  0.22653
      11     C     3.09215  3.09215  0.00000 -0.18430
      12     N     3.24095  3.24095  0.00000  0.51811
      13     H     0.36433  0.36433  0.00000  0.27134
      14     O     4.23226  4.23226  0.00000 -0.46452
      15     O     4.23372  4.23372  0.00000 -0.46744

   Total alpha = 36.00000, Total beta = 36.00000, Total charge = -0.00000
