                              Psi4 1.0.54 Driver

  ==> Input File <==

--------------------------------------------------------------------------
set {
	reference rhf
	basis cc-pvtz
}

set_num_threads( 4 )
memory 2 gb

molecule MOL {
0 1

H	 -2.765423	 0.602718	 -0.378847
O	 -2.313989	 -0.142475	 -0.025864
C	 -0.943808	 -0.065018	 -0.330000
H	 -0.812293	 -0.225641	 -1.398673
C	 -0.231030	 -1.182113	 0.407592
C	 -0.353797	 1.300461	 0.050970
H	 -0.312800	 -0.992012	 1.473041
H	 -0.738841	 -2.119564	 0.220514
C	 1.246176	 -1.268044	 -0.015480
H	 -0.539537	 2.008579	 -0.751815
H	 -0.889989	 1.662858	 0.920677
C	 1.153605	 1.231851	 0.356834
H	 1.823096	 -1.684665	 0.802361
H	 1.352335	 -1.958223	 -0.845114
C	 1.826409	 0.100723	 -0.416008
H	 1.622968	 2.181508	 0.128734
H	 1.301983	 1.066493	 1.419367
H	 2.897299	 0.112407	 -0.249665
H	 1.683458	 0.265621	 -1.480024

	symmetry c1
}
set optking {
	frozen_dihedral = ("
		1 2 3 4
	")
}

ee,wfn = optimize('scf', return_wfn=True)
oeprop( wfn, 'DIPOLE', 'QUADRUPOLE', 'MULLIKEN_CHARGES')
f=open( 'psi4out.xyz', 'w' )
f.write( "19  " )
f.write( str(ee) + "\n" )
f.write( MOL.save_string_xyz() )
f.close()
--------------------------------------------------------------------------

    Molecular point group: c1
  Charge       = 0
  Multiplicity = 1
  Basis Set: CC-PVTZ
  Basis Set:
  @DF-RHF Final Energy:  -309.16350198657324
    Total Energy =                       -309.1635019865731806
    Molecular point group: c1
  Basis Set: CC-PVTZ
  Basis Set:
  Basis Set: CC-PVTZ
  Basis Set:
  @DF-RHF Final Energy:  -309.16350444603643
    Total Energy =                       -309.1635044460366544
  Basis Set: CC-PVTZ
  Basis Set:
  Charge       = 0
  Multiplicity = 1
  Basis Set: CC-PVTZ
  Basis Set:

    Orbital Energies (a.u.)
    -----------------------

    Doubly Occupied:

       1A    -20.543247     2A    -11.267157     3A    -11.215769
       4A    -11.214025     5A    -11.213408     6A    -11.213267
       7A    -11.206639     8A     -1.363314     9A     -1.110438
      10A     -1.003786    11A     -0.989537    12A     -0.845211
      13A     -0.837418    14A     -0.735711    15A     -0.696461
      16A     -0.665122    17A     -0.629379    18A     -0.592713
      19A     -0.580947    20A     -0.548290    21A     -0.530237
      22A     -0.519479    23A     -0.499965    24A     -0.488262
      25A     -0.464810    26A     -0.449621    27A     -0.427956
      28A     -0.415493

  @DF-RHF Final Energy:  -309.16350517714210

   => Energetics <=

    Nuclear Repulsion Energy =            332.0392222484785520
    One-Electron Energy =               -1077.8701293187450574
    Two-Electron Energy =                 436.6674018931242358
    DFT Exchange-Correlation Energy =       0.0000000000000000
    Empirical Dispersion Energy =           0.0000000000000000
    PCM Polarization Energy =               0.0000000000000000
    EFP Energy =                            0.0000000000000000
    Total Energy =                       -309.1635051771422127
    Molecular point group: c1
  Basis Set: CC-PVTZ
  Basis Set:

  -Total Gradient:
     Atom            X                  Y                   Z
    ------   -----------------  -----------------  -----------------
       1        0.000090039854     0.000311977874     0.000520371433
       2       -0.000103391327    -0.000511994954    -0.000629705639
       3       -0.000028968247     0.000725758298    -0.000002368584
       4        0.000024762968    -0.000523010507     0.000093169493
       5       -0.000007341226     0.000043647324     0.000004187341
       6        0.000016996559     0.000016335262     0.000003817180
       7       -0.000003818237    -0.000004824975     0.000005550478
       8        0.000000786490     0.000001947356    -0.000001539918
       9        0.000014368845     0.000011367847    -0.000029765568
      10       -0.000014243025    -0.000017261597    -0.000013265114
      11       -0.000011602704    -0.000001103261     0.000016943430
      12       -0.000018525539    -0.000022605262     0.000017502760
      13        0.000007051038     0.000015023016     0.000004554415
      14        0.000015716717     0.000003528728     0.000000871059
      15        0.000006568181    -0.000025684240     0.000009981916
      16       -0.000001864744    -0.000009080558    -0.000003856469
      17        0.000010822279     0.000000493629     0.000004399165
      18        0.000005397139    -0.000011895543    -0.000005077503
      19       -0.000002755020    -0.000002618438     0.000004230122

  **** Optimization is complete! (in 3 steps) ****
    Final optimized geometry and variables:
    Molecular point group: c1

    Geometry (in Angstrom), charge = 0, multiplicity = 1:

    H           -2.766611284101     0.595390002174    -0.391616140712
    O           -2.314100112387    -0.147067305153    -0.034146486908
    C           -0.942821663555    -0.066003976437    -0.331661642667
    H           -0.806881918712    -0.229736497722    -1.399340649846
    C           -0.230404453876    -1.181589251770     0.408796439068
    C           -0.355455439716     1.299895912201     0.050047060934
    H           -0.312631473114    -0.989863306378     1.473911315337
    H           -0.737828970290    -2.119559912830     0.222944778829
    C            1.246704204542    -1.267534871678    -0.014141124900
    H           -0.540970582621     2.007477184648    -0.753251118511
    H           -0.891815532153     1.662398790641     0.920045518105
    C            1.151617298509     1.232575904160     0.357834076391
    H            1.823545402304    -1.684589060887     0.803525568882
    H            1.353123402112    -1.956997743594    -0.844320314397
    C            1.826687481402     0.101745619689    -0.413570560745
    H            1.620197285220     2.182599704949     0.129750409928
    H            1.298646703646     1.067920902517     1.420609028202
    H            2.897187016309     0.114546798468    -0.244840027455
    H            1.685779283985     0.266501671140    -1.477800706380

  Mulliken Charges: (a.u.)
   Center  Symbol    Alpha    Beta     Spin     Total
       1     H     0.39634  0.39634  0.00000  0.20731
       2     O     4.20020  4.20020  0.00000 -0.40041
       3     C     2.92295  2.92295  0.00000  0.15409
       4     H     0.46315  0.46315  0.00000  0.07370
       5     C     3.09805  3.09805  0.00000 -0.19609
       6     C     3.12372  3.12372  0.00000 -0.24744
       7     H     0.45465  0.45465  0.00000  0.09071
       8     H     0.44029  0.44029  0.00000  0.11942
       9     C     3.11373  3.11373  0.00000 -0.22747
      10     H     0.45042  0.45042  0.00000  0.09915
      11     H     0.44647  0.44647  0.00000  0.10707
      12     C     3.10092  3.10092  0.00000 -0.20184
      13     H     0.44709  0.44709  0.00000  0.10582
      14     H     0.44740  0.44740  0.00000  0.10521
      15     C     3.10256  3.10256  0.00000 -0.20512
      16     H     0.44265  0.44265  0.00000  0.11471
      17     H     0.45247  0.45247  0.00000  0.09506
      18     H     0.44282  0.44282  0.00000  0.11437
      19     H     0.45412  0.45412  0.00000  0.09175

   Total alpha = 28.00000, Total beta = 28.00000, Total charge = -0.00000

*** Psi4 exiting successfully. Buy a developer a beer!
