                              Psi4 1.0.54 Driver

  ==> Input File <==

--------------------------------------------------------------------------
set {
	reference rhf
	basis cc-pvtz
}

set_num_threads( 4 )
memory 2 gb

molecule MOL {
0 1

O	 0.799774	 -1.412859	 2.080984
C	 0.134129	 -1.309046	 1.108349
C	 -1.271507	 -1.819119	 0.968105
O	 0.550743	 -0.719877	 0.000412
H	 -1.934125	 -0.996720	 0.731455
H	 -1.577978	 -2.291035	 1.887291
H	 -1.320810	 -2.526693	 0.150582
C	 1.863204	 -0.194033	 0.000410
H	 2.031502	 0.409177	 -0.879273
H	 2.524488	 -1.045142	 0.000793
H	 2.031291	 0.409823	 0.879686

	symmetry c1
}
set optking {
	frozen_dihedral = ("
		2 4 8 9
	")
}

ee,wfn = optimize('scf', return_wfn=True)
oeprop( wfn, 'DIPOLE', 'QUADRUPOLE', 'MULLIKEN_CHARGES')
f=open( 'psi4out.xyz', 'w' )
f.write( "11  " )
f.write( str(ee) + "\n" )
f.write( MOL.save_string_xyz() )
f.close()
--------------------------------------------------------------------------

    Molecular point group: c1
  Charge       = 0
  Multiplicity = 1
  Basis Set: CC-PVTZ
  Basis Set:
  @DF-RHF Final Energy:  -266.93758380592806
    Total Energy =                       -266.9375838059281705
    Molecular point group: c1
  Basis Set: CC-PVTZ
  Basis Set:
  Basis Set: CC-PVTZ
  Basis Set:
  @DF-RHF Final Energy:  -266.93865324919653
    Total Energy =                       -266.9386532491963635
  Basis Set: CC-PVTZ
  Basis Set:
  Basis Set: CC-PVTZ
  Basis Set:
  @DF-RHF Final Energy:  -266.93872233371621
    Total Energy =                       -266.9387223337162141
  Basis Set: CC-PVTZ
  Basis Set:
  Basis Set: CC-PVTZ
  Basis Set:
  @DF-RHF Final Energy:  -266.93895223438227
    Total Energy =                       -266.9389522343821000
  Basis Set: CC-PVTZ
  Basis Set:
  Basis Set: CC-PVTZ
  Basis Set:
  @DF-RHF Final Energy:  -266.93907743420993
    Total Energy =                       -266.9390774342099348
  Basis Set: CC-PVTZ
  Basis Set:
  Charge       = 0
  Multiplicity = 1
  Basis Set: CC-PVTZ
  Basis Set:

    Orbital Energies (a.u.)
    -----------------------

    Doubly Occupied:

       1A    -20.598729     2A    -20.535225     3A    -11.368919
       4A    -11.279902     5A    -11.233240     6A     -1.474165
       7A     -1.367674     8A     -1.037013     9A     -0.953748
      10A     -0.780144    11A     -0.698247    12A     -0.684516
      13A     -0.681158    14A     -0.596151    15A     -0.593289
      16A     -0.561835    17A     -0.527445    18A     -0.524728
      19A     -0.462233    20A     -0.445935

  @DF-RHF Final Energy:  -266.93907952531515

   => Energetics <=

    Nuclear Repulsion Energy =            183.6793516887926501
    One-Electron Energy =                -728.4282736101122282
    Two-Electron Energy =                 277.8098423960045693
    DFT Exchange-Correlation Energy =       0.0000000000000000
    Empirical Dispersion Energy =           0.0000000000000000
    PCM Polarization Energy =               0.0000000000000000
    EFP Energy =                            0.0000000000000000
    Total Energy =                       -266.9390795253150372
    Molecular point group: c1
  Basis Set: CC-PVTZ
  Basis Set:

  -Total Gradient:
     Atom            X                  Y                   Z
    ------   -----------------  -----------------  -----------------
       1        0.000076995456     0.000028906725    -0.000022867486
       2       -0.000360712714     0.000724300315     0.000156126578
       3       -0.000018559885    -0.000003376160     0.000012645324
       4        0.000368010491    -0.000852721503    -0.000199711421
       5       -0.000004998366     0.000000709357    -0.000005955954
       6       -0.000010035329    -0.000009420496     0.000011695635
       7       -0.000004483095    -0.000012674542    -0.000008316620
       8        0.000226316283    -0.000634706599    -0.000319609918
       9       -0.000323919381     0.000774123882     0.000356046382
      10        0.000046430261    -0.000042733180    -0.000002911303
      11        0.000004956280     0.000027592202     0.000022858786

  **** Optimization is complete! (in 6 steps) ****
    Final optimized geometry and variables:
    Molecular point group: c1

    Geometry (in Angstrom), charge = 0, multiplicity = 1:

    O            0.337666104084    -0.274959265235     1.280760429330
    C           -0.308231458648    -0.207325494994     0.291751201362
    C           -1.724845487689    -0.686919357600     0.154200081481
    O            0.142844185079     0.306764600565    -0.839906581586
    H           -2.360732253588     0.138365081894    -0.138974997483
    H           -2.059259567583    -1.099480413696     1.092045264753
    H           -1.779677934092    -1.436885902015    -0.624278201734
    C            1.462383833214     0.814716663215    -0.844872576173
    H            1.575944668352     1.340002545874    -1.779296946602
    H            2.178807609342     0.008601583862    -0.778047288191
    H            1.614015619755     1.491551878292    -0.018230816247

  Mulliken Charges: (a.u.)
   Center  Symbol    Alpha    Beta     Spin     Total
       1     O     4.19676  4.19676  0.00000 -0.39352
       2     C     2.80154  2.80154  0.00000  0.39693
       3     C     3.13808  3.13808  0.00000 -0.27617
       4     O     4.14788  4.14788  0.00000 -0.29576
       5     H     0.44560  0.44560  0.00000  0.10881
       6     H     0.43786  0.43786  0.00000  0.12427
       7     H     0.44527  0.44527  0.00000  0.10945
       8     C     3.03343  3.03343  0.00000 -0.06687
       9     H     0.44584  0.44584  0.00000  0.10832
      10     H     0.45547  0.45547  0.00000  0.08907
      11     H     0.45226  0.45226  0.00000  0.09547

   Total alpha = 20.00000, Total beta = 20.00000, Total charge =  0.00000

*** Psi4 exiting successfully. Buy a developer a beer!
