  ==> Input File <==

--------------------------------------------------------------------------
set {
	reference rhf
	basis cc-pvtz
}

set_num_threads( 4 )
memory 2 gb

molecule MOL {
0 1

H	 3.234065	 0.155345	 -0.375815
N	 2.433987	 -0.362316	 -0.080024
C	 1.263552	 0.494993	 0.021953
H	 2.656476	 -0.768383	 0.804817
C	 -0.016533	 -0.325589	 -0.026925
H	 1.280915	 1.180773	 -0.818522
H	 1.263064	 1.106893	 0.925038
C	 -1.280353	 0.525521	 0.047747
H	 -0.016686	 -0.912532	 -0.939714
H	 -0.014099	 -1.037598	 0.796369
C	 -2.560681	 -0.301323	 -0.007747
H	 -1.279957	 1.241025	 -0.770189
H	 -1.270445	 1.110526	 0.963468
H	 -2.617064	 -0.872870	 -0.928010
H	 -3.439525	 0.331102	 0.043462
H	 -2.609427	 -1.002736	 0.818585

	symmetry c1
}
set optking {
	frozen_dihedral = ("
		1 2 3 6
	")
}

ee = optimize('scf')
oeprop('DIPOLE', 'QUADRUPOLE', 'MULLIKEN_CHARGES')
f=open( 'psi4out.xyz', 'w' )
f.write( "16  " )
f.write( str(ee) + "\n" )
f.write( MOL.save_string_xyz() )
f.close()
--------------------------------------------------------------------------

    Molecular point group: c1
  Charge       = 0
  Multiplicity = 1
  Basis Set: CC-PVTZ
  Basis Set:
  @DF-RHF Final Energy:  -212.39968154765685
    Total Energy =                       -212.3996815476567690
    Molecular point group: c1
  Basis Set: CC-PVTZ
  Basis Set:
  Basis Set: CC-PVTZ
  Basis Set:
  @DF-RHF Final Energy:  -212.39976187698144
    Total Energy =                       -212.3997618769814721
  Basis Set: CC-PVTZ
  Basis Set:
  Basis Set: CC-PVTZ
  Basis Set:
  @DF-RHF Final Energy:  -212.39977755287666
    Total Energy =                       -212.3997775528766851
  Basis Set: CC-PVTZ
  Basis Set:
  Charge       = 0
  Multiplicity = 1
  Basis Set: CC-PVTZ
  Basis Set:

    Orbital Energies (a.u.)
    -----------------------

    Doubly Occupied:

       1A    -15.525747     2A    -11.238310     3A    -11.211755
       4A    -11.205440     5A    -11.204981     6A     -1.177077
       7A     -1.059795     8A     -0.959275     9A     -0.843624
      10A     -0.790428    11A     -0.671455    12A     -0.632446
      13A     -0.608542    14A     -0.577459    15A     -0.560220
      16A     -0.528402    17A     -0.496118    18A     -0.470822
      19A     -0.466408    20A     -0.461494    21A     -0.381302

  @DF-RHF Final Energy:  -212.39977824200275

   => Energetics <=

    Nuclear Repulsion Energy =            186.4087710816131107
    One-Electron Energy =                -655.4748986568065447
    Two-Electron Energy =                 256.6663493331907375
    DFT Exchange-Correlation Energy =       0.0000000000000000
    Empirical Dispersion Energy =           0.0000000000000000
    PCM Polarization Energy =               0.0000000000000000
    EFP Energy =                            0.0000000000000000
    Total Energy =                       -212.3997782420026965
    Molecular point group: c1
  Basis Set: CC-PVTZ
  Basis Set:

  -Total Gradient:
     Atom            X                  Y                   Z
    ------   -----------------  -----------------  -----------------
       1       -0.000445873950    -0.000367853096    -0.001867926893
       2        0.000796066371     0.000658809175     0.002568292654
       3       -0.001322945718    -0.001451419098    -0.001632549164
       4       -0.000027308020     0.000011625236    -0.000017753487
       5        0.000043648720    -0.000010769276    -0.000011388670
       6        0.000910532984     0.001131392381     0.000967373397
       7       -0.000003347239     0.000001123998    -0.000008091797
       8        0.000031839934     0.000012667104     0.000005222332
       9        0.000018231454     0.000010584585    -0.000008038976
      10       -0.000000221420     0.000012869874    -0.000012883061
      11       -0.000004821251    -0.000007540111     0.000018691161
      12        0.000009688828    -0.000010563985    -0.000001139235
      13       -0.000003680769     0.000008335373    -0.000004424943
      14        0.000005073936     0.000007773267     0.000001937568
      15       -0.000003659220    -0.000001453020     0.000004422268
      16       -0.000003224643    -0.000005582408    -0.000001743156

  **** Optimization is complete! (in 4 steps) ****
    Final optimized geometry and variables:
    Molecular point group: c1

    Geometry (in Angstrom), charge = 0, multiplicity = 1:

    H            3.243512386781     0.156376518119    -0.346396287625
    N            2.437854422991    -0.358531654660    -0.065721625232
    C            1.260405437782     0.492005039711     0.014495037833
    H            2.638832346445    -0.795164587055     0.808118833624
    C           -0.019542922428    -0.328836637236    -0.032981696400
    H            1.287580820656     1.178067097098    -0.825244793291
    H            1.254181425806     1.113988322711     0.910567463020
    C           -1.283469341291     0.521251120079     0.048909572285
    H           -0.021155271554    -0.913603369436    -0.947005490095
    H           -0.011254796688    -1.043510587553     0.787382646261
    C           -2.563638071251    -0.306287110540     0.000317281397
    H           -1.288479414387     1.237518812189    -0.768617792557
    H           -1.269096050376     1.105977292900     0.964868419772
    H           -2.625681042245    -0.875891441006    -0.920786040686
    H           -3.442841722033     0.325122351354     0.058948938918
    H           -2.605890440084    -1.009673866789     0.825305146897

  Mulliken Charges: (a.u.)
   Center  Symbol    Alpha    Beta     Spin     Total
       1     H     0.42737  0.42737  0.00000  0.14526
       2     N     3.69313  3.69313  0.00000 -0.38627
       3     C     3.03245  3.03245  0.00000 -0.06490
       4     H     0.42959  0.42959  0.00000  0.14083
       5     C     3.07299  3.07299  0.00000 -0.14599
       6     H     0.45675  0.45675  0.00000  0.08649
       7     H     0.46696  0.46696  0.00000  0.06609
       8     C     3.08920  3.08920  0.00000 -0.17840
       9     H     0.45111  0.45111  0.00000  0.09778
      10     H     0.46022  0.46022  0.00000  0.07956
      11     C     3.14934  3.14934  0.00000 -0.29868
      12     H     0.45559  0.45559  0.00000  0.08882
      13     H     0.45671  0.45671  0.00000  0.08657
      14     H     0.45426  0.45426  0.00000  0.09148
      15     H     0.44897  0.44897  0.00000  0.10205
      16     H     0.45535  0.45535  0.00000  0.08929

   Total alpha = 21.00000, Total beta = 21.00000, Total charge = -0.00000
