                              Psi4 1.0.54 Driver

  ==> Input File <==

--------------------------------------------------------------------------
set {
	reference rhf
	basis cc-pvtz
}

set_num_threads( 4 )
memory 2 gb

molecule MOL {
0 1

H	 2.867672	 -0.456275	 0.875795
C	 2.403497	 -0.020426	 0.000000
N	 0.989899	 -0.304564	 0.000000
H	 2.867672	 -0.456275	 -0.875795
H	 2.620366	 1.051270	 0.000000
C	 0.447371	 -0.413614	 -1.338409
C	 0.233224	 0.651779	 0.781293
H	 0.568600	 0.520172	 -1.896165
H	 0.979999	 -1.188827	 -1.877001
C	 -1.026234	 -0.766820	 -1.275368
H	 0.608724	 0.658280	 1.797995
H	 0.338346	 1.665698	 0.382970
C	 -1.234880	 0.271198	 0.789870
H	 -1.460608	 -0.760016	 -2.265267
H	 -1.143614	 -1.763168	 -0.853927
O	 -1.735391	 0.161529	 -0.509594
H	 -1.820070	 1.028322	 1.292804
H	 -1.363056	 -0.671435	 1.318181

	symmetry c1
}
set optking {
	frozen_dihedral = ("
		6 3 2 5
	")
}

ee,wfn = optimize('scf', return_wfn=True)
oeprop( wfn, 'DIPOLE', 'QUADRUPOLE', 'MULLIKEN_CHARGES')
f=open( 'psi4out.xyz', 'w' )
f.write( "18  " )
f.write( str(ee) + "\n" )
f.write( MOL.save_string_xyz() )
f.close()
--------------------------------------------------------------------------

    Molecular point group: c1
  Charge       = 0
  Multiplicity = 1
  Basis Set: CC-PVTZ
  Basis Set:
  @DF-RHF Final Energy:  -325.14308073130661
    Total Energy =                       -325.1430807313068954
    Molecular point group: c1
  Basis Set: CC-PVTZ
  Basis Set:
  Basis Set: CC-PVTZ
  Basis Set:
  @DF-RHF Final Energy:  -325.14342348399458
    Total Energy =                       -325.1434234839946384
  Basis Set: CC-PVTZ
  Basis Set:
  Basis Set: CC-PVTZ
  Basis Set:
  @DF-RHF Final Energy:  -325.14347644995581
    Total Energy =                       -325.1434764499558696
  Basis Set: CC-PVTZ
  Basis Set:
  Charge       = 0
  Multiplicity = 1
  Basis Set: CC-PVTZ
  Basis Set:

    Orbital Energies (a.u.)
    -----------------------

    Doubly Occupied:

       1A    -20.547405     2A    -15.541993     3A    -11.264156
       4A    -11.263990     5A    -11.242633     6A    -11.242559
       7A    -11.239128     8A     -1.386221     9A     -1.231933
      10A     -1.039375    11A     -0.981829    12A     -0.884415
      13A     -0.869836    14A     -0.773429    15A     -0.684858
      16A     -0.646758    17A     -0.645164    18A     -0.634856
      19A     -0.628894    20A     -0.573365    21A     -0.558294
      22A     -0.542217    23A     -0.528110    24A     -0.500866
      25A     -0.487021    26A     -0.453944    27A     -0.410528
      28A     -0.349855

  @DF-RHF Final Energy:  -325.14347881837500

   => Energetics <=

    Nuclear Repulsion Energy =            341.6551315440441385
    One-Electron Energy =               -1119.2899602977711311
    Two-Electron Energy =                 452.4913499353520479
    DFT Exchange-Correlation Energy =       0.0000000000000000
    Empirical Dispersion Energy =           0.0000000000000000
    PCM Polarization Energy =               0.0000000000000000
    EFP Energy =                            0.0000000000000000
    Total Energy =                       -325.1434788183749447
    Molecular point group: c1
  Basis Set: CC-PVTZ
  Basis Set:

  -Total Gradient:
     Atom            X                  Y                   Z
    ------   -----------------  -----------------  -----------------
       1       -0.000027884534    -0.000007337628     0.000021624732
       2        0.000524062770    -0.001356207904    -0.005803271502
       3       -0.000817865321     0.004671248956     0.001228889329
       4       -0.000053546719    -0.000032185052     0.000009213998
       5       -0.000120127826     0.000044731776     0.004498497700
       6        0.000572510683    -0.003352804333     0.000012750137
       7       -0.000035481760     0.000080223279     0.000004637607
       8       -0.000013750507    -0.000046162870     0.000052214440
       9        0.000006068529     0.000002173137     0.000029728925
      10       -0.000020927494     0.000038015001    -0.000063299447
      11        0.000005378604    -0.000023254476    -0.000023989233
      12        0.000003467449    -0.000028455254     0.000008554982
      13       -0.000000274332     0.000009726972     0.000020505418
      14       -0.000052275351    -0.000018797370    -0.000030475271
      15        0.000027191722     0.000038039445     0.000003144368
      16        0.000039951318    -0.000034866245     0.000027359484
      17       -0.000038398364     0.000006118818     0.000008257154
      18        0.000001901130     0.000009793746    -0.000004342822

  **** Optimization is complete! (in 4 steps) ****
    Final optimized geometry and variables:
    Molecular point group: c1

    Geometry (in Angstrom), charge = 0, multiplicity = 1:

    H            2.833578947639    -0.378626741884     1.131994473271
    C            2.402458143141     0.028029581971     0.223162579616
    N            0.980296894972    -0.222501873357     0.196239662871
    H            2.887150753110    -0.450515829323    -0.616455529461
    H            2.643399284866     1.092768088076     0.210792078347
    C            0.424827406016    -0.347277193787    -1.133808156878
    C            0.226303993203     0.703637022680     1.009505105217
    H            0.525692093356     0.579695727191    -1.707490848732
    H            0.955038266911    -1.125054114300    -1.670028476253
    C           -1.044446530191    -0.714756031535    -1.044500935613
    H            0.617577909634     0.691127840608     2.020836535519
    H            0.315571019382     1.728129068854     0.634644296678
    C           -1.237472000895     0.306934038544     1.030923185741
    H           -1.497136466479    -0.712351077980    -2.026330849700
    H           -1.142940968709    -1.712541018489    -0.621369114149
    O           -1.749826680557     0.204634408131    -0.264458127403
    H           -1.825671544547     1.052554677184     1.547602947826
    H           -1.349983013905    -0.642356471731     1.550888747131

  Mulliken Charges: (a.u.)
   Center  Symbol    Alpha    Beta     Spin     Total
       1     H     0.45030  0.45030  0.00000  0.09940
       2     C     3.09376  3.09376  0.00000 -0.18751
       3     N     3.61779  3.61779  0.00000 -0.23557
       4     H     0.45344  0.45344  0.00000  0.09313
       5     H     0.46742  0.46742  0.00000  0.06516
       6     C     3.03878  3.03878  0.00000 -0.07756
       7     C     3.04091  3.04091  0.00000 -0.08181
       8     H     0.47029  0.47029  0.00000  0.05941
       9     H     0.45423  0.45423  0.00000  0.09155
      10     C     2.98398  2.98398  0.00000  0.03205
      11     H     0.45442  0.45442  0.00000  0.09115
      12     H     0.46851  0.46851  0.00000  0.06298
      13     C     2.98358  2.98358  0.00000  0.03283
      14     H     0.44992  0.44992  0.00000  0.10017
      15     H     0.46817  0.46817  0.00000  0.06365
      16     O     4.18650  4.18650  0.00000 -0.37301
      17     H     0.45002  0.45002  0.00000  0.09997
      18     H     0.46799  0.46799  0.00000  0.06402

   Total alpha = 28.00000, Total beta = 28.00000, Total charge =  0.00000

*** Psi4 exiting successfully. Buy a developer a beer!
