  ==> Input File <==

--------------------------------------------------------------------------
set {
	reference rhf
	basis 6-31G*
}

set_num_threads( 4 )
memory 2 gb

molecule MOL {
0 1

H	 -3.420663	 1.227371	 -1.044276
O	 -3.452007	 0.283848	 -0.965577
C	 -3.181085	 -0.079926	 0.364119
C	 -1.765924	 0.277073	 0.805136
H	 -3.327791	 -1.152017	 0.410903
H	 -3.905698	 0.375695	 1.036898
C	 -0.677594	 -0.417312	 -0.014550
H	 -1.637766	 1.358238	 0.744969
H	 -1.659588	 0.017670	 1.857098
C	 0.738335	 -0.034840	 0.421385
H	 -0.814977	 -0.178223	 -1.064632
H	 -0.802730	 -1.495410	 0.071702
C	 1.822265	 -0.738362	 -0.399735
H	 0.853533	 1.043532	 0.342250
H	 0.871597	 -0.279636	 1.474438
C	 3.258060	 -0.455774	 0.057203
H	 1.718003	 -0.459167	 -1.447053
H	 1.651028	 -1.811884	 -0.354513
C	 4.177516	 -1.678478	 0.057699
H	 3.224493	 -0.045206	 1.063482
H	 3.689514	 0.320229	 -0.571979
H	 3.764915	 -2.476427	 0.669399
H	 5.153945	 -1.426372	 0.460025
H	 4.330140	 -2.072757	 -0.941507

	symmetry c1
}
set optking {
	frozen_dihedral = ("
		20 16 13 17
	")
}

ee = optimize('scf')
oeprop('DIPOLE', 'QUADRUPOLE', 'MULLIKEN_CHARGES')
f=open( 'psi4out.xyz', 'w' )
f.write( "24  " )
f.write( str(ee) + "\n" )
f.write( MOL.save_string_xyz() )
f.close()
--------------------------------------------------------------------------

    Molecular point group: c1
  Charge       = 0
  Multiplicity = 1
  Basis Set: 6-31G*
  Basis Set:
  @DF-RHF Final Energy:  -349.24441284772098
    Total Energy =                       -349.2444128477208096
    Molecular point group: c1
  Basis Set: 6-31G*
  Basis Set:
  Basis Set: 6-31G*
  Basis Set:
  @DF-RHF Final Energy:  -349.24513584591358
    Total Energy =                       -349.2451358459137509
  Basis Set: 6-31G*
  Basis Set:
  Basis Set: 6-31G*
  Basis Set:
  @DF-RHF Final Energy:  -349.24520554241855
    Total Energy =                       -349.2452055424179775
  Basis Set: 6-31G*
  Basis Set:
  Basis Set: 6-31G*
  Basis Set:
  @DF-RHF Final Energy:  -349.24521100444861
    Total Energy =                       -349.2452110044488336
  Basis Set: 6-31G*
  Basis Set:
  Basis Set: 6-31G*
  Basis Set:
  @DF-RHF Final Energy:  -349.24521769536693
    Total Energy =                       -349.2452176953667617
  Basis Set: 6-31G*
  Basis Set:
  Charge       = 0
  Multiplicity = 1
  Basis Set: 6-31G*
  Basis Set:

    Orbital Energies (a.u.)
    -----------------------

    Doubly Occupied:

       1A    -20.553582     2A    -11.267687     3A    -11.217460
       4A    -11.213393     5A    -11.212851     6A    -11.211208
       7A    -11.210896     8A    -11.207734     9A     -1.360175
      10A     -1.087659    11A     -1.047903    12A     -0.988000
      13A     -0.913653    14A     -0.842343    15A     -0.797834
      16A     -0.787941    17A     -0.678859    18A     -0.655795
      19A     -0.628079    20A     -0.614243    21A     -0.592138
      22A     -0.586806    23A     -0.553058    24A     -0.537886
      25A     -0.528317    26A     -0.503556    27A     -0.494940
      28A     -0.473545    29A     -0.465618    30A     -0.459142
      31A     -0.455518    32A     -0.454108    33A     -0.417940

  @DF-RHF Final Energy:  -349.24521787445298

   => Energetics <=

    Nuclear Repulsion Energy =            380.6071765613164075
    One-Electron Energy =               -1227.6650489879618817
    Two-Electron Energy =                 497.8126545521927255
    DFT Exchange-Correlation Energy =       0.0000000000000000
    Empirical Dispersion Energy =           0.0000000000000000
    PCM Polarization Energy =               0.0000000000000000
    EFP Energy =                            0.0000000000000000
    Total Energy =                       -349.2452178744526918
    Molecular point group: c1
  Basis Set: 6-31G*
  Basis Set:

  -Total Gradient:
     Atom            X                  Y                   Z
    ------   -----------------  -----------------  -----------------
       1        0.000000816166    -0.000001581652     0.000001858868
       2        0.000007518928    -0.000007193836    -0.000001926400
       3       -0.000001547592     0.000007279484     0.000002565770
       4        0.000009284755    -0.000016838346     0.000012219901
       5       -0.000001578792    -0.000000436046    -0.000001249431
       6        0.000001413369     0.000000103915     0.000001496061
       7        0.000005100805     0.000038843833    -0.000032665407
       8       -0.000007105211    -0.000006652082    -0.000006135434
       9        0.000001449876     0.000004398719     0.000009518781
      10       -0.000034485605    -0.000002372192     0.000000790434
      11       -0.000012498644     0.000007137218    -0.000015106913
      12        0.000006852409     0.000008448127     0.000001947558
      13        0.001442875898    -0.003527491164    -0.001529303821
      14       -0.000012130857    -0.000017405906     0.000002599935
      15       -0.000007276341    -0.000025578304    -0.000009766187
      16        0.000346411622    -0.003677967140     0.002191946777
      17       -0.001300727666     0.003599303795     0.001001867383
      18        0.000027240184     0.000008086595    -0.000001089070
      19        0.000004804904     0.000034514580    -0.000019814081
      20       -0.000519062308     0.003567924044    -0.001595248001
      21        0.000036555768    -0.000006384702    -0.000037323193
      22       -0.000002934843     0.000020063716     0.000014769517
      23       -0.000011561079    -0.000007914487    -0.000008442228
      24        0.000020584262     0.000001711828     0.000016489182

  **** Optimization is complete! (in 6 steps) ****
    Final optimized geometry and variables:
    Molecular point group: c1

    Geometry (in Angstrom), charge = 0, multiplicity = 1:

    H           -3.424168762367     1.654576412267    -1.076289506602
    O           -3.487533683370     0.711233399484    -1.017697766079
    C           -3.252266428155     0.312201170046     0.308696087133
    C           -1.834105856617     0.613110907140     0.780805126222
    H           -3.434787244251    -0.755083613409     0.330804196164
    H           -3.973300391550     0.777951921293     0.978307254802
    C           -0.754822790172    -0.098885587946    -0.035808132921
    H           -1.669846350410     1.690491009543     0.746080481917
    H           -1.754380975193     0.328277171276     1.828523208219
    C            0.664420251495     0.230978047222     0.428337240682
    H           -0.869009731628     0.163562130741    -1.083061017360
    H           -0.913895084572    -1.174235259683     0.028080424670
    C            1.747169525985    -0.497256593825    -0.373670636562
    H            0.827273490039     1.305575211996     0.355530665143
    H            0.770234154550    -0.020773146148     1.482499337866
    C            3.177197533387    -0.108464456004     0.048611123500
    H            1.601805239695    -0.258554002398    -1.424442131047
    H            1.604024778099    -1.570296552865    -0.269829894425
    C            4.168330614590    -1.269697714217     0.005083704969
    H            3.160695028740     0.332086769114     1.042703030633
    H            3.535027837318     0.686013324761    -0.602360574320
    H            3.878174896785    -2.057013348856     0.695141871015
    H            5.169333769650    -0.945402057177     0.272762094001
    H            4.216287221393    -1.705010880963    -0.989231375596

  Mulliken Charges: (a.u.)
   Center  Symbol    Alpha    Beta     Spin     Total
       1     H     0.28339  0.28339  0.00000  0.43322
       2     O     4.36830  4.36830  0.00000 -0.73660
       3     C     2.99614  2.99614  0.00000  0.00772
       4     C     3.16900  3.16900  0.00000 -0.33800
       5     H     0.41633  0.41633  0.00000  0.16734
       6     H     0.42815  0.42815  0.00000  0.14370
       7     C     3.15256  3.15256  0.00000 -0.30512
       8     H     0.42824  0.42824  0.00000  0.14351
       9     H     0.42234  0.42234  0.00000  0.15532
      10     C     3.15392  3.15392  0.00000 -0.30784
      11     H     0.41213  0.41213  0.00000  0.17573
      12     H     0.42357  0.42357  0.00000  0.15285
      13     C     3.15266  3.15266  0.00000 -0.30532
      14     H     0.42495  0.42495  0.00000  0.15010
      15     H     0.42481  0.42481  0.00000  0.15037
      16     C     3.15406  3.15406  0.00000 -0.30813
      17     H     0.42115  0.42115  0.00000  0.15769
      18     H     0.42174  0.42174  0.00000  0.15651
      19     C     3.23938  3.23938  0.00000 -0.47877
      20     H     0.42163  0.42163  0.00000  0.15675
      21     H     0.42178  0.42178  0.00000  0.15645
      22     H     0.42199  0.42199  0.00000  0.15602
      23     H     0.42056  0.42056  0.00000  0.15888
      24     H     0.42119  0.42119  0.00000  0.15761

   Total alpha = 33.00000, Total beta = 33.00000, Total charge = -0.00000
