  ==> Input File <==

--------------------------------------------------------------------------
set {
	reference rhf
	basis 6-31G*
}

set_num_threads( 4 )
memory 2 gb

molecule MOL {
0 1

H	 2.734285	 -1.695318	 -0.659364
O	 2.826016	 -1.159218	 0.122261
C	 2.077727	 -0.067559	 -0.035091
C	 0.624473	 -0.343591	 0.253101
O	 2.542965	 0.974826	 -0.363729
C	 -0.265902	 0.883932	 0.072916
H	 0.324016	 -1.163849	 -0.390541
H	 0.565024	 -0.726111	 1.268924
C	 -1.728698	 0.646073	 0.462102
H	 -0.209144	 1.219470	 -0.958188
H	 0.135059	 1.692851	 0.673903
C	 -2.482460	 -0.343073	 -0.431425
H	 -2.245265	 1.602650	 0.432430
H	 -1.779332	 0.308348	 1.496285
C	 -3.960546	 -0.461025	 -0.060175
H	 -2.395034	 -0.026811	 -1.468912
H	 -2.024850	 -1.327147	 -0.371646
H	 -4.472726	 -1.168004	 -0.705284
H	 -4.465146	 0.496508	 -0.151489
H	 -4.081218	 -0.800940	 0.964585

	symmetry c1
}
set optking {
	frozen_dihedral = ("
		1 2 3 5
	")
}

ee = optimize('scf')
oeprop('DIPOLE', 'QUADRUPOLE', 'MULLIKEN_CHARGES')
f=open( 'psi4out.xyz', 'w' )
f.write( "20  " )
f.write( str(ee) + "\n" )
f.write( MOL.save_string_xyz() )
f.close()
--------------------------------------------------------------------------

    Molecular point group: c1
  Charge       = 0
  Multiplicity = 1
  Basis Set: 6-31G*
  Basis Set:
  @DF-RHF Final Energy:  -383.92529347011015
    Total Energy =                       -383.9252934701102049
    Molecular point group: c1
  Basis Set: 6-31G*
  Basis Set:
  Basis Set: 6-31G*
  Basis Set:
  @DF-RHF Final Energy:  -383.92644911998605
    Total Energy =                       -383.9264491199863301
  Basis Set: 6-31G*
  Basis Set:
  Basis Set: 6-31G*
  Basis Set:
  @DF-RHF Final Energy:  -383.92521633529304
    Total Energy =                       -383.9252163352928733
  Basis Set: 6-31G*
  Basis Set:
  Basis Set: 6-31G*
  Basis Set:
  @DF-RHF Final Energy:  -383.92702747796858
    Total Energy =                       -383.9270274779686360
  Basis Set: 6-31G*
  Basis Set:
  Basis Set: 6-31G*
  Basis Set:
  @DF-RHF Final Energy:  -383.92704357174722
    Total Energy =                       -383.9270435717472765
  Basis Set: 6-31G*
  Basis Set:
  Basis Set: 6-31G*
  Basis Set:
  @DF-RHF Final Energy:  -383.92704462057026
    Total Energy =                       -383.9270446205699727
  Basis Set: 6-31G*
  Basis Set:
  Charge       = 0
  Multiplicity = 1
  Basis Set: 6-31G*
  Basis Set:

    Orbital Energies (a.u.)
    -----------------------

    Doubly Occupied:

       1A    -20.594067     2A    -20.562152     3A    -11.381267
       4A    -11.243678     5A    -11.225136     6A    -11.223506
       7A    -11.222535     8A    -11.214749     9A     -1.459670
      10A     -1.367395    11A     -1.097891    12A     -1.041412
      13A     -0.959322    14A     -0.865563    15A     -0.818156
      16A     -0.783892    17A     -0.713079    18A     -0.672710
      19A     -0.664331    20A     -0.633955    21A     -0.616442
      22A     -0.587577    23A     -0.561735    24A     -0.558934
      25A     -0.526855    26A     -0.512115    27A     -0.501091
      28A     -0.493574    29A     -0.472110    30A     -0.466460
      31A     -0.459773    32A     -0.443147

  @DF-RHF Final Energy:  -383.92704463751960

   => Energetics <=

    Nuclear Repulsion Energy =            375.0813638857461569
    One-Electron Energy =               -1266.1282599498167656
    Two-Electron Energy =                 507.1198514265511790
    DFT Exchange-Correlation Energy =       0.0000000000000000
    Empirical Dispersion Energy =           0.0000000000000000
    PCM Polarization Energy =               0.0000000000000000
    EFP Energy =                            0.0000000000000000
    Total Energy =                       -383.9270446375193728
    Molecular point group: c1
  Basis Set: 6-31G*
  Basis Set:

  -Total Gradient:
     Atom            X                  Y                   Z
    ------   -----------------  -----------------  -----------------
       1        0.000475568063     0.000299229866    -0.000235608337
       2       -0.000586986904    -0.000493534812     0.000069039929
       3        0.000187232351     0.000315284424     0.000674853701
       4       -0.000009858693     0.000006800392     0.000002094001
       5       -0.000070348491    -0.000130952295    -0.000513523800
       6       -0.000016358422     0.000001532265    -0.000004447639
       7        0.000005810453     0.000001671121    -0.000001412380
       8        0.000001771566     0.000003039523    -0.000002941396
       9       -0.000006601481     0.000005591184    -0.000007206656
      10        0.000006433172     0.000003792934    -0.000002744420
      11        0.000003824870    -0.000000506255     0.000005519444
      12        0.000010421433    -0.000010583140     0.000014428626
      13       -0.000007603438    -0.000005089974    -0.000000437709
      14        0.000003259113    -0.000001039292     0.000001230378
      15       -0.000003405900     0.000009812097    -0.000005140577
      16        0.000009517375    -0.000003199934     0.000009583868
      17        0.000000502523    -0.000005739866    -0.000000860677
      18       -0.000001481850     0.000004164100    -0.000003187729
      19       -0.000003121985     0.000001903012     0.000003487189
      20        0.000001426245    -0.000002175348    -0.000002725814

  **** Optimization is complete! (in 7 steps) ****
    Final optimized geometry and variables:
    Molecular point group: c1

    Geometry (in Angstrom), charge = 0, multiplicity = 1:

    H            2.865633287899    -1.719180526573    -0.648028608399
    O            2.877933987699    -1.162664676738     0.121110189781
    C            2.085780238168    -0.065345964192    -0.039668749752
    C            0.627227856362    -0.333425478797     0.244431938886
    O            2.542058274203     0.983531499436    -0.326073000472
    C           -0.266310927294     0.892236459791     0.069472165513
    H            0.316845818903    -1.154645387734    -0.396585166858
    H            0.571406963306    -0.720263047756     1.259191339029
    C           -1.727678325187     0.654414654086     0.464180445845
    H           -0.214147010207     1.230633588700    -0.961325776352
    H            0.137932378534     1.699287278785     0.670475274722
    C           -2.485583212802    -0.334013936076    -0.426638617374
    H           -2.244153101774     1.611032246275     0.436975967279
    H           -1.774105405872     0.316331994505     1.498341957277
    C           -3.963125934736    -0.448521843690    -0.052187193697
    H           -2.399858200178    -0.019086459564    -1.464773017130
    H           -2.030118929675    -1.319283548403    -0.366546436827
    H           -4.478391900678    -1.154807216374    -0.695598799938
    H           -4.465590816827     0.510088539580    -0.143212169360
    H           -4.082222593207    -0.787221066138     0.973100448042

  Mulliken Charges: (a.u.)
   Center  Symbol    Alpha    Beta     Spin     Total
       1     H     0.26702  0.26702  0.00000  0.46595
       2     O     4.36967  4.36967  0.00000 -0.73935
       3     C     2.62791  2.62791  0.00000  0.74418
       4     C     3.21340  3.21340  0.00000 -0.42679
       5     O     4.24474  4.24474  0.00000 -0.48948
       6     C     3.15459  3.15459  0.00000 -0.30918
       7     H     0.41017  0.41017  0.00000  0.17967
       8     H     0.39714  0.39714  0.00000  0.20572
       9     C     3.15559  3.15559  0.00000 -0.31118
      10     H     0.41397  0.41397  0.00000  0.17206
      11     H     0.40606  0.40606  0.00000  0.18788
      12     C     3.15471  3.15471  0.00000 -0.30942
      13     H     0.41731  0.41731  0.00000  0.16538
      14     H     0.42299  0.42299  0.00000  0.15401
      15     C     3.23921  3.23921  0.00000 -0.47842
      16     H     0.42194  0.42194  0.00000  0.15612
      17     H     0.42413  0.42413  0.00000  0.15174
      18     H     0.41843  0.41843  0.00000  0.16315
      19     H     0.42012  0.42012  0.00000  0.15976
      20     H     0.42091  0.42091  0.00000  0.15819

   Total alpha = 32.00000, Total beta = 32.00000, Total charge = -0.00000
