                              Psi4 1.0.54 Driver

  ==> Input File <==

--------------------------------------------------------------------------
set {
	reference rhf
	basis cc-pvtz
}

set_num_threads( 4 )
memory 2 gb

molecule MOL {
0 1

O	 -2.440701	 -0.934798	 -0.415053
C	 -1.922978	 0.063265	 -0.045005
C	 -2.632749	 1.372204	 0.158357
O	 -0.637375	 0.157174	 0.243149
H	 -2.187724	 2.129143	 -0.474664
H	 -3.677681	 1.257276	 -0.079438
H	 -2.516788	 1.693160	 1.185542
C	 0.162530	 -1.009518	 0.097799
C	 1.587210	 -0.664190	 0.477086
H	 0.096803	 -1.356267	 -0.924704
H	 -0.233803	 -1.785900	 0.736810
C	 2.138865	 -1.476994	 1.645328
H	 1.607625	 0.392883	 0.727916
H	 2.223211	 -0.790094	 -0.393827
C	 3.564237	 -1.081307	 2.015952
H	 1.491544	 -1.345037	 2.508265
H	 2.108691	 -2.531356	 1.395824
H	 3.929221	 -1.670007	 2.849382
H	 3.621179	 -0.035582	 2.299871
H	 4.241580	 -1.233651	 1.182277

	symmetry c1
}
set optking {
	frozen_dihedral = ("
		12 9 8 10
	")
}

ee,wfn = optimize('scf', return_wfn=True)
oeprop( wfn, 'DIPOLE', 'QUADRUPOLE', 'MULLIKEN_CHARGES')
f=open( 'psi4out.xyz', 'w' )
f.write( "20  " )
f.write( str(ee) + "\n" )
f.write( MOL.save_string_xyz() )
f.close()
--------------------------------------------------------------------------

    Molecular point group: c1
  Charge       = 0
  Multiplicity = 1
  Basis Set: CC-PVTZ
  Basis Set:
  @DF-RHF Final Energy:  -384.08169953788541
    Total Energy =                       -384.0816995378853562
    Molecular point group: c1
  Basis Set: CC-PVTZ
  Basis Set:
  Basis Set: CC-PVTZ
  Basis Set:
  @DF-RHF Final Energy:  -384.08195854992880
    Total Energy =                       -384.0819585499287996
  Basis Set: CC-PVTZ
  Basis Set:
  Basis Set: CC-PVTZ
  Basis Set:
  @DF-RHF Final Energy:  -384.08174306531868
    Total Energy =                       -384.0817430653181646
  Basis Set: CC-PVTZ
  Basis Set:
  Basis Set: CC-PVTZ
  Basis Set:
  @DF-RHF Final Energy:  -384.08202618041889
    Total Energy =                       -384.0820261804190068
  Basis Set: CC-PVTZ
  Basis Set:
  Basis Set: CC-PVTZ
  Basis Set:
  @DF-RHF Final Energy:  -384.08203093606960
    Total Energy =                       -384.0820309360700548
  Basis Set: CC-PVTZ
  Basis Set:
  Charge       = 0
  Multiplicity = 1
  Basis Set: CC-PVTZ
  Basis Set:

    Orbital Energies (a.u.)
    -----------------------

    Doubly Occupied:

       1A    -20.594063     2A    -20.532188     3A    -11.365939
       4A    -11.279907     5A    -11.231223     6A    -11.222739
       7A    -11.222041     8A    -11.212790     9A     -1.470308
      10A     -1.364428    11A     -1.086167    12A     -1.029962
      13A     -0.980158    14A     -0.882778    15A     -0.808135
      16A     -0.781862    17A     -0.692169    18A     -0.684853
      19A     -0.670556    20A     -0.634806    21A     -0.600981
      22A     -0.594017    23A     -0.571559    24A     -0.556308
      25A     -0.545627    26A     -0.523664    27A     -0.514323
      28A     -0.482191    29A     -0.480919    30A     -0.476466
      31A     -0.450094    32A     -0.440228

  @DF-RHF Final Energy:  -384.08203105659004

   => Energetics <=

    Nuclear Repulsion Energy =            380.6468397881119472
    One-Electron Energy =               -1277.4908422931302994
    Two-Electron Energy =                 512.7619714484285396
    DFT Exchange-Correlation Energy =       0.0000000000000000
    Empirical Dispersion Energy =           0.0000000000000000
    PCM Polarization Energy =               0.0000000000000000
    EFP Energy =                            0.0000000000000000
    Total Energy =                       -384.0820310565898126
    Molecular point group: c1
  Basis Set: CC-PVTZ
  Basis Set:

  -Total Gradient:
     Atom            X                  Y                   Z
    ------   -----------------  -----------------  -----------------
       1        0.000009079103     0.000015863235     0.000005695438
       2        0.000026505235     0.000023435779     0.000009571674
       3       -0.000013738825    -0.000003403694     0.000001465253
       4       -0.000060403700    -0.000031724352    -0.000015471544
       5       -0.000007865546    -0.000013403579     0.000010404933
       6        0.000025954719     0.000001842716     0.000005117901
       7       -0.000002087390    -0.000002879327    -0.000019608072
       8       -0.000007641798     0.000125397989    -0.000043757832
       9       -0.000013816287     0.000047903581     0.000061064414
      10        0.000017030920    -0.000083804965     0.000035055795
      11        0.000003193966     0.000009237011     0.000002266860
      12        0.000028855718    -0.000054139738    -0.000059502095
      13       -0.000006916048    -0.000020029257    -0.000009991486
      14       -0.000003373975    -0.000014457833    -0.000000139967
      15        0.000006322859     0.000012313520     0.000026919137
      16       -0.000004368871    -0.000013866031    -0.000005496017
      17        0.000003526224    -0.000004937425    -0.000008444773
      18        0.000003077397     0.000008825162     0.000003032212
      19        0.000007359133     0.000002745880    -0.000000486443
      20       -0.000010692831    -0.000004918670     0.000002304611

  **** Optimization is complete! (in 6 steps) ****
    Final optimized geometry and variables:
    Molecular point group: c1

    Geometry (in Angstrom), charge = 0, multiplicity = 1:

    O           -2.405653239478    -0.529701710066    -0.920953183977
    C           -1.904146452640     0.480215386831    -0.560322893236
    C           -2.636820523625     1.777215862922    -0.362993751030
    O           -0.619017379535     0.600437795310    -0.281156519876
    H           -2.208112196371     2.537222676341    -1.003397570670
    H           -3.680534703689     1.641565708381    -0.595073524870
    H           -2.522047151825     2.107452251117     0.661306958415
    C            0.201540795921    -0.553822200008    -0.427551675611
    C            1.636579980593    -0.183147946089    -0.047752272263
    H            0.128422202656    -0.900259789137    -1.447644346124
    H           -0.189528797013    -1.334841761410     0.208811234998
    C            2.185591406443    -1.000877081960     1.119219094342
    H            1.661372102125     0.869961617148     0.203590581297
    H            2.284456617543    -0.309293313093    -0.908548064879
    C            3.615930421261    -0.623271171799     1.486053235778
    H            1.540822515812    -0.865124699631     1.982932918833
    H            2.144155122183    -2.057802898824     0.870579972927
    H            3.976802308130    -1.217388992289     2.317334957203
    H            3.683418999303     0.421270053652     1.771103995071
    H            4.289090805891    -0.780808724001     0.649960712462

  Mulliken Charges: (a.u.)
   Center  Symbol    Alpha    Beta     Spin     Total
       1     O     4.19726  4.19726  0.00000 -0.39452
       2     C     2.80715  2.80715  0.00000  0.38570
       3     C     3.13769  3.13769  0.00000 -0.27539
       4     O     4.15160  4.15160  0.00000 -0.30319
       5     H     0.44582  0.44582  0.00000  0.10836
       6     H     0.43812  0.43812  0.00000  0.12377
       7     H     0.44613  0.44613  0.00000  0.10775
       8     C     2.98594  2.98594  0.00000  0.02812
       9     C     3.09034  3.09034  0.00000 -0.18069
      10     H     0.45035  0.45035  0.00000  0.09930
      11     H     0.45360  0.45360  0.00000  0.09281
      12     C     3.08958  3.08958  0.00000 -0.17915
      13     H     0.44602  0.44602  0.00000  0.10797
      14     H     0.44993  0.44993  0.00000  0.10015
      15     C     3.15048  3.15048  0.00000 -0.30097
      16     H     0.45155  0.45155  0.00000  0.09690
      17     H     0.45264  0.45264  0.00000  0.09472
      18     H     0.44717  0.44717  0.00000  0.10566
      19     H     0.45408  0.45408  0.00000  0.09184
      20     H     0.45456  0.45456  0.00000  0.09088

   Total alpha = 32.00000, Total beta = 32.00000, Total charge = -0.00000

*** Psi4 exiting successfully. Buy a developer a beer!
