  ==> Input File <==

--------------------------------------------------------------------------
set {
	reference rhf
	basis cc-pvtz
}

set_num_threads( 4 )
memory 2 gb

molecule MOL {
0 1

H	 -1.835082	 1.385983	 0.000069
C	 -1.300516	 0.441153	 -0.000028
O	 -0.006604	 0.654344	 -0.000106
O	 -1.828920	 -0.612308	 0.000113
C	 0.749609	 0.139884	 1.092274
C	 2.196152	 0.510538	 0.866823
H	 0.614373	 -0.931416	 1.136848
H	 0.367889	 0.562177	 2.010926
H	 2.563690	 0.084356	 -0.057977
H	 2.800423	 0.132700	 1.682880
H	 2.315966	 1.585464	 0.820468

	symmetry c1
}
set optking {
	frozen_dihedral = ("
		5 3 2 4
	")
}

ee = optimize('scf')
oeprop('DIPOLE', 'QUADRUPOLE', 'MULLIKEN_CHARGES')
f=open( 'psi4out.xyz', 'w' )
f.write( "11  " )
f.write( str(ee) + "\n" )
f.write( MOL.save_string_xyz() )
f.close()
--------------------------------------------------------------------------

    Molecular point group: c1
  Charge       = 0
  Multiplicity = 1
  Basis Set: CC-PVTZ
  Basis Set:
  @DF-RHF Final Energy:  -266.91684416214810
    Total Energy =                       -266.9168441621480952
    Molecular point group: c1
  Basis Set: CC-PVTZ
  Basis Set:
  Basis Set: CC-PVTZ
  Basis Set:
  @DF-RHF Final Energy:  -266.91105713474008
    Total Energy =                       -266.9110571347399059
  Basis Set: CC-PVTZ
  Basis Set:
  Basis Set: CC-PVTZ
  Basis Set:
  @DF-RHF Final Energy:  -266.91766094876732
    Total Energy =                       -266.9176609487674341
  Basis Set: CC-PVTZ
  Basis Set:
  Basis Set: CC-PVTZ
  Basis Set:
  @DF-RHF Final Energy:  -266.91790601606579
    Total Energy =                       -266.9179060160658423
  Basis Set: CC-PVTZ
  Basis Set:
  Basis Set: CC-PVTZ
  Basis Set:
  @DF-RHF Final Energy:  -266.91791254753997
    Total Energy =                       -266.9179125475398564
  Basis Set: CC-PVTZ
  Basis Set:
  Charge       = 0
  Multiplicity = 1
  Basis Set: CC-PVTZ
  Basis Set:

    Orbital Energies (a.u.)
    -----------------------

    Doubly Occupied:

       1A    -20.589977     2A    -20.555607     3A    -11.372721
       4A    -11.295496     5A    -11.225579     6A     -1.470923
       7A     -1.379509     8A     -1.050828     9A     -0.895149
      10A     -0.816374    11A     -0.743111    12A     -0.690819
      13A     -0.661458    14A     -0.627959    15A     -0.564021
      16A     -0.545949    17A     -0.532659    18A     -0.509758
      19A     -0.467146    20A     -0.452838

  @DF-RHF Final Energy:  -266.91791385287684

   => Energetics <=

    Nuclear Repulsion Energy =            178.1177442253725474
    One-Electron Energy =                -717.1755560494024166
    Two-Electron Energy =                 272.1398979711531183
    DFT Exchange-Correlation Energy =       0.0000000000000000
    Empirical Dispersion Energy =           0.0000000000000000
    PCM Polarization Energy =               0.0000000000000000
    EFP Energy =                            0.0000000000000000
    Total Energy =                       -266.9179138528767226
    Molecular point group: c1
  Basis Set: CC-PVTZ
  Basis Set:

  -Total Gradient:
     Atom            X                  Y                   Z
    ------   -----------------  -----------------  -----------------
       1        0.000017660608    -0.000029331603     0.000005907344
       2       -0.000618647264     0.001782870823     0.014853476922
       3        0.001758452288    -0.007626081289    -0.009993119583
       4        0.000034251894     0.000575788926    -0.008627638106
       5       -0.001190597538     0.005284305601     0.003768556931
       6       -0.000015644259    -0.000003143806     0.000008782417
       7        0.000012806774     0.000018604467    -0.000013837938
       8        0.000011250643     0.000005465293     0.000001465302
       9       -0.000004102431    -0.000005085599    -0.000003206631
      10       -0.000001133595     0.000001193737    -0.000003484783
      11       -0.000004297119    -0.000004586549     0.000003098124

  **** Optimization is complete! (in 6 steps) ****
    Final optimized geometry and variables:
    Molecular point group: c1

    Geometry (in Angstrom), charge = 0, multiplicity = 1:

    H           -1.889533424985     1.112502368266    -0.418300705692
    C           -1.287311003254     0.207803587461    -0.382514950233
    O            0.012448449318     0.484192441950    -0.342706786179
    O           -1.747939094835    -0.868605382232    -0.469259269516
    C            0.782057909108    -0.071133549815     0.720443026131
    C            2.233584199387     0.261630362826     0.472800904200
    H            0.623707592002    -1.139804295329     0.754305169583
    H            0.439865267367     0.359545489177     1.654485632318
    H            2.568788395340    -0.172094710080    -0.460349365962
    H            2.842416513538    -0.134922857432     1.276682061679
    H            2.379309236825     1.333191696209     0.426456666243

  Mulliken Charges: (a.u.)
   Center  Symbol    Alpha    Beta     Spin     Total
       1     H     0.45889  0.45889  0.00000  0.08222
       2     C     2.83801  2.83801  0.00000  0.32398
       3     O     4.15853  4.15853  0.00000 -0.31707
       4     O     4.17471  4.17471  0.00000 -0.34943
       5     C     2.96990  2.96990  0.00000  0.06020
       6     C     3.13465  3.13465  0.00000 -0.26930
       7     H     0.44937  0.44937  0.00000  0.10127
       8     H     0.46270  0.46270  0.00000  0.07459
       9     H     0.44742  0.44742  0.00000  0.10516
      10     H     0.45568  0.45568  0.00000  0.08864
      11     H     0.45013  0.45013  0.00000  0.09973

   Total alpha = 20.00000, Total beta = 20.00000, Total charge = -0.00000
