  ==> Input File <==

--------------------------------------------------------------------------
set {
	reference rhf
	basis 6-31G*
}

set_num_threads( 4 )
memory 2 gb

molecule MOL {
0 1

H	 -3.161837	 0.500524	 -0.000234
C	 -2.367097	 -0.232926	 -0.000000
O	 -1.158440	 0.455814	 -0.000122
H	 -2.468853	 -0.861886	 -0.882833
H	 -2.468942	 -0.861421	 0.883154
C	 -0.029776	 -0.365156	 0.000148
C	 1.212217	 0.508981	 0.000007
H	 -0.036772	 -1.013236	 -0.877259
H	 -0.036869	 -1.012778	 0.877897
C	 2.133921	 0.214596	 -1.182651
H	 0.901165	 1.548992	 -0.016898
H	 1.741433	 0.355416	 0.935446
H	 1.630294	 0.385857	 -2.129992
H	 3.011566	 0.851741	 -1.157532
H	 2.476039	 -0.816534	 -1.171310

	symmetry c1
}
set optking {
	frozen_dihedral = ("
		11 7 6 8
	")
}

ee = optimize('scf')
oeprop('DIPOLE', 'QUADRUPOLE', 'MULLIKEN_CHARGES')
f=open( 'psi4out.xyz', 'w' )
f.write( "15  " )
f.write( str(ee) + "\n" )
f.write( MOL.save_string_xyz() )
f.close()
--------------------------------------------------------------------------

    Molecular point group: c1
  Charge       = 0
  Multiplicity = 1
  Basis Set: 6-31G*
  Basis Set:
  @DF-RHF Final Energy:  -232.13309017898908
    Total Energy =                       -232.1330901789888230
    Molecular point group: c1
  Basis Set: 6-31G*
  Basis Set:
  Basis Set: 6-31G*
  Basis Set:
  @DF-RHF Final Energy:  -232.13343441643087
    Total Energy =                       -232.1334344164309300
  Basis Set: 6-31G*
  Basis Set:
  Basis Set: 6-31G*
  Basis Set:
  @DF-RHF Final Energy:  -232.13356071526781
    Total Energy =                       -232.1335607152676630
  Basis Set: 6-31G*
  Basis Set:
  Charge       = 0
  Multiplicity = 1
  Basis Set: 6-31G*
  Basis Set:

    Orbital Energies (a.u.)
    -----------------------

    Doubly Occupied:

       1A    -20.553366     2A    -11.266576     3A    -11.263574
       4A    -11.213986     5A    -11.210772     6A     -1.377564
       7A     -1.053031     8A     -0.953849     9A     -0.878698
      10A     -0.808673    11A     -0.669482    12A     -0.657128
      13A     -0.631499    14A     -0.593766    15A     -0.572757
      16A     -0.545199    17A     -0.492934    18A     -0.489227
      19A     -0.479794    20A     -0.460993    21A     -0.411079

  @DF-RHF Final Energy:  -232.13356145364168

   => Energetics <=

    Nuclear Repulsion Energy =            189.9696595338600105
    One-Electron Energy =                -691.0385425669132928
    Two-Electron Energy =                 268.9353215794116068
    DFT Exchange-Correlation Energy =       0.0000000000000000
    Empirical Dispersion Energy =           0.0000000000000000
    PCM Polarization Energy =               0.0000000000000000
    EFP Energy =                            0.0000000000000000
    Total Energy =                       -232.1335614536416756
    Molecular point group: c1
  Basis Set: 6-31G*
  Basis Set:

  -Total Gradient:
     Atom            X                  Y                   Z
    ------   -----------------  -----------------  -----------------
       1       -0.000050273963    -0.000030565044    -0.000000702607
       2       -0.000076093263     0.000053315857     0.000002139833
       3        0.000149878330    -0.000131116803     0.000025586562
       4       -0.000000855614    -0.000003445574     0.000010870249
       5       -0.000001318122    -0.000002625076    -0.000012314423
       6       -0.000479913713     0.000760993551    -0.000359377070
       7        0.000181762586    -0.000143822146    -0.000771688837
       8        0.000330653718    -0.000510762189     0.000364459147
       9       -0.000030178635     0.000004491892     0.000002856899
      10       -0.000002101706     0.000004365512    -0.000011183728
      11        0.000001068408     0.000024657902     0.000723986569
      12       -0.000011646178    -0.000014380295     0.000005333047
      13       -0.000020165715    -0.000035548800     0.000002687742
      14       -0.000015464256     0.000016967955    -0.000001132708
      15        0.000024648121     0.000007473259     0.000018479325

  **** Optimization is complete! (in 4 steps) ****
    Final optimized geometry and variables:
    Molecular point group: c1

    Geometry (in Angstrom), charge = 0, multiplicity = 1:

    H           -3.098429287031     0.393092276339     0.244235318602
    C           -2.302284136385    -0.338947121728     0.247084625447
    O           -1.094668387089     0.350930720071     0.236214556151
    H           -2.407020051932    -0.975675733627    -0.629984306220
    H           -2.399452392618    -0.960700875890     1.135655994026
    C            0.034100531314    -0.474363926063     0.237782321843
    C            1.298583211864     0.395949428160     0.236161720738
    H            0.013843682596    -1.125767538889    -0.636217142587
    H            0.009728454721    -1.123642739089     1.112266468310
    C            2.231273303236     0.115197544520    -0.941745825129
    H            0.979240744984     1.431416123434     0.218024559920
    H            1.842136629825     0.258290013668     1.166192314911
    H            1.725249073333     0.285846126656    -1.887398397078
    H            3.104384885174     0.759089913081    -0.909887842510
    H            2.580976750733    -0.913656880646    -0.933742013029

  Mulliken Charges: (a.u.)
   Center  Symbol    Alpha    Beta     Spin     Total
       1     H     0.41226  0.41226  0.00000  0.17548
       2     C     3.07983  3.07983  0.00000 -0.15965
       3     O     4.30500  4.30500  0.00000 -0.60999
       4     H     0.43057  0.43057  0.00000  0.13885
       5     H     0.43053  0.43053  0.00000  0.13894
       6     C     2.98840  2.98840  0.00000  0.02321
       7     C     3.16686  3.16686  0.00000 -0.33372
       8     H     0.42986  0.42986  0.00000  0.14029
       9     H     0.43067  0.43067  0.00000  0.13866
      10     C     3.24479  3.24479  0.00000 -0.48958
      11     H     0.40269  0.40269  0.00000  0.19461
      12     H     0.41944  0.41944  0.00000  0.16113
      13     H     0.41789  0.41789  0.00000  0.16421
      14     H     0.41843  0.41843  0.00000  0.16313
      15     H     0.42279  0.42279  0.00000  0.15443

   Total alpha = 21.00000, Total beta = 21.00000, Total charge =  0.00000
