  ==> Input File <==

--------------------------------------------------------------------------
set {
	reference rhf
	basis 6-31G*
}

set_num_threads( 1 )
memory 2 gb

molecule MOL {
0 1

H	 2.130696	 -0.615975	 1.325223
C	 1.951159	 -0.223429	 0.317018
C	 0.692068	 0.589600	 0.160137
O	 2.723218	 -0.449442	 -0.557609
C	 -0.558097	 -0.297372	 0.091132
H	 0.791645	 1.202255	 -0.728243
H	 0.616171	 1.253469	 1.020572
C	 -1.850991	 0.512573	 -0.019058
H	 -0.476753	 -0.965681	 -0.762987
H	 -0.604799	 -0.930658	 0.975228
C	 -3.096943	 -0.368295	 -0.099594
H	 -1.800724	 1.150330	 -0.898172
H	 -1.931651	 1.177355	 0.838044
H	 -3.060452	 -1.020287	 -0.967456
H	 -3.996858	 0.233488	 -0.175704
H	 -3.191959	 -0.995686	 0.782074

	symmetry c1
}
set optking {
	frozen_dihedral = ("
		9 5 8 12,
		6 3 5 9
	")
}

ee = energy('scf')
oeprop('DIPOLE', 'QUADRUPOLE', 'MULLIKEN_CHARGES')
f=open( 'psi4out.xyz', 'w' )
f.write( "16  " )
f.write( str(ee) + "\n" )
f.write( MOL.save_string_xyz() )
f.close()
--------------------------------------------------------------------------

    Molecular point group: c1

    Geometry (in Angstrom), charge = 0, multiplicity = 1:

       Center              X                  Y                   Z               Mass
    ------------   -----------------  -----------------  -----------------  -----------------
           H          2.158705584905    -0.567883018830     1.349663685685     1.007825032070
           C          1.979168584905    -0.175337018830     0.341458685685    12.000000000000
           C          0.720077584905     0.637691981170     0.184577685685    12.000000000000
           O          2.751227584905    -0.401350018830    -0.533168314315    15.994914619560
           C         -0.530087415095    -0.249280018830     0.115572685685    12.000000000000
           H          0.819654584905     1.250346981170    -0.703802314315     1.007825032070
           H          0.644180584905     1.301560981170     1.045012685685     1.007825032070
           C         -1.822981415095     0.560664981170     0.005382685685    12.000000000000
           H         -0.448743415095    -0.917589018830    -0.738546314315     1.007825032070
           H         -0.576789415095    -0.882566018830     0.999668685685     1.007825032070
           C         -3.068933415095    -0.320203018830    -0.075153314315    12.000000000000
           H         -1.772714415095     1.198421981170    -0.873731314315     1.007825032070
           H         -1.903641415095     1.225446981170     0.862484685685     1.007825032070
           H         -3.032442415095    -0.972195018830    -0.943015314315     1.007825032070
           H         -3.968848415095     0.281579981170    -0.151263314315     1.007825032070
           H         -3.163949415095    -0.947594018830     0.806514685685     1.007825032070

  Charge       = 0
  Multiplicity = 1
  Basis Set: 6-31G*
  Basis Set:

    Orbital Energies (a.u.)
    -----------------------

    Doubly Occupied:

       1A    -20.562671     2A    -11.326460     3A    -11.236688
       4A    -11.235020     5A    -11.228826     6A    -11.217987
       7A     -1.402430     8A     -1.095696     9A     -1.018386
      10A     -0.906826    11A     -0.812754    12A     -0.790101
      13A     -0.680540    14A     -0.646026    15A     -0.629200
      16A     -0.603225    17A     -0.578389    18A     -0.552660
      19A     -0.525048    20A     -0.512019    21A     -0.487330
      22A     -0.479966    23A     -0.478279    24A     -0.408506

  @DF-RHF Final Energy:  -270.01943684750489

   => Energetics <=

    Nuclear Repulsion Energy =            229.3495153475248571
    One-Electron Energy =                -819.9078949296913379
    Two-Electron Energy =                 320.5389427346610773
    DFT Exchange-Correlation Energy =       0.0000000000000000
    Empirical Dispersion Energy =           0.0000000000000000
    PCM Polarization Energy =               0.0000000000000000
    EFP Energy =                            0.0000000000000000
    Total Energy =                       -270.0194368475054034

  Mulliken Charges: (a.u.)
   Center  Symbol    Alpha    Beta     Spin     Total
       1     H     0.43157  0.43157  0.00000  0.13687
       2     C     2.83407  2.83407  0.00000  0.33187
       3     C     3.20396  3.20396  0.00000 -0.40791
       4     O     4.23599  4.23599  0.00000 -0.47198
       5     C     3.16292  3.16292  0.00000 -0.32584
       6     H     0.39994  0.39994  0.00000  0.20011
       7     H     0.41450  0.41450  0.00000  0.17099
       8     C     3.15179  3.15179  0.00000 -0.30358
       9     H     0.41023  0.41023  0.00000  0.17955
      10     H     0.41901  0.41901  0.00000  0.16198
      11     C     3.24063  3.24063  0.00000 -0.48125
      12     H     0.41832  0.41832  0.00000  0.16336
      13     H     0.42112  0.42112  0.00000  0.15777
      14     H     0.41892  0.41892  0.00000  0.16215
      15     H     0.41650  0.41650  0.00000  0.16701
      16     H     0.42054  0.42054  0.00000  0.15892

   Total alpha = 24.00000, Total beta = 24.00000, Total charge =  0.00000
