                              Psi4 1.0.54 Driver

  ==> Input File <==

--------------------------------------------------------------------------
set {
	reference rhf
	basis cc-pvtz
}

set_num_threads( 4 )
memory 2 gb

molecule MOL {
0 1

O	 -0.589882	 -1.140363	 -1.474203
C	 -0.487940	 -0.135439	 -0.830423
C	 -1.609220	 0.883163	 -0.834118
N	 0.622280	 0.144970	 -0.099307
H	 -1.267761	 1.844476	 -1.196924
H	 -2.381345	 0.510015	 -1.486096
H	 -2.017735	 1.023863	 0.159006
C	 1.664396	 -0.854993	 0.000772
C	 0.706894	 1.222323	 0.857722
H	 2.462727	 -0.615153	 -0.690869
H	 1.261798	 -1.821849	 -0.240651
H	 2.081615	 -0.891605	 1.003877
H	 1.721581	 1.598482	 0.881176
H	 0.062013	 2.042492	 0.592492
H	 0.450369	 0.893972	 1.862423

	symmetry c1
}
set optking {
	frozen_dihedral = ("
		2 4 8 10
	")
}

ee,wfn = optimize('scf', return_wfn=True)
oeprop( wfn, 'DIPOLE', 'QUADRUPOLE', 'MULLIKEN_CHARGES')
f=open( 'psi4out.xyz', 'w' )
f.write( "15  " )
f.write( str(ee) + "\n" )
f.write( MOL.save_string_xyz() )
f.close()
--------------------------------------------------------------------------

    Molecular point group: c1
  Charge       = 0
  Multiplicity = 1
  Basis Set: CC-PVTZ
  Basis Set:
  @DF-RHF Final Energy:  -286.13406822719048
    Total Energy =                       -286.1340682271904825
    Molecular point group: c1
  Basis Set: CC-PVTZ
  Basis Set:
  Basis Set: CC-PVTZ
  Basis Set:
  @DF-RHF Final Energy:  -286.13468300425802
    Total Energy =                       -286.1346830042579086
  Basis Set: CC-PVTZ
  Basis Set:
  Basis Set: CC-PVTZ
  Basis Set:
  @DF-RHF Final Energy:  -286.13481150295240
    Total Energy =                       -286.1348115029524024
  Basis Set: CC-PVTZ
  Basis Set:
  Basis Set: CC-PVTZ
  Basis Set:
  @DF-RHF Final Energy:  -286.13500608673178
    Total Energy =                       -286.1350060867314937
  Basis Set: CC-PVTZ
  Basis Set:
  @DF-RHF Final Energy:  -286.13511793712962
    Total Energy =                       -286.1351179371299054
  @DF-RHF Final Energy:  -286.13526883989272
    Total Energy =                       -286.1352688398922623
  @DF-RHF Final Energy:  -286.13532997149423
    Total Energy =                       -286.1353299714942295
  @DF-RHF Final Energy:  -286.13538055793492
    Total Energy =                       -286.1353805579346385
  @DF-RHF Final Energy:  -286.13541540828021
    Total Energy =                       -286.1354154082800960
  @DF-RHF Final Energy:  -286.13548446829611
    Total Energy =                       -286.1354844682958856
  @DF-RHF Final Energy:  -286.13551017880684
    Total Energy =                       -286.1355101788066690
  @DF-RHF Final Energy:  -286.13554855242523
    Total Energy =                       -286.1355485524250071
  @DF-RHF Final Energy:  -286.13492923666098
    Total Energy =                       -286.1349292366610371
  @DF-RHF Final Energy:  -286.13558989417368
    Total Energy =                       -286.1355898941736768
  Basis Set: CC-PVTZ
  Basis Set:
  @DF-RHF Final Energy:  -286.13562862851063
    Total Energy =                       -286.1356286285106307
  Basis Set: CC-PVTZ
  Basis Set:
  Basis Set: CC-PVTZ
  Basis Set:
  @DF-RHF Final Energy:  -286.13563892958513
    Total Energy =                       -286.1356389295855820
  Basis Set: CC-PVTZ
  Basis Set:
  Basis Set: CC-PVTZ
  Basis Set:
  @DF-RHF Final Energy:  -286.13564085668486
    Total Energy =                       -286.1356408566847449
  Basis Set: CC-PVTZ
  Basis Set:
  Charge       = 0
  Multiplicity = 1
  Basis Set: CC-PVTZ
  Basis Set:

    Orbital Energies (a.u.)
    -----------------------

    Doubly Occupied:

       1A    -20.503528     2A    -15.578517     3A    -11.335168
       4A    -11.263987     5A    -11.246435     6A    -11.226499
       7A     -1.387304     8A     -1.246340     9A     -1.015087
      10A     -0.973230    11A     -0.920919    12A     -0.739106
      13A     -0.683306    14A     -0.661951    15A     -0.653851
      16A     -0.590416    17A     -0.578196    18A     -0.567434
      19A     -0.561625    20A     -0.548420    21A     -0.530396
      22A     -0.507264    23A     -0.413691    24A     -0.370446

  @DF-RHF Final Energy:  -286.13564101748784

   => Energetics <=

    Nuclear Repulsion Energy =            252.8869920203250956
    One-Electron Energy =                -889.8390340867321129
    Two-Electron Energy =                 350.8164010489193743
    DFT Exchange-Correlation Energy =       0.0000000000000000
    Empirical Dispersion Energy =           0.0000000000000000
    PCM Polarization Energy =               0.0000000000000000
    EFP Energy =                            0.0000000000000000
    Total Energy =                       -286.1356410174876146
    Molecular point group: c1
  Basis Set: CC-PVTZ
  Basis Set:

  -Total Gradient:
     Atom            X                  Y                   Z
    ------   -----------------  -----------------  -----------------
       1        0.000012474311    -0.000009595519     0.000004466218
       2       -0.000014401651    -0.000010868024    -0.000012261094
       3       -0.000003245649     0.000035161551    -0.000006139006
       4       -0.000003018542     0.000006878161    -0.000015993189
       5       -0.000008425043    -0.000000703093    -0.000002195215
       6        0.000003014005    -0.000002586928     0.000005420334
       7        0.000003848095    -0.000002441610     0.000005232082
       8        0.000031681310    -0.000016260498     0.000010437862
       9        0.000004697276    -0.000008757083     0.000011539043
      10       -0.000011741050    -0.000001998761    -0.000002880421
      11       -0.000004177358     0.000002133973     0.000000124013
      12        0.000000060724    -0.000000765496    -0.000002991109
      13        0.000006195759     0.000002605494    -0.000008802540
      14       -0.000025268777     0.000006228627    -0.000007937546
      15        0.000008306591     0.000000969207     0.000021980567

  **** Optimization is complete! (in 18 steps) ****
    Final optimized geometry and variables:
    Molecular point group: c1

    Geometry (in Angstrom), charge = 0, multiplicity = 1:

    O           -0.559768109871    -1.081852883396    -1.210095022229
    C           -0.522555405815    -0.136027885763    -0.475982369334
    C           -1.585626347213     0.938971794165    -0.573312616202
    N            0.440815154985     0.005640646346     0.470820025061
    H           -1.153854446725     1.898997875240    -0.827893075090
    H           -2.272996657939     0.642350621396    -1.347915838346
    H           -2.123505020630     1.048171646256     0.359984527597
    C            1.519476122091    -0.958267622200     0.523608237356
    C            0.653194488294     1.209016545380     1.238641081769
    H            2.416632630183    -0.571514632883     0.047226866014
    H            1.222721203645    -1.860464807188     0.020574922807
    H            1.753803955574    -1.183246369245     1.557090036806
    H            1.420307031338     1.840105262915     0.795838178281
    H           -0.249847762681     1.786986329797     1.332467645557
    H            0.977967241087     0.943891267559     2.236949432586

  Mulliken Charges: (a.u.)
   Center  Symbol    Alpha    Beta     Spin     Total
       1     O     4.22088  4.22088  0.00000 -0.44176
       2     C     2.84565  2.84565  0.00000  0.30871
       3     C     3.16074  3.16074  0.00000 -0.32147
       4     N     3.56144  3.56144  0.00000 -0.12289
       5     H     0.44921  0.44921  0.00000  0.10158
       6     H     0.42858  0.42858  0.00000  0.14283
       7     H     0.44904  0.44904  0.00000  0.10192
       8     C     3.09887  3.09887  0.00000 -0.19773
       9     C     3.09526  3.09526  0.00000 -0.19052
      10     H     0.45774  0.45774  0.00000  0.08451
      11     H     0.42631  0.42631  0.00000  0.14739
      12     H     0.45680  0.45680  0.00000  0.08640
      13     H     0.45469  0.45469  0.00000  0.09062
      14     H     0.44505  0.44505  0.00000  0.10990
      15     H     0.44974  0.44974  0.00000  0.10051

   Total alpha = 24.00000, Total beta = 24.00000, Total charge = -0.00000

*** Psi4 exiting successfully. Buy a developer a beer!
