  ==> Input File <==

--------------------------------------------------------------------------
set {
	reference rhf
	basis 6-31G*
}

set_num_threads( 4 )
memory 2 gb

molecule MOL {
0 1

O	 -0.291628	 1.323815	 -0.000732
C	 -0.449655	 0.146360	 0.000961
C	 -1.783294	 -0.549321	 -0.000296
O	 0.550821	 -0.724572	 0.000672
H	 -1.863538	 -1.185371	 -0.874187
H	 -2.574672	 0.185258	 -0.002793
H	 -1.866414	 -1.182381	 0.875436
C	 1.813353	 -0.251538	 -0.433532
H	 1.757229	 0.097441	 -1.454521
H	 2.484067	 -1.093433	 -0.362086
H	 2.154704	 0.554584	 0.199706

	symmetry c1
}
set optking {
	frozen_dihedral = ("
		8 4 2 1
	")
}

ee = optimize('scf')
oeprop('DIPOLE', 'QUADRUPOLE', 'MULLIKEN_CHARGES')
f=open( 'psi4out.xyz', 'w' )
f.write( "11  " )
f.write( str(ee) + "\n" )
f.write( MOL.save_string_xyz() )
f.close()
--------------------------------------------------------------------------

    Molecular point group: c1
  Charge       = 0
  Multiplicity = 1
  Basis Set: 6-31G*
  Basis Set:
  @DF-RHF Final Energy:  -266.83385887125746
    Total Energy =                       -266.8338588712574619
    Molecular point group: c1
  Basis Set: 6-31G*
  Basis Set:
  Basis Set: 6-31G*
  Basis Set:
  @DF-RHF Final Energy:  -266.83053029990401
    Total Energy =                       -266.8305302999040691
  Basis Set: 6-31G*
  Basis Set:
  Basis Set: 6-31G*
  Basis Set:
  @DF-RHF Final Energy:  -266.83411041127147
    Total Energy =                       -266.8341104112713538
  Basis Set: 6-31G*
  Basis Set:
  Basis Set: 6-31G*
  Basis Set:
  @DF-RHF Final Energy:  -266.83415499682189
    Total Energy =                       -266.8341549968216100
  Basis Set: 6-31G*
  Basis Set:
  Basis Set: 6-31G*
  Basis Set:
  @DF-RHF Final Energy:  -266.83415765434131
    Total Energy =                       -266.8341576543410838
  Basis Set: 6-31G*
  Basis Set:
  Basis Set: 6-31G*
  Basis Set:
  @DF-RHF Final Energy:  -266.83415952579605
    Total Energy =                       -266.8341595257961671
  Basis Set: 6-31G*
  Basis Set:
  Charge       = 0
  Multiplicity = 1
  Basis Set: 6-31G*
  Basis Set:

    Orbital Energies (a.u.)
    -----------------------

    Doubly Occupied:

       1A    -20.603819     2A    -20.547664     3A    -11.376793
       4A    -11.283219     5A    -11.234867     6A     -1.469814
       7A     -1.364915     8A     -1.035226     9A     -0.953573
      10A     -0.778218    11A     -0.695508    12A     -0.680347
      13A     -0.676724    14A     -0.596635    15A     -0.592302
      16A     -0.562046    17A     -0.529161    18A     -0.518922
      19A     -0.457419    20A     -0.442042

  @DF-RHF Final Energy:  -266.83415989649529

   => Energetics <=

    Nuclear Repulsion Energy =            183.1676672769496861
    One-Electron Energy =                -727.2052254672501022
    Two-Electron Energy =                 277.2033982938049235
    DFT Exchange-Correlation Energy =       0.0000000000000000
    Empirical Dispersion Energy =           0.0000000000000000
    PCM Polarization Energy =               0.0000000000000000
    EFP Energy =                            0.0000000000000000
    Total Energy =                       -266.8341598964954642
    Molecular point group: c1
  Basis Set: 6-31G*
  Basis Set:

  -Total Gradient:
     Atom            X                  Y                   Z
    ------   -----------------  -----------------  -----------------
       1       -0.000170174721     0.000201659417     0.006760202938
       2       -0.000288057763    -0.000986339825    -0.012422626287
       3        0.000030941685    -0.000024811971    -0.000042060145
       4        0.001492815728     0.002318272570     0.010601888937
       5        0.000015419336    -0.000027373200     0.000011687891
       6        0.000000998830    -0.000003144775     0.000004450004
       7       -0.000022400102     0.000041969493     0.000028506961
       8       -0.001063379940    -0.001536452350    -0.004973682229
       9       -0.000001350657     0.000005606753     0.000013870305
      10       -0.000003700491     0.000000120338     0.000010999541
      11        0.000008888094     0.000010493546     0.000006762084

  **** Optimization is complete! (in 7 steps) ****
    Final optimized geometry and variables:
    Molecular point group: c1

    Geometry (in Angstrom), charge = 0, multiplicity = 1:

    O           -0.291132125950     1.335794680168     0.027441252269
    C           -0.443150847443     0.158651320350     0.060579017558
    C           -1.773211448285    -0.541054943850     0.118855599250
    O            0.564076142270    -0.706918377974     0.114034144685
    H           -1.886227673829    -1.183526044966    -0.747016602865
    H           -2.567700115484     0.189685775044     0.143758664848
    H           -1.816776046934    -1.169234073121     1.000936864670
    C            1.835788671921    -0.239557614757    -0.299785674039
    H            1.780462370621     0.163929048832    -1.301360950212
    H            2.487619329500    -1.098912796348    -0.280403248857
    H            2.202227466735     0.522920722285     0.371767476933

  Mulliken Charges: (a.u.)
   Center  Symbol    Alpha    Beta     Spin     Total
       1     O     4.27905  4.27905  0.00000 -0.55810
       2     C     2.62255  2.62255  0.00000  0.75490
       3     C     3.28218  3.28218  0.00000 -0.56437
       4     O     4.30062  4.30062  0.00000 -0.60125
       5     H     0.40143  0.40143  0.00000  0.19714
       6     H     0.39675  0.39675  0.00000  0.20650
       7     H     0.39871  0.39871  0.00000  0.20258
       8     C     3.09262  3.09262  0.00000 -0.18525
       9     H     0.41226  0.41226  0.00000  0.17549
      10     H     0.40791  0.40791  0.00000  0.18418
      11     H     0.40592  0.40592  0.00000  0.18817

   Total alpha = 20.00000, Total beta = 20.00000, Total charge = -0.00000
