  ==> Input File <==

--------------------------------------------------------------------------
set {
	reference rhf
	basis 6-31G*
}

set_num_threads( 4 )
memory 2 gb

molecule MOL {
0 1

O	 -2.042549	 -1.228399	 -0.269030
C	 -1.653912	 -0.146171	 0.050137
C	 -0.332303	 0.024011	 0.778412
C	 -2.438579	 1.106236	 -0.272369
C	 0.826507	 0.187812	 -0.217681
H	 -0.371708	 0.881693	 1.444154
H	 -0.171158	 -0.864085	 1.379443
C	 2.182471	 0.331722	 0.474910
H	 0.650952	 1.058998	 -0.846408
H	 0.840209	 -0.674446	 -0.877578
C	 3.337714	 0.485780	 -0.513465
H	 2.158849	 1.191437	 1.141061
H	 2.357310	 -0.538427	 1.103273
H	 3.208558	 1.367831	 -1.134237
H	 3.406727	 -0.374802	 -1.172312
H	 4.286187	 0.582654	 0.005227
H	 -3.277823	 0.863061	 -0.908988
H	 -1.806773	 1.843019	 -0.759671
H	 -2.802853	 1.554979	 0.648059

	symmetry c1
}
set optking {
	frozen_dihedral = ("
		5 3 2 4
	")
}

ee = optimize('scf')
oeprop('DIPOLE', 'QUADRUPOLE', 'MULLIKEN_CHARGES')
f=open( 'psi4out.xyz', 'w' )
f.write( "19  " )
f.write( str(ee) + "\n" )
f.write( MOL.save_string_xyz() )
f.close()
--------------------------------------------------------------------------

    Molecular point group: c1
  Charge       = 0
  Multiplicity = 1
  Basis Set: 6-31G*
  Basis Set:
  @DF-RHF Final Energy:  -309.06510955616875
    Total Energy =                       -309.0651095561690340
    Molecular point group: c1
  Basis Set: 6-31G*
  Basis Set:
  Basis Set: 6-31G*
  Basis Set:
  @DF-RHF Final Energy:  -309.06502377284357
    Total Energy =                       -309.0650237728436878
  Basis Set: 6-31G*
  Basis Set:
  Basis Set: 6-31G*
  Basis Set:
  @DF-RHF Final Energy:  -309.06502381143224
    Total Energy =                       -309.0650238114322974
  Basis Set: 6-31G*
  Basis Set:
  Basis Set: 6-31G*
  Basis Set:
  @DF-RHF Final Energy:  -309.06508313924667
    Total Energy =                       -309.0650831392466671
  Basis Set: 6-31G*
  Basis Set:
  Basis Set: 6-31G*
  Basis Set:
  @DF-RHF Final Energy:  -309.06508693297906
    Total Energy =                       -309.0650869329788861
  Basis Set: 6-31G*
  Basis Set:
  Basis Set: 6-31G*
  Basis Set:
  @DF-RHF Final Energy:  -309.06512284269348
    Total Energy =                       -309.0651228426934267
  Basis Set: 6-31G*
  Basis Set:
  Basis Set: 6-31G*
  Basis Set:
  @DF-RHF Final Energy:  -309.06512469626699
    Total Energy =                       -309.0651246962672758
  Basis Set: 6-31G*
  Basis Set:
  Charge       = 0
  Multiplicity = 1
  Basis Set: 6-31G*
  Basis Set:

    Orbital Energies (a.u.)
    -----------------------

    Doubly Occupied:

       1A    -20.547667     2A    -11.324490     3A    -11.231683
       4A    -11.229517     5A    -11.228058     6A    -11.225525
       7A    -11.215519     8A     -1.393215     9A     -1.092258
      10A     -1.029409    11A     -0.983470    12A     -0.890781
      13A     -0.807602    14A     -0.733379    15A     -0.663973
      16A     -0.645433    17A     -0.623066    18A     -0.613415
      19A     -0.582183    20A     -0.573672    21A     -0.553003
      22A     -0.537173    23A     -0.511563    24A     -0.501238
      25A     -0.483313    26A     -0.476429    27A     -0.468059
      28A     -0.396874

  @DF-RHF Final Energy:  -309.06512494879161

   => Energetics <=

    Nuclear Repulsion Energy =            301.2269195930480805
    One-Electron Energy =               -1015.4601574930561583
    Two-Electron Energy =                 405.1681129512164716
    DFT Exchange-Correlation Energy =       0.0000000000000000
    Empirical Dispersion Energy =           0.0000000000000000
    PCM Polarization Energy =               0.0000000000000000
    EFP Energy =                            0.0000000000000000
    Total Energy =                       -309.0651249487916630
    Molecular point group: c1
  Basis Set: 6-31G*
  Basis Set:

  -Total Gradient:
     Atom            X                  Y                   Z
    ------   -----------------  -----------------  -----------------
       1       -0.000001337843    -0.000002217053    -0.000012366669
       2       -0.000180144694     0.000057696175     0.000318937405
       3        0.000102193575    -0.000323391110    -0.000103652188
       4        0.000075553207     0.000006888100    -0.000157922883
       5       -0.000039513852     0.000240448084     0.000006851188
       6        0.000000082552     0.000010302668    -0.000001919116
       7       -0.000000797666     0.000009117157    -0.000007106758
       8       -0.000000239498    -0.000002736184     0.000001721720
       9        0.000005982732    -0.000005618073     0.000008380697
      10        0.000002034656    -0.000005046940    -0.000007068273
      11        0.000001710174     0.000000373691    -0.000001392933
      12       -0.000003257401    -0.000000058866     0.000004303826
      13        0.000002108065     0.000001298470    -0.000003557304
      14        0.000001253519     0.000000321786     0.000000435476
      15       -0.000000665927     0.000001531405    -0.000000224247
      16        0.000001274516     0.000000582661    -0.000000599675
      17        0.000010995012    -0.000003084102    -0.000010590502
      18        0.000012130268    -0.000004409428    -0.000017828446
      19        0.000010638609     0.000018001560    -0.000016401320

  **** Optimization is complete! (in 8 steps) ****
    Final optimized geometry and variables:
    Molecular point group: c1

    Geometry (in Angstrom), charge = 0, multiplicity = 1:

    O           -2.037647974183    -1.339721040286    -0.256246530734
    C           -1.644084102635    -0.258052085998     0.058712718635
    C           -0.319960624720    -0.086253152237     0.780700307788
    C           -2.429741126445     0.994884306424    -0.262887730146
    C            0.839590469304     0.076039905248    -0.215350682662
    H           -0.360005198573     0.777017081803     1.439910494086
    H           -0.159197939932    -0.970239670033     1.386901666787
    C            2.194610417175     0.219912116495     0.479489164521
    H            0.666934921523     0.945963733087    -0.845919115653
    H            0.856371933247    -0.787561608731    -0.874242073293
    C            3.351774248850     0.372588156440    -0.506815863008
    H            2.169599987051     1.080380920367     1.144582023421
    H            2.367849602811    -0.649524174034     1.109100988155
    H            3.224062339475     1.253906363757    -1.128956795658
    H            3.422180748861    -0.488862318624    -1.164397072417
    H            4.299159007542     0.470005211988     0.013728214480
    H           -3.256989144452     0.753165318517    -0.915588758008
    H           -1.797702248942     1.743575510725    -0.730346051028
    H           -2.813968454289     1.427991872201     0.656974943571

  Mulliken Charges: (a.u.)
   Center  Symbol    Alpha    Beta     Spin     Total
       1     O     4.26130  4.26130  0.00000 -0.52261
       2     C     2.73737  2.73737  0.00000  0.52526
       3     C     3.20025  3.20025  0.00000 -0.40050
       4     C     3.28963  3.28963  0.00000 -0.57926
       5     C     3.16205  3.16205  0.00000 -0.32410
       6     H     0.41670  0.41670  0.00000  0.16660
       7     H     0.40056  0.40056  0.00000  0.19887
       8     C     3.15161  3.15161  0.00000 -0.30322
       9     H     0.42067  0.42067  0.00000  0.15866
      10     H     0.40786  0.40786  0.00000  0.18428
      11     C     3.24039  3.24039  0.00000 -0.48079
      12     H     0.42213  0.42213  0.00000  0.15574
      13     H     0.41881  0.41881  0.00000  0.16238
      14     H     0.42121  0.42121  0.00000  0.15759
      15     H     0.41888  0.41888  0.00000  0.16225
      16     H     0.41722  0.41722  0.00000  0.16556
      17     H     0.39687  0.39687  0.00000  0.20627
      18     H     0.40990  0.40990  0.00000  0.18020
      19     H     0.40659  0.40659  0.00000  0.18682

   Total alpha = 28.00000, Total beta = 28.00000, Total charge =  0.00000
