  ==> Input File <==

--------------------------------------------------------------------------
set {
	reference rhf
	basis cc-pvtz
}

set_num_threads( 4 )
memory 2 gb

molecule MOL {
0 1

O	 -0.694481	 1.313155	 -0.204815
C	 -0.862519	 0.151932	 -0.046791
C	 -2.171428	 -0.477048	 0.339095
O	 0.085519	 -0.757083	 -0.192238
H	 -2.467997	 -1.191667	 -0.417688
H	 -2.923379	 0.287970	 0.444097
H	 -2.053854	 -1.015120	 1.270901
C	 1.392036	 -0.330828	 -0.560749
C	 1.708253	 -0.676148	 -2.001116
H	 2.112144	 -0.770364	 0.111612
H	 1.382049	 0.738945	 -0.415020
H	 2.681719	 -0.278211	 -2.264671
H	 1.728612	 -1.747556	 -2.146213
H	 0.972028	 -0.244716	 -2.668524

	symmetry c1
}
set optking {
	frozen_dihedral = ("
		10 8 4 2
	")
}

ee = optimize('scf')
oeprop('DIPOLE', 'QUADRUPOLE', 'MULLIKEN_CHARGES')
f=open( 'psi4out.xyz', 'w' )
f.write( "14  " )
f.write( str(ee) + "\n" )
f.write( MOL.save_string_xyz() )
f.close()
--------------------------------------------------------------------------

    Molecular point group: c1
  Charge       = 0
  Multiplicity = 1
  Basis Set: CC-PVTZ
  Basis Set:
  @DF-RHF Final Energy:  -305.98870603316163
    Total Energy =                       -305.9887060331614066
    Molecular point group: c1
  Basis Set: CC-PVTZ
  Basis Set:
  Basis Set: CC-PVTZ
  Basis Set:
  @DF-RHF Final Energy:  -305.98987230874820
    Total Energy =                       -305.9898723087483177
  Basis Set: CC-PVTZ
  Basis Set:
  Basis Set: CC-PVTZ
  Basis Set:
  @DF-RHF Final Energy:  -305.99033887109670
    Total Energy =                       -305.9903388710966965
  Basis Set: CC-PVTZ
  Basis Set:
  Basis Set: CC-PVTZ
  Basis Set:
  @DF-RHF Final Energy:  -305.99027416764750
    Total Energy =                       -305.9902741676476694
  Basis Set: CC-PVTZ
  Basis Set:
  Basis Set: CC-PVTZ
  Basis Set:
  @DF-RHF Final Energy:  -305.99034316941504
    Total Energy =                       -305.9903431694150413
  Basis Set: CC-PVTZ
  Basis Set:
  Charge       = 0
  Multiplicity = 1
  Basis Set: CC-PVTZ
  Basis Set:

    Orbital Energies (a.u.)
    -----------------------

    Doubly Occupied:

       1A    -20.593769     2A    -20.532637     3A    -11.368488
       4A    -11.281867     5A    -11.231301     6A    -11.219798
       7A     -1.469222     8A     -1.366097     9A     -1.057410
      10A     -1.000047    11A     -0.880257    12A     -0.773285
      13A     -0.700291    14A     -0.685794    15A     -0.660632
      16A     -0.613321    17A     -0.584152    18A     -0.569172
      19A     -0.562497    20A     -0.530188    21A     -0.520777
      22A     -0.495693    23A     -0.452149    24A     -0.443310

  @DF-RHF Final Energy:  -305.99034716251219

   => Energetics <=

    Nuclear Repulsion Energy =            247.3248039520961754
    One-Electron Energy =                -907.4459933960490616
    Two-Electron Energy =                 354.1308422814406072
    DFT Exchange-Correlation Energy =       0.0000000000000000
    Empirical Dispersion Energy =           0.0000000000000000
    PCM Polarization Energy =               0.0000000000000000
    EFP Energy =                            0.0000000000000000
    Total Energy =                       -305.9903471625122506
    Molecular point group: c1
  Basis Set: CC-PVTZ
  Basis Set:

  -Total Gradient:
     Atom            X                  Y                   Z
    ------   -----------------  -----------------  -----------------
       1        0.000009797316     0.000003742471    -0.000006352041
       2        0.000230864442     0.000051903048     0.000857201199
       3       -0.000003733330     0.000001202998     0.000016959508
       4       -0.000295399682     0.000065213974    -0.001124682151
       5       -0.000001108840     0.000003794950    -0.000005371179
       6       -0.000003232987    -0.000000261327    -0.000001726530
       7        0.000000086487    -0.000001824148    -0.000006055619
       8        0.000151019557    -0.000897248906    -0.000367675086
       9        0.000010722904    -0.000019544116     0.000032394792
      10       -0.000093393924     0.000752182740     0.000599513286
      11       -0.000009443264     0.000027892684    -0.000000625146
      12        0.000006241914     0.000001323449    -0.000001435259
      13        0.000001355790     0.000003097394    -0.000006981120
      14       -0.000003776380     0.000008524792     0.000014835347

  **** Optimization is complete! (in 6 steps) ****
    Final optimized geometry and variables:
    Molecular point group: c1

    Geometry (in Angstrom), charge = 0, multiplicity = 1:

    O           -0.652876406146     1.448729311468     0.255842902739
    C           -0.784664311864     0.281952576887     0.403413899456
    C           -2.070922641449    -0.386031148407     0.800360453093
    O            0.182082285994    -0.604984621289     0.237592160686
    H           -2.357377645804    -1.101711622144     0.040679810141
    H           -2.842144010186     0.357048842438     0.921522985837
    H           -1.926593982639    -0.929085425194     1.725401649900
    C            1.489914945405    -0.169703035972    -0.116045504154
    C            1.803757706242    -0.564496024727    -1.542828184815
    H            2.160026735932    -0.652743032428     0.580918407396
    H            1.559727382035     0.896458093260     0.018904792142
    H            2.821799397546    -0.282644641010    -1.786405388399
    H            1.702306715735    -1.633941092547    -1.679174248106
    H            1.137888382231    -0.062993489749    -2.234230709657

  Mulliken Charges: (a.u.)
   Center  Symbol    Alpha    Beta     Spin     Total
       1     O     4.19859  4.19859  0.00000 -0.39717
       2     C     2.80023  2.80023  0.00000  0.39954
       3     C     3.14001  3.14001  0.00000 -0.28002
       4     O     4.15838  4.15838  0.00000 -0.31676
       5     H     0.44603  0.44603  0.00000  0.10794
       6     H     0.43830  0.43830  0.00000  0.12339
       7     H     0.44587  0.44587  0.00000  0.10825
       8     C     2.98704  2.98704  0.00000  0.02592
       9     C     3.13952  3.13952  0.00000 -0.27904
      10     H     0.44886  0.44886  0.00000  0.10228
      11     H     0.44340  0.44340  0.00000  0.11319
      12     H     0.45299  0.45299  0.00000  0.09403
      13     H     0.45174  0.45174  0.00000  0.09652
      14     H     0.44904  0.44904  0.00000  0.10192

   Total alpha = 24.00000, Total beta = 24.00000, Total charge = -0.00000
