  ==> Input File <==

--------------------------------------------------------------------------
set {
	reference rhf
	basis 6-31G*
}

set_num_threads( 1 )
memory 2 gb

molecule MOL {
0 1

H	 2.614757	 3.946133	 3.716707
C	 2.345059	 3.219654	 2.970867
C	 1.297224	 3.479030	 2.100285
C	 3.046129	 2.027284	 2.883195
H	 0.754335	 4.404161	 2.169355
C	 0.951033	 2.544439	 1.141549
H	 3.858094	 1.827969	 3.558911
C	 2.701355	 1.090277	 1.924278
H	 0.143070	 2.728173	 0.459560
C	 1.651670	 1.347235	 1.050266
H	 3.241143	 0.166238	 1.852847
C	 1.239129	 0.373821	 0.000060
O	 1.970282	 -0.730723	 0.000018
O	 0.345689	 0.559566	 -0.765526
C	 3.377318	 -0.566646	 -0.000065
H	 3.695437	 -0.028981	 -0.881264
H	 3.789299	 -1.563704	 0.000236
H	 3.695516	 -0.028316	 0.880770

	symmetry c1
}
set optking {
	frozen_dihedral = ("
		12 13 15 16,
		13 12 10 6
	")
}

ee = energy('scf')
oeprop('DIPOLE', 'QUADRUPOLE', 'MULLIKEN_CHARGES')
f=open( 'psi4out.xyz', 'w' )
f.write( "18  " )
f.write( str(ee) + "\n" )
f.write( MOL.save_string_xyz() )
f.close()
--------------------------------------------------------------------------

    Molecular point group: c1

    Geometry (in Angstrom), charge = 0, multiplicity = 1:

       Center              X                  Y                   Z               Mass
    ------------   -----------------  -----------------  -----------------  -----------------
           H          0.716129134758     2.689376544119     2.654983168301     1.007825032070
           C          0.446431134758     1.962897544119     1.909143168301    12.000000000000
           C         -0.601403865242     2.222273544119     1.038561168301    12.000000000000
           C          1.147501134758     0.770527544119     1.821471168301    12.000000000000
           H         -1.144292865242     3.147404544119     1.107631168301     1.007825032070
           C         -0.947594865242     1.287682544119     0.079825168301    12.000000000000
           H          1.959466134758     0.571212544119     2.497187168301     1.007825032070
           C          0.802727134758    -0.166479455881     0.862554168301    12.000000000000
           H         -1.755557865242     1.471416544119    -0.602163831699     1.007825032070
           C         -0.246957865242     0.090478544119    -0.011457831699    12.000000000000
           H          1.342515134758    -1.090518455881     0.791123168301     1.007825032070
           C         -0.659498865242    -0.882935455881    -1.061663831699    12.000000000000
           O          0.071654134758    -1.987479455881    -1.061705831699    15.994914619560
           O         -1.552938865242    -0.697190455881    -1.827249831699    15.994914619560
           C          1.478690134758    -1.823402455881    -1.061788831699    12.000000000000
           H          1.796809134758    -1.285737455881    -1.942987831699     1.007825032070
           H          1.890671134758    -2.820460455881    -1.061487831699     1.007825032070
           H          1.796888134758    -1.285072455881    -0.180953831699     1.007825032070

  Charge       = 0
  Multiplicity = 1
  Basis Set: 6-31G*
  Basis Set:

    Orbital Energies (a.u.)
    -----------------------

    Doubly Occupied:

       1A    -20.599199     2A    -20.550522     3A    -11.380038
       4A    -11.282274     5A    -11.253550     6A    -11.252687
       7A    -11.251526     8A    -11.249160     9A    -11.247487
      10A    -11.244778    11A     -1.468532    12A     -1.370429
      13A     -1.175436    14A     -1.051581    15A     -1.039710
      16A     -0.993417    17A     -0.876691    18A     -0.860515
      19A     -0.792644    20A     -0.740101    21A     -0.715009
      22A     -0.676659    23A     -0.669852    24A     -0.651772
      25A     -0.629682    26A     -0.615872    27A     -0.568619
      28A     -0.562427    29A     -0.553327    30A     -0.524244
      31A     -0.513362    32A     -0.484862    33A     -0.450658
      34A     -0.438157    35A     -0.351710    36A     -0.349253

  @DF-RHF Final Energy:  -457.26738177114066

   => Energetics <=

    Nuclear Repulsion Energy =            504.5377740593312410
    One-Electron Energy =               -1622.7388725602136219
    Two-Electron Energy =                 660.9337167297414908
    DFT Exchange-Correlation Energy =       0.0000000000000000
    Empirical Dispersion Energy =           0.0000000000000000
    PCM Polarization Energy =               0.0000000000000000
    EFP Energy =                            0.0000000000000000
    Total Energy =                       -457.2673817711408901

  Mulliken Charges: (a.u.)
   Center  Symbol    Alpha    Beta     Spin     Total
       1     H     0.39379  0.39379  0.00000  0.21243
       2     C     3.09016  3.09016  0.00000 -0.18031
       3     C     3.10577  3.10577  0.00000 -0.21154
       4     C     3.10716  3.10716  0.00000 -0.21433
       5     H     0.39323  0.39323  0.00000  0.21354
       6     C     3.08415  3.08415  0.00000 -0.16829
       7     H     0.39528  0.39528  0.00000  0.20945
       8     C     3.11314  3.11314  0.00000 -0.22628
       9     H     0.37334  0.37334  0.00000  0.25331
      10     C     3.07759  3.07759  0.00000 -0.15517
      11     H     0.37120  0.37120  0.00000  0.25760
      12     C     2.58196  2.58196  0.00000  0.83608
      13     O     4.31129  4.31129  0.00000 -0.62259
      14     O     4.26836  4.26836  0.00000 -0.53671
      15     C     3.09865  3.09865  0.00000 -0.19730
      16     H     0.40851  0.40851  0.00000  0.18298
      17     H     0.40218  0.40218  0.00000  0.19565
      18     H     0.42426  0.42426  0.00000  0.15149

   Total alpha = 36.00000, Total beta = 36.00000, Total charge =  0.00000
