  ==> Input File <==

--------------------------------------------------------------------------
set {
	reference rhf
	basis 6-31G*
}

set_num_threads( 1 )
memory 2 gb

molecule MOL {
0 1

H	 -2.172150	 0.880146	 0.502514
C	 -2.018062	 -0.000025	 -0.114509
O	 -0.774054	 0.001095	 -0.743181
H	 -2.760490	 0.003458	 -0.901350
H	 -2.173624	 -0.884374	 0.496163
C	 -0.411625	 1.085882	 -1.578893
C	 0.990774	 0.718886	 -2.059105
C	 -1.360186	 1.201799	 -2.776384
C	 -0.367302	 2.399449	 -0.791688
H	 0.967390	 -0.223978	 -2.593793
H	 1.658508	 0.608960	 -1.212097
H	 1.390261	 1.482160	 -2.719017
H	 -1.440621	 0.247087	 -3.285388
H	 -0.985470	 1.934939	 -3.483275
H	 -2.355524	 1.515914	 -2.481107
H	 0.250035	 2.286260	 0.093261
H	 0.054853	 3.190151	 -1.403332
H	 -1.354526	 2.723217	 -0.479927

	symmetry c1
}
set optking {
	frozen_dihedral = ("
		2 3 6 7
	")
}

ee = energy('scf')
oeprop('DIPOLE', 'QUADRUPOLE', 'MULLIKEN_CHARGES')
f=open( 'psi4out.xyz', 'w' )
f.write( "18  " )
f.write( str(ee) + "\n" )
f.write( MOL.save_string_xyz() )
f.close()
--------------------------------------------------------------------------

    Molecular point group: c1

    Geometry (in Angstrom), charge = 0, multiplicity = 1:

       Center              X                  Y                   Z               Mass
    ------------   -----------------  -----------------  -----------------  -----------------
           H         -1.498183531608    -0.013963538191     1.834557065789     1.007825032070
           C         -1.344095531608    -0.894134538191     1.217534065789    12.000000000000
           O         -0.100087531608    -0.893014538191     0.588862065789    15.994914619560
           H         -2.086523531608    -0.890651538191     0.430693065789     1.007825032070
           H         -1.499657531608    -1.778483538191     1.828206065789     1.007825032070
           C          0.262341468392     0.191772461809    -0.246849934211    12.000000000000
           C          1.664740468392    -0.175223538191    -0.727061934211    12.000000000000
           C         -0.686219531608     0.307689461809    -1.444340934211    12.000000000000
           C          0.306664468392     1.505339461809     0.540355065789    12.000000000000
           H          1.641356468392    -1.118087538191    -1.261749934211     1.007825032070
           H          2.332474468392    -0.285149538191     0.119946065789     1.007825032070
           H          2.064227468392     0.588050461809    -1.386973934211     1.007825032070
           H         -0.766654531608    -0.647022538191    -1.953344934211     1.007825032070
           H         -0.311503531608     1.040829461809    -2.151231934211     1.007825032070
           H         -1.681557531608     0.621804461809    -1.149063934211     1.007825032070
           H          0.924001468392     1.392150461809     1.425304065789     1.007825032070
           H          0.728819468392     2.296041461809    -0.071288934211     1.007825032070
           H         -0.680559531608     1.829107461809     0.852116065789     1.007825032070

  Charge       = 0
  Multiplicity = 1
  Basis Set: 6-31G*
  Basis Set:

    Orbital Energies (a.u.)
    -----------------------

    Doubly Occupied:

       1A    -20.544878     2A    -11.282254     3A    -11.260685
       4A    -11.208829     5A    -11.208810     6A    -11.203352
       7A     -1.369403     8A     -1.072828     9A     -0.946256
      10A     -0.940091    11A     -0.911832    12A     -0.752021
      13A     -0.653846    14A     -0.645449    15A     -0.639337
      16A     -0.593723    17A     -0.576352    18A     -0.550019
      19A     -0.533451    20A     -0.525035    21A     -0.514688
      22A     -0.489145    23A     -0.486262    24A     -0.436781
      25A     -0.402678

  @DF-RHF Final Energy:  -271.17281193230838

   => Energetics <=

    Nuclear Repulsion Energy =            272.4408994488601365
    One-Electron Energy =                -907.7311428840276903
    Two-Electron Energy =                 364.1174315028586648
    DFT Exchange-Correlation Energy =       0.0000000000000000
    Empirical Dispersion Energy =           0.0000000000000000
    PCM Polarization Energy =               0.0000000000000000
    EFP Energy =                            0.0000000000000000
    Total Energy =                       -271.1728119323088890

  Mulliken Charges: (a.u.)
   Center  Symbol    Alpha    Beta     Spin     Total
       1     H     0.42993  0.42993  0.00000  0.14015
       2     C     3.07925  3.07925  0.00000 -0.15850
       3     O     4.32007  4.32007  0.00000 -0.64015
       4     H     0.42959  0.42959  0.00000  0.14081
       5     H     0.41224  0.41224  0.00000  0.17553
       6     C     2.84177  2.84177  0.00000  0.31646
       7     C     3.23275  3.23275  0.00000 -0.46550
       8     C     3.24868  3.24868  0.00000 -0.49736
       9     C     3.24763  3.24763  0.00000 -0.49526
      10     H     0.41403  0.41403  0.00000  0.17194
      11     H     0.41390  0.41390  0.00000  0.17220
      12     H     0.42519  0.42519  0.00000  0.14962
      13     H     0.41310  0.41310  0.00000  0.17379
      14     H     0.41925  0.41925  0.00000  0.16151
      15     H     0.41984  0.41984  0.00000  0.16032
      16     H     0.41309  0.41309  0.00000  0.17382
      17     H     0.41957  0.41957  0.00000  0.16086
      18     H     0.42013  0.42013  0.00000  0.15974

   Total alpha = 25.00000, Total beta = 25.00000, Total charge = -0.00000
