  ==> Input File <==

--------------------------------------------------------------------------
set {
	reference rhf
	basis 6-31G*
}

set_num_threads( 4 )
memory 2 gb

molecule MOL {
0 1

H	 -3.293459	 0.663793	 -0.925998
C	 -2.773553	 1.086920	 -1.794494
C	 -1.791103	 2.185175	 -1.476317
O	 -3.002707	 0.676863	 -2.885865
C	 -0.783682	 1.777823	 -0.392148
H	 -1.293219	 2.475307	 -2.394274
H	 -2.368889	 3.039417	 -1.125476
C	 0.175382	 0.670092	 -0.835349
H	 -0.212749	 2.656072	 -0.105793
H	 -1.321528	 1.462333	 0.500569
C	 1.180775	 0.282413	 0.250794
H	 0.709767	 0.996901	 -1.724999
H	 -0.390349	 -0.211352	 -1.131227
C	 2.148627	 -0.814315	 -0.201312
H	 1.735403	 1.168341	 0.549543
H	 0.643093	 -0.055551	 1.135702
C	 3.580890	 -0.659131	 0.322722
H	 2.166869	 -0.852443	 -1.289387
H	 1.762857	 -1.776509	 0.128956
C	 4.324889	 0.564933	 -0.213704
H	 4.142010	 -1.551473	 0.056605
H	 3.564836	 -0.624694	 1.410140
H	 4.342616	 0.565491	 -1.300421
H	 3.866655	 1.493402	 0.110242
H	 5.353900	 0.572371	 0.132816

	symmetry c1
}
set optking {
	frozen_dihedral = ("
		8 11 14 18
	")
}

ee = optimize('scf')
oeprop('DIPOLE', 'QUADRUPOLE', 'MULLIKEN_CHARGES')
f=open( 'psi4out.xyz', 'w' )
f.write( "25  " )
f.write( str(ee) + "\n" )
f.write( MOL.save_string_xyz() )
f.close()
--------------------------------------------------------------------------

    Molecular point group: c1
  Charge       = 0
  Multiplicity = 1
  Basis Set: 6-31G*
  Basis Set:
  @DF-RHF Final Energy:  -387.11795587853476
    Total Energy =                       -387.1179558785347581
    Molecular point group: c1
  Basis Set: 6-31G*
  Basis Set:
  Basis Set: 6-31G*
  Basis Set:
  @DF-RHF Final Energy:  -387.11807254110886
    Total Energy =                       -387.1180725411095409
  Basis Set: 6-31G*
  Basis Set:
  Basis Set: 6-31G*
  Basis Set:
  @DF-RHF Final Energy:  -387.11581072142320
    Total Energy =                       -387.1158107214230313
  Basis Set: 6-31G*
  Basis Set:
  Basis Set: 6-31G*
  Basis Set:
  @DF-RHF Final Energy:  -387.11835598603847
    Total Energy =                       -387.1183559860374999
  Basis Set: 6-31G*
  Basis Set:
  @DF-RHF Final Energy:  -387.11830266806811
    Total Energy =                       -387.1183026680682815
  Basis Set: 6-31G*
  Basis Set:
  @DF-RHF Final Energy:  -387.11843174244274
    Total Energy =                       -387.1184317424424535
  Basis Set: 6-31G*
  Basis Set:
  Basis Set: 6-31G*
  Basis Set:
  @DF-RHF Final Energy:  -387.11845561945933
    Total Energy =                       -387.1184556194591551
  Basis Set: 6-31G*
  Basis Set:
  Basis Set: 6-31G*
  Basis Set:
  @DF-RHF Final Energy:  -387.11845896395641
    Total Energy =                       -387.1184589639561864
  Basis Set: 6-31G*
  Basis Set:
  Charge       = 0
  Multiplicity = 1
  Basis Set: 6-31G*
  Basis Set:

    Orbital Energies (a.u.)
    -----------------------

    Doubly Occupied:

       1A    -20.561934     2A    -11.326115     3A    -11.235222
       4A    -11.234609     5A    -11.224167     6A    -11.219792
       7A    -11.218411     8A    -11.216679     9A    -11.210850
      10A     -1.401885    11A     -1.103289    12A     -1.069040
      13A     -1.013020    14A     -0.942462    15A     -0.874920
      16A     -0.819878    17A     -0.788192    18A     -0.783616
      19A     -0.664198    20A     -0.661086    21A     -0.630693
      22A     -0.625183    23A     -0.606352    24A     -0.591780
      25A     -0.573547    26A     -0.551676    27A     -0.534839
      28A     -0.522385    29A     -0.511158    30A     -0.495635
      31A     -0.489177    32A     -0.482222    33A     -0.464181
      34A     -0.455899    35A     -0.440908    36A     -0.409484

  @DF-RHF Final Energy:  -387.11845964923202

   => Energetics <=

    Nuclear Repulsion Energy =            440.6732216590332882
    One-Electron Energy =               -1397.6743921186450734
    Two-Electron Energy =                 569.8827108103797627
    DFT Exchange-Correlation Energy =       0.0000000000000000
    Empirical Dispersion Energy =           0.0000000000000000
    PCM Polarization Energy =               0.0000000000000000
    EFP Energy =                            0.0000000000000000
    Total Energy =                       -387.1184596492320225
    Molecular point group: c1
  Basis Set: 6-31G*
  Basis Set:

  -Total Gradient:
     Atom            X                  Y                   Z
    ------   -----------------  -----------------  -----------------
       1        0.000002671791     0.000022344511     0.000008452683
       2        0.000018177487    -0.000036481349    -0.000008226841
       3       -0.000030822631     0.000000185152    -0.000004679332
       4        0.000008042007     0.000016426093    -0.000004693358
       5        0.000016433610     0.000000686266    -0.000005000250
       6       -0.000000435882     0.000010217291     0.000002752621
       7       -0.000009984685    -0.000017691584    -0.000000411780
       8        0.001588815086     0.001764416382    -0.000851391183
       9        0.000024798899    -0.000024205506     0.000008016769
      10       -0.000018802047     0.000015018512     0.000002606779
      11       -0.002796790564    -0.003007830809     0.001165498480
      12       -0.000003517207    -0.000002541462    -0.000005208387
      13       -0.000012368575     0.000010658063     0.000009309581
      14        0.003817228024     0.003575097371    -0.000329191278
      15       -0.000007035151     0.000009783601     0.000011514077
      16        0.000004359634    -0.000025257875    -0.000017824101
      17       -0.000027494871     0.000029721189    -0.000003170752
      18       -0.002593484098    -0.002309324737     0.000026727975
      19        0.000001182912    -0.000021351812     0.000013599340
      20        0.000008883787     0.000002214265    -0.000006863674
      21       -0.000018559397     0.000003269571    -0.000015766146
      22        0.000006837220    -0.000006297352     0.000008307487
      23        0.000015988086     0.000001544775    -0.000007560376
      24        0.000008186388    -0.000015456011    -0.000003238174
      25       -0.000002309813     0.000004855452     0.000006439843

  **** Optimization is complete! (in 9 steps) ****
    Final optimized geometry and variables:
    Molecular point group: c1

    Geometry (in Angstrom), charge = 0, multiplicity = 1:

    H           -3.645164850972    -0.050033028710    -0.191294125868
    C           -3.115215244899     0.433392096756    -1.021498568922
    C           -2.177290375691     1.542869996925    -0.618862268786
    O           -3.306186923169     0.078311202090    -2.139215328800
    C           -1.184795027316     1.109260948704     0.469049969565
    H           -1.665878634389     1.897066017692    -1.506458267905
    H           -2.791155984323     2.358724865142    -0.239350969095
    C           -0.181195635024     0.055446740154    -0.004675282519
    H           -0.648605412171     1.987955556896     0.816030330139
    H           -1.734601941771     0.731470310762     1.329469261216
    C            0.828672082152    -0.336663870118     1.075808983830
    H            0.354614989469     0.435649759061    -0.871613506219
    H           -0.711339642859    -0.832930301653    -0.344680359665
    C            1.811183609254    -1.434457218716     0.623875661554
    H            1.376452625299     0.556341900661     1.367035295548
    H            0.303195538617    -0.665788885107     1.969063357109
    C            3.233217193122    -1.289810448971     1.176549070716
    H            1.840746438842    -1.479760619291    -0.462967408267
    H            1.415551503981    -2.399317638259     0.932356801103
    C            4.034600016062    -0.149854131406     0.545513561738
    H            3.768562707438    -2.221642873879     1.013507535497
    H            3.187425326921    -1.151300598775     2.254978482622
    H            4.140210268314    -0.298042205240    -0.525561286036
    H            3.562316542558     0.815249939978     0.699359786636
    H            5.031866886928    -0.095212003470     0.971131725760

  Mulliken Charges: (a.u.)
   Center  Symbol    Alpha    Beta     Spin     Total
       1     H     0.43261  0.43261  0.00000  0.13478
       2     C     2.83078  2.83078  0.00000  0.33845
       3     C     3.20812  3.20812  0.00000 -0.41624
       4     O     4.23779  4.23779  0.00000 -0.47558
       5     C     3.16701  3.16701  0.00000 -0.33401
       6     H     0.39974  0.39974  0.00000  0.20051
       7     H     0.40661  0.40661  0.00000  0.18678
       8     C     3.15669  3.15669  0.00000 -0.31338
       9     H     0.41296  0.41296  0.00000  0.17407
      10     H     0.41954  0.41954  0.00000  0.16093
      11     C     3.15487  3.15487  0.00000 -0.30974
      12     H     0.41743  0.41743  0.00000  0.16513
      13     H     0.41831  0.41831  0.00000  0.16338
      14     C     3.15636  3.15636  0.00000 -0.31272
      15     H     0.42134  0.42134  0.00000  0.15733
      16     H     0.42101  0.42101  0.00000  0.15798
      17     C     3.15405  3.15405  0.00000 -0.30810
      18     H     0.42031  0.42031  0.00000  0.15939
      19     H     0.41949  0.41949  0.00000  0.16103
      20     C     3.24037  3.24037  0.00000 -0.48075
      21     H     0.42022  0.42022  0.00000  0.15956
      22     H     0.42289  0.42289  0.00000  0.15421
      23     H     0.42110  0.42110  0.00000  0.15779
      24     H     0.42172  0.42172  0.00000  0.15656
      25     H     0.41867  0.41867  0.00000  0.16266

   Total alpha = 36.00000, Total beta = 36.00000, Total charge =  0.00000
