  ==> Input File <==

--------------------------------------------------------------------------
set {
	reference rhf
	basis cc-pvtz
}

set_num_threads( 4 )
memory 2 gb

molecule MOL {
0 1

O	 0.242832	 0.085791	 2.106203
C	 0.014942	 0.575551	 1.037129
C	 -0.997056	 1.696493	 0.918040
N	 0.622280	 0.144970	 -0.099307
H	 -1.805875	 1.428486	 0.249960
H	 -1.393813	 1.878359	 1.902926
H	 -0.538629	 2.603919	 0.544679
C	 1.664396	 -0.854993	 0.000772
C	 0.550664	 0.837149	 -1.364026
H	 2.462727	 -0.615153	 -0.690869
H	 1.261798	 -1.821849	 -0.240651
H	 2.081615	 -0.891605	 1.003877
H	 0.589721	 0.113715	 -2.168237
H	 -0.369124	 1.387190	 -1.465720
H	 1.380743	 1.527379	 -1.496671

	symmetry c1
}
set optking {
	frozen_dihedral = ("
		2 4 8 10
	")
}

ee = optimize('scf')
oeprop('DIPOLE', 'QUADRUPOLE', 'MULLIKEN_CHARGES')
f=open( 'psi4out.xyz', 'w' )
f.write( "15  " )
f.write( str(ee) + "\n" )
f.write( MOL.save_string_xyz() )
f.close()
--------------------------------------------------------------------------

    Molecular point group: c1
  Charge       = 0
  Multiplicity = 1
  Basis Set: CC-PVTZ
  Basis Set:
  @DF-RHF Final Energy:  -286.13403579025999
    Total Energy =                       -286.1340357902596452
    Molecular point group: c1
  Basis Set: CC-PVTZ
  Basis Set:
  Basis Set: CC-PVTZ
  Basis Set:
  @DF-RHF Final Energy:  -286.13468893664560
    Total Energy =                       -286.1346889366458299
  Basis Set: CC-PVTZ
  Basis Set:
  Basis Set: CC-PVTZ
  Basis Set:
  @DF-RHF Final Energy:  -286.13480919120366
    Total Energy =                       -286.1348091912034306
  Basis Set: CC-PVTZ
  Basis Set:
  Basis Set: CC-PVTZ
  Basis Set:
  @DF-RHF Final Energy:  -286.13499524537394
    Total Energy =                       -286.1349952453741707
  Basis Set: CC-PVTZ
  Basis Set:
  @DF-RHF Final Energy:  -286.13511372872017
    Total Energy =                       -286.1351137287202846
  @DF-RHF Final Energy:  -286.13520160236715
    Total Energy =                       -286.1352016023672036
  @DF-RHF Final Energy:  -286.13532694918752
    Total Energy =                       -286.1353269491874585
  @DF-RHF Final Energy:  -286.13537443531050
    Total Energy =                       -286.1353744353103821
  @DF-RHF Final Energy:  -286.13546614680985
    Total Energy =                       -286.1354661468100176
  @DF-RHF Final Energy:  -286.13556099852201
    Total Energy =                       -286.1355609985224078
  @DF-RHF Final Energy:  -286.13562703003373
    Total Energy =                       -286.1356270300337883
  Basis Set: CC-PVTZ
  Basis Set:
  @DF-RHF Final Energy:  -286.13563909149201
    Total Energy =                       -286.1356390914920667
  Basis Set: CC-PVTZ
  Basis Set:
  Basis Set: CC-PVTZ
  Basis Set:
  @DF-RHF Final Energy:  -286.13564053767470
    Total Energy =                       -286.1356405376752718
  Basis Set: CC-PVTZ
  Basis Set:
  Basis Set: CC-PVTZ
  Basis Set:
  @DF-RHF Final Energy:  -286.13564043360452
    Total Energy =                       -286.1356404336044079
  Basis Set: CC-PVTZ
  Basis Set:
  Charge       = 0
  Multiplicity = 1
  Basis Set: CC-PVTZ
  Basis Set:

    Orbital Energies (a.u.)
    -----------------------

    Doubly Occupied:

       1A    -20.503496     2A    -15.578523     3A    -11.335170
       4A    -11.263984     5A    -11.246430     6A    -11.226494
       7A     -1.387284     8A     -1.246356     9A     -1.015093
      10A     -0.973236    11A     -0.920943    12A     -0.739114
      13A     -0.683314    14A     -0.661968    15A     -0.653847
      16A     -0.590429    17A     -0.578179    18A     -0.567419
      19A     -0.561623    20A     -0.548428    21A     -0.530394
      22A     -0.507286    23A     -0.413670    24A     -0.370434

  @DF-RHF Final Energy:  -286.13564104439740

   => Energetics <=

    Nuclear Repulsion Energy =            252.8863940409055431
    One-Electron Energy =                -889.8378409911806557
    Two-Electron Energy =                 350.8158059058773688
    DFT Exchange-Correlation Energy =       0.0000000000000000
    Empirical Dispersion Energy =           0.0000000000000000
    PCM Polarization Energy =               0.0000000000000000
    EFP Energy =                            0.0000000000000000
    Total Energy =                       -286.1356410443977438
    Molecular point group: c1
  Basis Set: CC-PVTZ
  Basis Set:

  -Total Gradient:
     Atom            X                  Y                   Z
    ------   -----------------  -----------------  -----------------
       1        0.000015359557    -0.000008455171    -0.000006031284
       2       -0.000026647996     0.000005786251    -0.000015113322
       3       -0.000006923570     0.000001034198    -0.000006071618
       4        0.000018892001    -0.000018254024     0.000027305758
       5        0.000010520405    -0.000000935478     0.000001471528
       6        0.000007392779    -0.000000559469     0.000000953561
       7       -0.000004766122     0.000014238316     0.000005849358
       8       -0.000017755755    -0.000022867997    -0.000016709181
       9       -0.000020123411     0.000006341427    -0.000029012406
      10        0.000004907046     0.000001852556     0.000004436235
      11        0.000001451366     0.000025219246     0.000003473782
      12        0.000012892844    -0.000002029333     0.000020314419
      13        0.000003682569     0.000002179614     0.000004401857
      14       -0.000002862091    -0.000002181337     0.000000633450
      15        0.000003980376    -0.000001368800     0.000004097863

  **** Optimization is complete! (in 15 steps) ****
    Final optimized geometry and variables:
    Molecular point group: c1

    Geometry (in Angstrom), charge = 0, multiplicity = 1:

    O           -0.193278218320    -0.408665750980     1.656553356861
    C           -0.348244628437     0.154567759083     0.610765586660
    C           -1.410678398560     1.226560152114     0.479608621402
    N            0.416467720075    -0.119940506591    -0.477504998609
    H           -2.152780579026     0.958101063319    -0.262053872454
    H           -1.888267461525     1.325208431449     1.440156244289
    H           -0.978846291910     2.177888922953     0.195303577750
    C            1.375082008517    -1.202212593008    -0.406730707928
    C            0.145836964617     0.375814687508    -1.805580686714
    H            2.288430006934    -0.910860037756    -0.911328706381
    H            0.991965942645    -2.098986264691    -0.886692571647
    H            1.591797446366    -1.426252313499     0.621829305700
    H           -0.417400985224    -0.342111541459    -2.397261337731
    H           -0.402695298111     1.301463064309    -1.781948302852
    H            1.082587920348     0.562790971262    -2.315372661193

  Mulliken Charges: (a.u.)
   Center  Symbol    Alpha    Beta     Spin     Total
       1     O     4.22091  4.22091  0.00000 -0.44183
       2     C     2.84565  2.84565  0.00000  0.30869
       3     C     3.16073  3.16073  0.00000 -0.32146
       4     N     3.56138  3.56138  0.00000 -0.12276
       5     H     0.44924  0.44924  0.00000  0.10151
       6     H     0.42858  0.42858  0.00000  0.14283
       7     H     0.44902  0.44902  0.00000  0.10196
       8     C     3.09895  3.09895  0.00000 -0.19789
       9     C     3.09528  3.09528  0.00000 -0.19057
      10     H     0.45678  0.45678  0.00000  0.08644
      11     H     0.45777  0.45777  0.00000  0.08446
      12     H     0.42625  0.42625  0.00000  0.14750
      13     H     0.45466  0.45466  0.00000  0.09068
      14     H     0.44503  0.44503  0.00000  0.10994
      15     H     0.44975  0.44975  0.00000  0.10049

   Total alpha = 24.00000, Total beta = 24.00000, Total charge = -0.00000
