  ==> Input File <==

--------------------------------------------------------------------------
set {
	reference rhf
	basis 6-31G*
}

set_num_threads( 4 )
memory 2 gb

molecule MOL {
0 1

H	 2.727058	 -0.417612	 -0.847420
N	 2.332695	 -0.069570	 0.000000
C	 0.936681	 -0.007078	 0.000000
H	 2.721543	 -0.540805	 0.788360
C	 0.227108	 -0.002120	 -1.198267
C	 0.227108	 -0.002120	 1.198267
H	 0.761569	 -0.014657	 -2.132680
C	 -1.156334	 0.010459	 -1.192360
H	 0.761569	 -0.014657	 2.132680
C	 -1.156334	 0.010459	 1.192360
H	 -1.684791	 0.014915	 -2.129421
C	 -1.862085	 0.017996	 0.000000
H	 -1.684791	 0.014915	 2.129421
H	 -2.936703	 0.028387	 0.000000

	symmetry c1
}
set optking {
	frozen_dihedral = ("
		1 2 3 5
	")
}

ee = optimize('scf')
oeprop('DIPOLE', 'QUADRUPOLE', 'MULLIKEN_CHARGES')
f=open( 'psi4out.xyz', 'w' )
f.write( "14  " )
f.write( str(ee) + "\n" )
f.write( MOL.save_string_xyz() )
f.close()
--------------------------------------------------------------------------

    Molecular point group: c1
  Charge       = 0
  Multiplicity = 1
  Basis Set: 6-31G*
  Basis Set:
  @DF-RHF Final Energy:  -285.72989698238081
    Total Energy =                       -285.7298969823810921
    Molecular point group: c1
  Basis Set: 6-31G*
  Basis Set:
  Basis Set: 6-31G*
  Basis Set:
  @DF-RHF Final Energy:  -285.73021954073914
    Total Energy =                       -285.7302195407391991
  Basis Set: 6-31G*
  Basis Set:
  Basis Set: 6-31G*
  Basis Set:
  @DF-RHF Final Energy:  -285.73033895569660
    Total Energy =                       -285.7303389556964248
  Basis Set: 6-31G*
  Basis Set:
  Charge       = 0
  Multiplicity = 1
  Basis Set: 6-31G*
  Basis Set:

    Orbital Energies (a.u.)
    -----------------------

    Doubly Occupied:

       1A    -15.560482     2A    -11.271009     3A    -11.228378
       4A    -11.228264     5A    -11.217322     6A    -11.216845
       7A    -11.212994     8A     -1.222050     9A     -1.125052
      10A     -1.009014    11A     -0.983594    12A     -0.828543
      13A     -0.809242    14A     -0.703259    15A     -0.683412
      16A     -0.652113    17A     -0.595311    18A     -0.589692
      19A     -0.578114    20A     -0.528584    21A     -0.502638
      22A     -0.484183    23A     -0.442271    24A     -0.330764
      25A     -0.288997

  @DF-RHF Final Energy:  -285.73033962136691

   => Energetics <=

    Nuclear Repulsion Energy =            273.0776136508209788
    One-Electron Energy =                -927.0316577658967390
    Two-Electron Energy =                 368.2237044937089081
    DFT Exchange-Correlation Energy =       0.0000000000000000
    Empirical Dispersion Energy =           0.0000000000000000
    PCM Polarization Energy =               0.0000000000000000
    EFP Energy =                            0.0000000000000000
    Total Energy =                       -285.7303396213667952
    Molecular point group: c1
  Basis Set: 6-31G*
  Basis Set:

  -Total Gradient:
     Atom            X                  Y                   Z
    ------   -----------------  -----------------  -----------------
       1        0.000014628892     0.000792418830    -0.000280135368
       2        0.000005227169    -0.001346962531     0.000305506037
       3       -0.000005390821     0.001139638101     0.000108820389
       4       -0.000012054615     0.000007435645    -0.000002015117
       5       -0.000105688689    -0.000579144551    -0.000074635713
       6        0.000109261390    -0.000016842506    -0.000078610561
       7        0.000013700591    -0.000017328992     0.000001122484
       8        0.000126354208     0.000026817942    -0.000067206718
       9       -0.000011466272    -0.000022125409     0.000005730585
      10       -0.000130131989     0.000162005651    -0.000077080510
      11       -0.000003541345     0.000008430346     0.000008043757
      12       -0.000002272030    -0.000140208261     0.000151908968
      13        0.000001702076    -0.000021639824     0.000002623831
      14       -0.000000328566     0.000007505559    -0.000004072064

  **** Optimization is complete! (in 4 steps) ****
    Final optimized geometry and variables:
    Molecular point group: c1

    Geometry (in Angstrom), charge = 0, multiplicity = 1:

    H            2.749270083440    -0.326752429655    -0.850045999007
    N            2.332929526647    -0.029464942473     0.005721836830
    C            0.936253263702    -0.028646118763    -0.000199524460
    H            2.744156392490    -0.495579849388     0.785371382349
    C            0.227200862532    -0.009580838461    -1.198225169280
    C            0.226807666710    -0.004383831576     1.198327867792
    H            0.761097194742    -0.025723298716    -2.133059508750
    C           -1.155880606151     0.037236404010    -1.192562572255
    H            0.762250148040    -0.009776363491     2.132160230348
    C           -1.155551147960     0.037025158759     1.192177480667
    H           -1.684000784702     0.052678966306    -2.129773223933
    C           -1.861098335254     0.058170081518    -0.000589254580
    H           -1.684003259189     0.053793991518     2.129190226863
    H           -2.935317811848     0.091273676270    -0.000590050084

  Mulliken Charges: (a.u.)
   Center  Symbol    Alpha    Beta     Spin     Total
       1     H     0.32016  0.32016  0.00000  0.35968
       2     N     3.94645  3.94645  0.00000 -0.89289
       3     C     2.85034  2.85034  0.00000  0.29933
       4     H     0.31995  0.31995  0.00000  0.36010
       5     C     3.12844  3.12844  0.00000 -0.25688
       6     C     3.12617  3.12617  0.00000 -0.25234
       7     H     0.40470  0.40470  0.00000  0.19060
       8     C     3.08957  3.08957  0.00000 -0.17914
       9     H     0.40351  0.40351  0.00000  0.19298
      10     C     3.08981  3.08981  0.00000 -0.17961
      11     H     0.40093  0.40093  0.00000  0.19814
      12     C     3.11617  3.11617  0.00000 -0.23235
      13     H     0.40089  0.40089  0.00000  0.19822
      14     H     0.40291  0.40291  0.00000  0.19417

   Total alpha = 25.00000, Total beta = 25.00000, Total charge = -0.00000
