  ==> Input File <==

--------------------------------------------------------------------------
set {
	reference rhf
	basis 6-31G*
}

set_num_threads( 4 )
memory 2 gb

molecule MOL {
0 1

H	 -4.031818	 -0.453427	 -0.000094
C	 -2.967712	 -0.297022	 -0.000064
C	 -2.458620	 0.992929	 0.000032
C	 -2.109895	 -1.385637	 -0.000122
H	 -3.124998	 1.836319	 0.000077
C	 -1.090278	 1.193236	 0.000070
H	 -2.506361	 -2.384847	 -0.000198
C	 -0.739812	 -1.187531	 -0.000085
H	 -0.678594	 2.184290	 0.000146
C	 -0.226438	 0.104061	 0.000012
H	 -0.072310	 -2.027032	 -0.000131
C	 1.239129	 0.373821	 0.000060
O	 1.711345	 0.675833	 1.200228
O	 1.924758	 0.325665	 -0.972798
C	 3.098570	 0.947524	 1.292220
H	 3.673877	 0.087823	 0.981202
H	 3.286290	 1.168659	 2.331312
H	 3.360031	 1.794362	 0.674626

	symmetry c1
}
set optking {
	frozen_dihedral = ("
		13 12 10 6
	")
}

ee = optimize('scf')
oeprop('DIPOLE', 'QUADRUPOLE', 'MULLIKEN_CHARGES')
f=open( 'psi4out.xyz', 'w' )
f.write( "18  " )
f.write( str(ee) + "\n" )
f.write( MOL.save_string_xyz() )
f.close()
--------------------------------------------------------------------------

    Molecular point group: c1
  Charge       = 0
  Multiplicity = 1
  Basis Set: 6-31G*
  Basis Set:
  @DF-RHF Final Energy:  -457.33803224969967
    Total Energy =                       -457.3380322496993813
    Molecular point group: c1
  Basis Set: 6-31G*
  Basis Set:
  Basis Set: 6-31G*
  Basis Set:
  @DF-RHF Final Energy:  -457.33865556675033
    Total Energy =                       -457.3386555667512994
  Basis Set: 6-31G*
  Basis Set:
  Basis Set: 6-31G*
  Basis Set:
  @DF-RHF Final Energy:  -457.33870124643136
    Total Energy =                       -457.3387012464316967
  Basis Set: 6-31G*
  Basis Set:
  Basis Set: 6-31G*
  Basis Set:
  @DF-RHF Final Energy:  -457.33862635526714
    Total Energy =                       -457.3386263552671380
  Basis Set: 6-31G*
  Basis Set:
  Basis Set: 6-31G*
  Basis Set:
  @DF-RHF Final Energy:  -457.33871538872427
    Total Energy =                       -457.3387153887242675
  Basis Set: 6-31G*
  Basis Set:
  Charge       = 0
  Multiplicity = 1
  Basis Set: 6-31G*
  Basis Set:

    Orbital Energies (a.u.)
    -----------------------

    Doubly Occupied:

       1A    -20.610022     2A    -20.551243     3A    -11.380890
       4A    -11.283739     5A    -11.251553     6A    -11.244006
       7A    -11.243444     8A    -11.240451     9A    -11.239558
      10A    -11.238713    11A     -1.475714    12A     -1.368501
      13A     -1.166467    14A     -1.048587    15A     -1.025639
      16A     -0.980211    17A     -0.859553    18A     -0.838217
      19A     -0.780576    20A     -0.737536    21A     -0.685240
      22A     -0.680281    23A     -0.676924    24A     -0.631133
      25A     -0.629559    26A     -0.597148    27A     -0.591381
      28A     -0.548377    29A     -0.536846    30A     -0.517891
      31A     -0.506896    32A     -0.501926    33A     -0.459890
      34A     -0.445088    35A     -0.342555    36A     -0.341921

  @DF-RHF Final Energy:  -457.33871589770547

   => Energetics <=

    Nuclear Repulsion Energy =            491.4303548484265320
    One-Electron Energy =               -1597.0227925511280773
    Two-Electron Energy =                 648.2537218049966441
    DFT Exchange-Correlation Energy =       0.0000000000000000
    Empirical Dispersion Energy =           0.0000000000000000
    PCM Polarization Energy =               0.0000000000000000
    EFP Energy =                            0.0000000000000000
    Total Energy =                       -457.3387158977049012
    Molecular point group: c1
  Basis Set: 6-31G*
  Basis Set:

  -Total Gradient:
     Atom            X                  Y                   Z
    ------   -----------------  -----------------  -----------------
       1       -0.000004788049     0.000015767021     0.000002421633
       2        0.000025506436    -0.000115696385     0.000007088900
       3        0.000093878671     0.000066010588    -0.000023859785
       4       -0.000142075147     0.000049143283    -0.000010291673
       5       -0.000008597840    -0.000006009775     0.000002705569
       6       -0.000172331115    -0.000034511244    -0.002903620332
       7        0.000014134706     0.000004397131    -0.000003106942
       8        0.000132865084     0.000092818368     0.000028391522
       9        0.000001975868    -0.000012350451    -0.000009181459
      10        0.000270175712    -0.000984960819     0.004492598240
      11       -0.000009764404    -0.000000830034    -0.000003535649
      12       -0.000595422879     0.003753028985    -0.002187405173
      13        0.000416107146    -0.002741506601     0.000630800572
      14       -0.000020965076    -0.000025947486    -0.000010254978
      15        0.000008588314    -0.000095260885    -0.000008276457
      16        0.000023132358     0.000019494242     0.000008363581
      17       -0.000012282545     0.000009289973    -0.000004808500
      18       -0.000020137244     0.000007124089    -0.000008029070

  **** Optimization is complete! (in 6 steps) ****
    Final optimized geometry and variables:
    Molecular point group: c1

    Geometry (in Angstrom), charge = 0, multiplicity = 1:

    H           -3.996191096204    -0.678756659800    -0.211694521101
    C           -2.935243058056    -0.505528557927    -0.191007615704
    C           -2.444555029386     0.790278382074    -0.178473653872
    C           -2.057559980423    -1.577401442332    -0.182557184535
    H           -3.122753892907     1.624293637218    -0.193128978998
    C           -1.078557386204     1.014902061733    -0.147894644746
    H           -2.434691566279    -2.583994771755    -0.198411260783
    C           -0.690562822725    -1.355636360934    -0.163488384925
    H           -0.699053760502     2.020954197989    -0.134297810351
    C           -0.200968583225    -0.058857890960    -0.131928410982
    H           -0.009173822821    -2.187176621141    -0.175903806358
    C            1.280093578603     0.173238791960    -0.167210207511
    O            1.761065615852     0.497192968205     1.022122588733
    O            1.953665254796     0.053429229360    -1.138096628482
    C            3.156099403245     0.735763182316     1.106372915088
    H            3.708720537777    -0.149735690715     0.827711056790
    H            3.348245044397     0.989569602635     2.136888804007
    H            3.441292196122     1.551998789691     0.458439899951

  Mulliken Charges: (a.u.)
   Center  Symbol    Alpha    Beta     Spin     Total
       1     H     0.39649  0.39649  0.00000  0.20702
       2     C     3.09730  3.09730  0.00000 -0.19459
       3     C     3.09996  3.09996  0.00000 -0.19991
       4     C     3.10028  3.10028  0.00000 -0.20057
       5     H     0.39597  0.39597  0.00000  0.20807
       6     C     3.09701  3.09701  0.00000 -0.19402
       7     H     0.39580  0.39580  0.00000  0.20840
       8     C     3.09827  3.09827  0.00000 -0.19654
       9     H     0.39160  0.39160  0.00000  0.21680
      10     C     3.00943  3.00943  0.00000 -0.01885
      11     H     0.39000  0.39000  0.00000  0.21999
      12     C     2.64174  2.64174  0.00000  0.71652
      13     O     4.29518  4.29518  0.00000 -0.59037
      14     O     4.27413  4.27413  0.00000 -0.54826
      15     C     3.09422  3.09422  0.00000 -0.18845
      16     H     0.40789  0.40789  0.00000  0.18421
      17     H     0.40633  0.40633  0.00000  0.18733
      18     H     0.40840  0.40840  0.00000  0.18320

   Total alpha = 36.00000, Total beta = 36.00000, Total charge =  0.00000
