                              Psi4 1.0.54 Driver

  ==> Input File <==

--------------------------------------------------------------------------
set {
	reference rhf
	basis cc-pvtz
}

set_num_threads( 4 )
memory 2 gb

molecule MOL {
0 1

O	 -0.294688	 1.318815	 -0.000872
C	 -0.448732	 0.145721	 -0.000187
C	 -1.780748	 -0.548101	 0.000195
O	 0.550743	 -0.719877	 0.000412
H	 -1.859389	 -1.183260	 -0.872613
H	 -2.570236	 0.185547	 -0.001342
H	 -1.860233	 -1.180337	 0.875064
C	 1.850723	 -0.208595	 -0.218010
H	 1.913329	 0.272517	 -1.182707
H	 2.514081	 -1.057285	 -0.181048
H	 2.113265	 0.504248	 0.549420

	symmetry c1
}
set optking {
	frozen_dihedral = ("
		8 4 2 1
	")
}

ee,wfn = optimize('scf', return_wfn=True)
oeprop( wfn, 'DIPOLE', 'QUADRUPOLE', 'MULLIKEN_CHARGES')
f=open( 'psi4out.xyz', 'w' )
f.write( "11  " )
f.write( str(ee) + "\n" )
f.write( MOL.save_string_xyz() )
f.close()
--------------------------------------------------------------------------

    Molecular point group: c1
  Charge       = 0
  Multiplicity = 1
  Basis Set: CC-PVTZ
  Basis Set:
  @DF-RHF Final Energy:  -266.93859934797422
    Total Energy =                       -266.9385993479741614
    Molecular point group: c1
  Basis Set: CC-PVTZ
  Basis Set:
  Basis Set: CC-PVTZ
  Basis Set:
  @DF-RHF Final Energy:  -266.93736059522371
    Total Energy =                       -266.9373605952236517
  Basis Set: CC-PVTZ
  Basis Set:
  Basis Set: CC-PVTZ
  Basis Set:
  @DF-RHF Final Energy:  -266.93865299017000
    Total Energy =                       -266.9386529901699419
  Basis Set: CC-PVTZ
  Basis Set:
  Basis Set: CC-PVTZ
  Basis Set:
  @DF-RHF Final Energy:  -266.93867732822343
    Total Energy =                       -266.9386773282234344
  Basis Set: CC-PVTZ
  Basis Set:
  Basis Set: CC-PVTZ
  Basis Set:
  @DF-RHF Final Energy:  -266.93867962735811
    Total Energy =                       -266.9386796273581126
  Basis Set: CC-PVTZ
  Basis Set:
  Basis Set: CC-PVTZ
  Basis Set:
  @DF-RHF Final Energy:  -266.93868165868008
    Total Energy =                       -266.9386816586798545
  Basis Set: CC-PVTZ
  Basis Set:
  Basis Set: CC-PVTZ
  Basis Set:
  @DF-RHF Final Energy:  -266.93868282919937
    Total Energy =                       -266.9386828291994789
  Basis Set: CC-PVTZ
  Basis Set:
  Charge       = 0
  Multiplicity = 1
  Basis Set: CC-PVTZ
  Basis Set:

    Orbital Energies (a.u.)
    -----------------------

    Doubly Occupied:

       1A    -20.598354     2A    -20.535601     3A    -11.368996
       4A    -11.280309     5A    -11.233420     6A     -1.473931
       7A     -1.367760     8A     -1.036742     9A     -0.953794
      10A     -0.780183    11A     -0.698073    12A     -0.684342
      13A     -0.681083    14A     -0.596135    15A     -0.593543
      16A     -0.562157    17A     -0.528108    18A     -0.524070
      19A     -0.462229    20A     -0.445874

  @DF-RHF Final Energy:  -266.93868316353996

   => Energetics <=

    Nuclear Repulsion Energy =            183.6544998021395259
    One-Electron Energy =                -728.3769569790231344
    Two-Electron Energy =                 277.7837740133437592
    DFT Exchange-Correlation Energy =       0.0000000000000000
    Empirical Dispersion Energy =           0.0000000000000000
    PCM Polarization Energy =               0.0000000000000000
    EFP Energy =                            0.0000000000000000
    Total Energy =                       -266.9386831635398494
    Molecular point group: c1
  Basis Set: CC-PVTZ
  Basis Set:

  -Total Gradient:
     Atom            X                  Y                   Z
    ------   -----------------  -----------------  -----------------
       1       -0.000109526933     0.000215586562     0.003594479335
       2       -0.000027742659    -0.000422080848    -0.006853910278
       3        0.000035455366     0.000137221161     0.000140450052
       4        0.000476395298     0.000598245751     0.005660835680
       5       -0.000025148511    -0.000081980012    -0.000159123026
       6       -0.000179688227     0.000056120989     0.000008223982
       7       -0.000005542391    -0.000065920560     0.000170002920
       8       -0.000354656488    -0.000614889481    -0.002492196014
       9        0.000029242250     0.000060600950    -0.000159354764
      10        0.000052036945     0.000017587267    -0.000015138871
      11        0.000109175351     0.000099508223     0.000105730982

  **** Optimization is complete! (in 8 steps) ****
    Final optimized geometry and variables:
    Molecular point group: c1

    Geometry (in Angstrom), charge = 0, multiplicity = 1:

    O           -0.295916099461     1.321675201180    -0.007017619059
    C           -0.447352287069     0.148861214169     0.027010596537
    C           -1.778121354231    -0.546477841944     0.063939322951
    O            0.554672846589    -0.714048837787     0.070001570389
    H           -1.885435128334    -1.167115536508    -0.816951387833
    H           -2.568673383420     0.185563831313     0.098794613400
    H           -1.827069569758    -1.193509880194     0.930153382743
    C            1.856966200872    -0.206369552469    -0.143115579245
    H            1.916685680373     0.293425084386    -1.099079341215
    H            2.515505350375    -1.059517547975    -0.127817153003
    H            2.130084660540     0.489242693834     0.636426445888

  Mulliken Charges: (a.u.)
   Center  Symbol    Alpha    Beta     Spin     Total
       1     O     4.19594  4.19594  0.00000 -0.39188
       2     C     2.80185  2.80185  0.00000  0.39629
       3     C     3.13769  3.13769  0.00000 -0.27539
       4     O     4.14821  4.14821  0.00000 -0.29642
       5     H     0.44638  0.44638  0.00000  0.10724
       6     H     0.43792  0.43792  0.00000  0.12416
       7     H     0.44476  0.44476  0.00000  0.11049
       8     C     3.03330  3.03330  0.00000 -0.06660
       9     H     0.45612  0.45612  0.00000  0.08775
      10     H     0.44547  0.44547  0.00000  0.10907
      11     H     0.45235  0.45235  0.00000  0.09531

   Total alpha = 20.00000, Total beta = 20.00000, Total charge = -0.00000

*** Psi4 exiting successfully. Buy a developer a beer!
