                              Psi4 1.0.54 Driver

  ==> Input File <==

--------------------------------------------------------------------------
set {
	reference rhf
	basis cc-pvtz
}

set_num_threads( 4 )
memory 2 gb

molecule MOL {
0 1

O	 2.868453	 1.353349	 -0.000734
C	 2.841259	 0.166180	 -0.000295
C	 1.542794	 -0.614730	 -0.000853
C	 4.113372	 -0.651103	 0.000743
C	 0.288398	 0.247429	 0.000314
H	 1.557171	 -1.273139	 -0.866508
H	 1.557484	 -1.274998	 0.863344
C	 -0.993089	 -0.581367	 -0.000217
H	 0.305153	 0.900562	 -0.864701
H	 0.305567	 0.898805	 0.866656
C	 -2.258482	 0.271340	 0.000669
H	 -1.002280	 -1.233920	 -0.870484
H	 -1.002061	 -1.235367	 0.868958
C	 -3.218604	 -0.067921	 1.137244
H	 -2.772138	 0.151305	 -0.950048
H	 -1.983147	 1.321149	 0.065614
C	 -4.480658	 0.788220	 1.131437
H	 -3.495294	 -1.116816	 1.072425
H	 -2.706398	 0.053018	 2.088000
H	 -5.034116	 0.662934	 0.206760
H	 -5.139949	 0.522225	 1.949730
H	 -4.239416	 1.841364	 1.230100
H	 4.145311	 -1.294584	 -0.871587
H	 4.970080	 0.004978	 -0.000091
H	 4.145223	 -1.291980	 0.874988

	symmetry c1
}
set optking {
	frozen_dihedral = ("
		15 11 8 12
	")
}

ee,wfn = optimize('scf', return_wfn=True)
oeprop( wfn, 'DIPOLE', 'QUADRUPOLE', 'MULLIKEN_CHARGES')
f=open( 'psi4out.xyz', 'w' )
f.write( "25  " )
f.write( str(ee) + "\n" )
f.write( MOL.save_string_xyz() )
f.close()
--------------------------------------------------------------------------

    Molecular point group: c1
  Charge       = 0
  Multiplicity = 1
  Basis Set: CC-PVTZ
  Basis Set:
  @DF-RHF Final Energy:  -387.26922074354593
    Total Energy =                       -387.2692207435462706
    Molecular point group: c1
  Basis Set: CC-PVTZ
  Basis Set:
  Basis Set: CC-PVTZ
  Basis Set:
  @DF-RHF Final Energy:  -387.26944352730595
    Total Energy =                       -387.2694435273056115
  Basis Set: CC-PVTZ
  Basis Set:
  Basis Set: CC-PVTZ
  Basis Set:
  @DF-RHF Final Energy:  -387.26949611798210
    Total Energy =                       -387.2694961179818165
  Basis Set: CC-PVTZ
  Basis Set:
  Basis Set: CC-PVTZ
  Basis Set:
  @DF-RHF Final Energy:  -387.26929782902681
    Total Energy =                       -387.2692978290269821
  Basis Set: CC-PVTZ
  Basis Set:
  Basis Set: CC-PVTZ
  Basis Set:
  @DF-RHF Final Energy:  -387.26950396204290
    Total Energy =                       -387.2695039620426769
  Basis Set: CC-PVTZ
  Basis Set:
  Charge       = 0
  Multiplicity = 1
  Basis Set: CC-PVTZ
  Basis Set:

    Orbital Energies (a.u.)
    -----------------------

    Doubly Occupied:

       1A    -20.538903     2A    -11.320579     3A    -11.229953
       4A    -11.226604     5A    -11.215428     6A    -11.214609
       7A    -11.213723     8A    -11.211293     9A    -11.206023
      10A     -1.398948    11A     -1.093682    12A     -1.057086
      13A     -1.015199    14A     -0.968829    15A     -0.891675
      16A     -0.817381    17A     -0.790245    18A     -0.731436
      19A     -0.656627    20A     -0.654245    21A     -0.635902
      22A     -0.623363    23A     -0.601884    24A     -0.582779
      25A     -0.566341    26A     -0.563503    27A     -0.540579
      28A     -0.529907    29A     -0.510109    30A     -0.493043
      31A     -0.486522    32A     -0.480092    33A     -0.464631
      34A     -0.455821    35A     -0.450173    36A     -0.401405

  @DF-RHF Final Energy:  -387.26950431412746

   => Energetics <=

    Nuclear Repulsion Energy =            440.3202535968094367
    One-Electron Energy =               -1397.5024752946421813
    Two-Electron Energy =                 569.9127173837053988
    DFT Exchange-Correlation Energy =       0.0000000000000000
    Empirical Dispersion Energy =           0.0000000000000000
    PCM Polarization Energy =               0.0000000000000000
    EFP Energy =                            0.0000000000000000
    Total Energy =                       -387.2695043141274027
    Molecular point group: c1
  Basis Set: CC-PVTZ
  Basis Set:

  -Total Gradient:
     Atom            X                  Y                   Z
    ------   -----------------  -----------------  -----------------
       1       -0.000022238738     0.000024408988     0.000000809669
       2        0.000010416747    -0.000025891428    -0.000003982274
       3        0.000015724302     0.000000629475    -0.000001339681
       4        0.000004735571    -0.000009870091    -0.000004457460
       5       -0.000020959334    -0.000010448478     0.000016246915
       6        0.000008531743     0.000001285432    -0.000000282993
       7        0.000005142216     0.000002808414    -0.000004245316
       8       -0.001009526910    -0.001487990179     0.001058087850
       9       -0.000007832209     0.000004582282     0.000004425315
      10       -0.000004858720     0.000002813446    -0.000000343387
      11        0.001084817444     0.001580575459    -0.000835883809
      12        0.000687917884     0.001012053466    -0.000768205721
      13       -0.000005510365     0.000001735036     0.000001617691
      14        0.000024803136     0.000023595876    -0.000015792465
      15       -0.000751255579    -0.001109631378     0.000544086936
      16        0.000004391516    -0.000001996913     0.000000251809
      17       -0.000025372385     0.000002318002     0.000000914282
      18        0.000006262928    -0.000000154781     0.000002541994
      19        0.000004309989    -0.000000076186    -0.000001094053
      20        0.000000749080     0.000005068814     0.000002469054
      21       -0.000009967386     0.000001863804     0.000000042844
      22       -0.000001278888    -0.000006245004    -0.000000013199
      23        0.000005324296    -0.000007230044     0.000000843536
      24       -0.000009485852     0.000001345749     0.000000173651
      25        0.000005159509    -0.000005549760     0.000003128811

  **** Optimization is complete! (in 6 steps) ****
    Final optimized geometry and variables:
    Molecular point group: c1

    Geometry (in Angstrom), charge = 0, multiplicity = 1:

    O            2.804660762614     1.241628299118    -0.264732470357
    C            2.776224943947     0.054528204171    -0.267582985536
    C            1.476855128766    -0.725067370375    -0.260159492250
    C            4.047400282362    -0.764265041131    -0.278661584577
    C            0.223662589530     0.138147446092    -0.249865107369
    H            1.484728309231    -1.382853755792    -1.126392642317
    H            1.496618840362    -1.386192747390     0.603387921244
    C           -1.060782598245    -0.688658645342    -0.238588169210
    H            0.232938047567     0.790537326957    -1.115712641808
    H            0.246943434243     0.790932549990     0.615568887312
    C           -2.338990326228     0.173058229804    -0.240152538266
    H           -1.059532647720    -1.344545167182    -1.103998580181
    H           -1.057496053383    -1.336537527444     0.633338871802
    C           -3.310437036587    -0.173528962687     0.886620021803
    H           -2.857701169582     0.059263713405    -1.186882475630
    H           -2.073703103831     1.222946282171    -0.163002503460
    C           -4.576690760913     0.675320947826     0.869856149266
    H           -3.579262664957    -1.224301659358     0.816962823461
    H           -2.806561370830    -0.051777676303     1.841956020922
    H           -5.121262828385     0.547398983088    -0.059853055976
    H           -5.241918927978     0.405482706018     1.682114724762
    H           -4.341980497373     1.729747073872     0.970894723712
    H            4.071874997424    -1.405046938231    -1.153205315387
    H            4.904959280014    -0.109268043062    -0.284020569534
    H            4.085038310006    -1.407842722374     0.593379007048

  Mulliken Charges: (a.u.)
   Center  Symbol    Alpha    Beta     Spin     Total
       1     O     4.17060  4.17060  0.00000 -0.34120
       2     C     2.86212  2.86212  0.00000  0.27575
       3     C     3.11501  3.11501  0.00000 -0.23001
       4     C     3.15137  3.15137  0.00000 -0.30273
       5     C     3.08275  3.08275  0.00000 -0.16551
       6     H     0.44568  0.44568  0.00000  0.10864
       7     H     0.44517  0.44517  0.00000  0.10966
       8     C     3.09732  3.09732  0.00000 -0.19463
       9     H     0.44478  0.44478  0.00000  0.11045
      10     H     0.44600  0.44600  0.00000  0.10800
      11     C     3.09323  3.09323  0.00000 -0.18647
      12     H     0.45137  0.45137  0.00000  0.09726
      13     H     0.45506  0.45506  0.00000  0.08987
      14     C     3.08294  3.08294  0.00000 -0.16588
      15     H     0.45085  0.45085  0.00000  0.09829
      16     H     0.45157  0.45157  0.00000  0.09685
      17     C     3.15065  3.15065  0.00000 -0.30129
      18     H     0.45430  0.45430  0.00000  0.09140
      19     H     0.45488  0.45488  0.00000  0.09025
      20     H     0.45531  0.45531  0.00000  0.08939
      21     H     0.44881  0.44881  0.00000  0.10238
      22     H     0.45413  0.45413  0.00000  0.09173
      23     H     0.45037  0.45037  0.00000  0.09927
      24     H     0.43534  0.43534  0.00000  0.12931
      25     H     0.45040  0.45040  0.00000  0.09920

   Total alpha = 36.00000, Total beta = 36.00000, Total charge = -0.00000

*** Psi4 exiting successfully. Buy a developer a beer!
