                              Psi4 1.0.54 Driver

  ==> Input File <==

--------------------------------------------------------------------------
set {
	reference rhf
	basis cc-pvtz
}

set_num_threads( 4 )
memory 2 gb

molecule MOL {
0 1

O	 1.866850	 1.259127	 0.275179
C	 1.704209	 0.119472	 -0.000093
C	 0.380337	 -0.600947	 -0.000234
O	 2.690887	 -0.688507	 -0.352305
C	 -0.824290	 0.329213	 -0.000115
H	 0.371455	 -1.255476	 -0.865660
H	 0.371410	 -1.255787	 0.864952
C	 -2.146151	 -0.432825	 -0.000068
H	 -0.773936	 0.979158	 -0.866319
H	 -0.773838	 0.979034	 0.866186
C	 -3.366283	 0.483552	 0.000557
H	 -2.189286	 -1.084450	 -0.869996
H	 -2.188867	 -1.085083	 0.869399
C	 -4.687436	 -0.278003	 0.000108
H	 -3.325150	 1.134819	 -0.867957
H	 -3.325087	 1.133730	 0.869885
H	 -4.773783	 -0.912098	 -0.876078
H	 -5.531922	 0.401392	 0.000363
H	 -4.773901	 -0.912898	 0.875703
C	 3.993478	 -0.141904	 -0.394819
H	 4.044182	 0.667682	 -1.107708
H	 4.643943	 -0.946121	 -0.698097
H	 4.284389	 0.226326	 0.577802

	symmetry c1
}
set optking {
	frozen_dihedral = ("
		1 2 3 6
	")
}

ee,wfn = optimize('scf', return_wfn=True)
oeprop( wfn, 'DIPOLE', 'QUADRUPOLE', 'MULLIKEN_CHARGES')
f=open( 'psi4out.xyz', 'w' )
f.write( "23  " )
f.write( str(ee) + "\n" )
f.write( MOL.save_string_xyz() )
f.close()
--------------------------------------------------------------------------

    Molecular point group: c1
  Charge       = 0
  Multiplicity = 1
  Basis Set: CC-PVTZ
  Basis Set:
  @DF-RHF Final Energy:  -423.13079644095643
    Total Energy =                       -423.1307964409563738
    Molecular point group: c1
  Basis Set: CC-PVTZ
  Basis Set:
  Basis Set: CC-PVTZ
  Basis Set:
  @DF-RHF Final Energy:  -423.13005871217973
    Total Energy =                       -423.1300587121795616
  Basis Set: CC-PVTZ
  Basis Set:
  Basis Set: CC-PVTZ
  Basis Set:
  @DF-RHF Final Energy:  -423.13088357222409
    Total Energy =                       -423.1308835722240929
  Basis Set: CC-PVTZ
  Basis Set:
  Basis Set: CC-PVTZ
  Basis Set:
  @DF-RHF Final Energy:  -423.13091474301490
    Total Energy =                       -423.1309147430145003
  Basis Set: CC-PVTZ
  Basis Set:
  Basis Set: CC-PVTZ
  Basis Set:
  @DF-RHF Final Energy:  -423.13091603727963
    Total Energy =                       -423.1309160372799170
  Basis Set: CC-PVTZ
  Basis Set:
  Charge       = 0
  Multiplicity = 1
  Basis Set: CC-PVTZ
  Basis Set:

    Orbital Energies (a.u.)
    -----------------------

    Doubly Occupied:

       1A    -20.596681     2A    -20.533663     3A    -11.364538
       4A    -11.278474     5A    -11.233656     6A    -11.217658
       7A    -11.215991     8A    -11.214646     9A    -11.207852
      10A     -1.472265    11A     -1.365596    12A     -1.094631
      13A     -1.044795    14A     -0.988066    15A     -0.932899
      16A     -0.844271    17A     -0.795708    18A     -0.769696
      19A     -0.698943    20A     -0.686597    21A     -0.675303
      22A     -0.653052    23A     -0.609605    24A     -0.600825
      25A     -0.573814    26A     -0.562696    27A     -0.555223
      28A     -0.525565    29A     -0.522692    30A     -0.508120
      31A     -0.484655    32A     -0.470611    33A     -0.467105
      34A     -0.463344    35A     -0.459561    36A     -0.437815

  @DF-RHF Final Energy:  -423.13091620058702

   => Energetics <=

    Nuclear Repulsion Energy =            452.8858801501119729
    One-Electron Energy =               -1473.7803776829655362
    Two-Electron Energy =                 597.7635813322665399
    DFT Exchange-Correlation Energy =       0.0000000000000000
    Empirical Dispersion Energy =           0.0000000000000000
    PCM Polarization Energy =               0.0000000000000000
    EFP Energy =                            0.0000000000000000
    Total Energy =                       -423.1309162005870803
    Molecular point group: c1
  Basis Set: CC-PVTZ
  Basis Set:

  -Total Gradient:
     Atom            X                  Y                   Z
    ------   -----------------  -----------------  -----------------
       1        0.000110364188    -0.000204408628     0.000641736084
       2       -0.000130804514     0.000217571000    -0.000847611739
       3       -0.000271683297     0.000490176638    -0.000122219703
       4        0.000018878514    -0.000033540749    -0.000009297304
       5        0.000004442116     0.000000546979    -0.000002171061
       6        0.000270841659    -0.000471189463     0.000338096073
       7       -0.000002021766    -0.000001955296    -0.000000169450
       8        0.000003656533    -0.000001194334    -0.000001594990
       9        0.000002212717    -0.000004652511     0.000002182376
      10       -0.000003743442     0.000005247708     0.000001480184
      11        0.000001464251     0.000000982053     0.000000814371
      12        0.000000917682     0.000001696066    -0.000000678827
      13        0.000000102322    -0.000000764736    -0.000001927366
      14       -0.000000268046    -0.000000164627     0.000002572333
      15        0.000000418052    -0.000001712305     0.000000439817
      16       -0.000000918802     0.000001186710    -0.000000544767
      17        0.000000791208     0.000000907932     0.000000352450
      18       -0.000000079228    -0.000000156985     0.000000387096
      19       -0.000000292573    -0.000000197542    -0.000000488952
      20        0.000006604956     0.000007279011     0.000001572522
      21       -0.000003005461    -0.000003433704     0.000004462387
      22       -0.000001434779     0.000001470578     0.000001379250
      23       -0.000006442280    -0.000003693794    -0.000008770785

  **** Optimization is complete! (in 6 steps) ****
    Final optimized geometry and variables:
    Molecular point group: c1

    Geometry (in Angstrom), charge = 0, multiplicity = 1:

    O            1.865029786668     1.263801272110     0.234831331704
    C            1.704811533087     0.124059369209    -0.042125346080
    C            0.385866873123    -0.604737921249    -0.008161440616
    O            2.693063302397    -0.680276498260    -0.397615976343
    C           -0.822509298698     0.318435336839     0.064046198629
    H            0.340690484989    -1.259495903544    -0.870100435870
    H            0.421494805936    -1.259195934464     0.858603206894
    C           -2.138279901504    -0.451072534311     0.130522299977
    H           -0.824566510312     0.972851288993    -0.801482463001
    H           -0.726743315119     0.963388645052     0.929055101994
    C           -3.361542360899     0.458391818031     0.200387432693
    H           -2.224526085429    -1.099883594256    -0.738228781592
    H           -2.130307036777    -1.106389023198     0.998702094797
    C           -4.676503967206    -0.310693147927     0.269440144052
    H           -3.371533382352     1.112253494787    -0.667153554488
    H           -3.276543026444     1.106318504875     1.068157710554
    H           -4.806871360282    -0.942845966469    -0.602707359430
    H           -5.523478594621     0.363876203435     0.317767953094
    H           -4.711616289599    -0.948477342170     1.146487911721
    C            3.996108711476    -0.133699139966    -0.424993437769
    H            4.052148528052     0.682883041834    -1.129336734687
    H            4.648599979475    -0.935096214444    -0.731406567357
    H            4.279925663638     0.224806736518     0.553382319820

  Mulliken Charges: (a.u.)
   Center  Symbol    Alpha    Beta     Spin     Total
       1     O     4.19777  4.19777  0.00000 -0.39555
       2     C     2.80932  2.80932  0.00000  0.38135
       3     C     3.09806  3.09806  0.00000 -0.19612
       4     O     4.14594  4.14594  0.00000 -0.29188
       5     C     3.08479  3.08479  0.00000 -0.16959
       6     H     0.43854  0.43854  0.00000  0.12293
       7     H     0.44244  0.44244  0.00000  0.11513
       8     C     3.08940  3.08940  0.00000 -0.17879
       9     H     0.44927  0.44927  0.00000  0.10145
      10     H     0.44287  0.44287  0.00000  0.11425
      11     C     3.08399  3.08399  0.00000 -0.16798
      12     H     0.45579  0.45579  0.00000  0.08841
      13     H     0.45548  0.45548  0.00000  0.08905
      14     C     3.15039  3.15039  0.00000 -0.30079
      15     H     0.45356  0.45356  0.00000  0.09289
      16     H     0.45298  0.45298  0.00000  0.09404
      17     H     0.45538  0.45538  0.00000  0.08925
      18     H     0.44772  0.44772  0.00000  0.10456
      19     H     0.45523  0.45523  0.00000  0.08955
      20     C     3.03714  3.03714  0.00000 -0.07428
      21     H     0.45431  0.45431  0.00000  0.09137
      22     H     0.44523  0.44523  0.00000  0.10953
      23     H     0.45439  0.45439  0.00000  0.09123

   Total alpha = 36.00000, Total beta = 36.00000, Total charge =  0.00000

*** Psi4 exiting successfully. Buy a developer a beer!
