  ==> Input File <==

--------------------------------------------------------------------------
set {
	reference rhf
	basis cc-pvtz
}

set_num_threads( 4 )
memory 2 gb

molecule MOL {
0 1

H	 -3.436473	 1.252944	 -1.023892
O	 -3.458596	 0.315260	 -0.960865
C	 -3.176635	 -0.080824	 0.355601
C	 -1.763371	 0.265266	 0.799691
H	 -3.321825	 -1.153438	 0.379502
H	 -3.895468	 0.357385	 1.043382
C	 -0.673390	 -0.426948	 -0.013392
H	 -1.631049	 1.344913	 0.747560
H	 -1.664587	 -0.001624	 1.849167
C	 0.737842	 -0.043159	 0.423759
H	 -0.806103	 -0.190518	 -1.063345
H	 -0.797221	 -1.503753	 0.074146
C	 1.824000	 -0.743224	 -0.390623
H	 0.850588	 1.033777	 0.343840
H	 0.868587	 -0.286314	 1.476203
C	 3.255957	 -0.453067	 0.062319
H	 1.718250	 -0.470599	 -1.438164
H	 1.658105	 -1.815850	 -0.339904
C	 4.151955	 0.163248	 -1.009355
H	 3.704803	 -1.383296	 0.396963
H	 3.231799	 0.200166	 0.930721
H	 4.190619	 -0.465771	 -1.893050
H	 5.165694	 0.278779	 -0.642984
H	 3.803918	 1.142374	 -1.315603

	symmetry c1
}
set optking {
	frozen_dihedral = ("
		20 16 13 17
	")
}

ee = optimize('scf')
oeprop('DIPOLE', 'QUADRUPOLE', 'MULLIKEN_CHARGES')
f=open( 'psi4out.xyz', 'w' )
f.write( "24  " )
f.write( str(ee) + "\n" )
f.write( MOL.save_string_xyz() )
f.close()
--------------------------------------------------------------------------

    Molecular point group: c1
  Charge       = 0
  Multiplicity = 1
  Basis Set: CC-PVTZ
  Basis Set:
  @DF-RHF Final Energy:  -349.37602518932317
    Total Energy =                       -349.3760251893239115
    Molecular point group: c1
  Basis Set: CC-PVTZ
  Basis Set:
  Basis Set: CC-PVTZ
  Basis Set:
  @DF-RHF Final Energy:  -349.37651674861013
    Total Energy =                       -349.3765167486108112
  Basis Set: CC-PVTZ
  Basis Set:
  Basis Set: CC-PVTZ
  Basis Set:
  @DF-RHF Final Energy:  -349.37656664845059
    Total Energy =                       -349.3765666484508756
  Basis Set: CC-PVTZ
  Basis Set:
  Charge       = 0
  Multiplicity = 1
  Basis Set: CC-PVTZ
  Basis Set:

    Orbital Energies (a.u.)
    -----------------------

    Doubly Occupied:

       1A    -20.546350     2A    -11.265579     3A    -11.215292
       4A    -11.211371     5A    -11.211103     6A    -11.208923
       7A    -11.208824     8A    -11.205856     9A     -1.364197
      10A     -1.088811    11A     -1.048677    12A     -0.988685
      13A     -0.914453    14A     -0.844263    15A     -0.799279
      16A     -0.787422    17A     -0.681849    18A     -0.655171
      19A     -0.627297    20A     -0.617200    21A     -0.598386
      22A     -0.584907    23A     -0.554967    24A     -0.537727
      25A     -0.529094    26A     -0.506418    27A     -0.494192
      28A     -0.472574    29A     -0.468847    30A     -0.459748
      31A     -0.456837    32A     -0.452345    33A     -0.420264

  @DF-RHF Final Energy:  -349.37656709952421

   => Energetics <=

    Nuclear Repulsion Energy =            382.0517533964595032
    One-Electron Energy =               -1230.8028174265027701
    Two-Electron Energy =                 499.3744969305193990
    DFT Exchange-Correlation Energy =       0.0000000000000000
    Empirical Dispersion Energy =           0.0000000000000000
    PCM Polarization Energy =               0.0000000000000000
    EFP Energy =                            0.0000000000000000
    Total Energy =                       -349.3765670995238679
    Molecular point group: c1
  Basis Set: CC-PVTZ
  Basis Set:

  -Total Gradient:
     Atom            X                  Y                   Z
    ------   -----------------  -----------------  -----------------
       1       -0.000000044618     0.000000650073    -0.000000691930
       2       -0.000008432556     0.000000332123    -0.000004065008
       3        0.000000597371     0.000014885944    -0.000006711480
       4       -0.000003302297     0.000037159953    -0.000043973116
       5        0.000004219332    -0.000000074201     0.000001509776
       6       -0.000003300283    -0.000001178826     0.000001800384
       7       -0.000027235680     0.000030899935    -0.000011220511
       8       -0.000002177151     0.000013181983     0.000015560929
       9        0.000009550018    -0.000014208646    -0.000021393764
      10        0.000059868582    -0.000080195802     0.000155887870
      11       -0.000009762683    -0.000022765592    -0.000005352232
      12        0.000028883053     0.000014830497     0.000026409423
      13        0.000079250520     0.000046762718    -0.000058564539
      14        0.000028594795     0.000027598733     0.000053850648
      15       -0.000047557198    -0.000014344058     0.000002452879
      16       -0.000185952809     0.000113808193     0.000186424103
      17        0.000116282832    -0.000114265921    -0.000060996893
      18        0.000052678864    -0.000008537489     0.000038207053
      19        0.000048155664    -0.000023651745    -0.000130434408
      20       -0.000055994952    -0.000030537549    -0.000081306576
      21       -0.000089817157    -0.000029761613     0.000006099087
      22       -0.000003428707     0.000047854918    -0.000052415196
      23        0.000023882301    -0.000022304766    -0.000013460772
      24       -0.000014957243     0.000013861140     0.000002384271

  **** Optimization is complete! (in 4 steps) ****
    Final optimized geometry and variables:
    Molecular point group: c1

    Geometry (in Angstrom), charge = 0, multiplicity = 1:

    H           -3.436713798744     1.426000364037    -0.913399356376
    O           -3.483217540909     0.488245683767    -0.867203388246
    C           -3.228668562868     0.062599100875     0.445528345408
    C           -1.812780200711     0.364171041956     0.913165989836
    H           -3.401723944827    -1.006140879651     0.448588456044
    H           -3.944928932714     0.507319831857     1.131821496923
    C           -0.730390892093    -0.340648463575     0.100648572395
    H           -1.652350117410     1.440850488638     0.882816958591
    H           -1.734048733050     0.075645107962     1.958560314710
    C            0.683849080866    -0.000291000096     0.560277179411
    H           -0.844919711209    -0.083443589198    -0.946558881907
    H           -0.881244269534    -1.415559461325     0.168241638981
    C            1.770581515249    -0.705257409928    -0.248741889525
    H            0.834300412480     1.075386822970     0.496193679398
    H            0.796033873262    -0.258783543282     1.610830820462
    C            3.203547448561    -0.339776624894     0.189885501092
    H            1.638851432623    -0.461352404291    -1.298810028315
    H            1.623535374558    -1.778065703721    -0.173664044583
    C            4.033547460223     0.304738479527    -0.917200085922
    H            3.718067756946    -1.226470831316     0.543986433305
    H            3.161889646653     0.337656355612     1.036911613264
    H            4.134494672974    -0.361125953682    -1.767753762907
    H            5.030449569396     0.552291186910    -0.569845160049
    H            3.568468950862     1.219580055574    -1.270306248998

  Mulliken Charges: (a.u.)
   Center  Symbol    Alpha    Beta     Spin     Total
       1     H     0.39530  0.39530  0.00000  0.20939
       2     O     4.20363  4.20363  0.00000 -0.40726
       3     C     2.97780  2.97780  0.00000  0.04440
       4     C     3.10201  3.10201  0.00000 -0.20402
       5     H     0.45890  0.45890  0.00000  0.08220
       6     H     0.46022  0.46022  0.00000  0.07956
       7     C     3.08899  3.08899  0.00000 -0.17797
       8     H     0.45909  0.45909  0.00000  0.08181
       9     H     0.45333  0.45333  0.00000  0.09335
      10     C     3.08954  3.08954  0.00000 -0.17908
      11     H     0.44605  0.44605  0.00000  0.10789
      12     H     0.45541  0.45541  0.00000  0.08918
      13     C     3.09397  3.09397  0.00000 -0.18795
      14     H     0.45506  0.45506  0.00000  0.08987
      15     H     0.45476  0.45476  0.00000  0.09048
      16     C     3.08947  3.08947  0.00000 -0.17895
      17     H     0.45413  0.45413  0.00000  0.09173
      18     H     0.44978  0.44978  0.00000  0.10044
      19     C     3.14714  3.14714  0.00000 -0.29427
      20     H     0.45014  0.45014  0.00000  0.09972
      21     H     0.45495  0.45495  0.00000  0.09011
      22     H     0.45440  0.45440  0.00000  0.09119
      23     H     0.45006  0.45006  0.00000  0.09987
      24     H     0.45585  0.45585  0.00000  0.08830

   Total alpha = 33.00000, Total beta = 33.00000, Total charge = -0.00000
