  ==> Input File <==

--------------------------------------------------------------------------
set {
	reference rhf
	basis 6-31G*
}

set_num_threads( 4 )
memory 2 gb

molecule MOL {
0 1

H	 -3.093163	 -0.371167	 -1.548326
O	 -3.452007	 0.283848	 -0.965577
C	 -3.181085	 -0.079926	 0.364119
C	 -1.765924	 0.277073	 0.805136
H	 -3.327791	 -1.152017	 0.410903
H	 -3.905698	 0.375695	 1.036898
C	 -0.677594	 -0.417312	 -0.014550
H	 -1.637766	 1.358238	 0.744969
H	 -1.659588	 0.017670	 1.857098
C	 0.738335	 -0.034840	 0.421385
H	 -0.814977	 -0.178223	 -1.064632
H	 -0.802730	 -1.495410	 0.071702
C	 1.822265	 -0.738362	 -0.399735
H	 0.853533	 1.043532	 0.342250
H	 0.871597	 -0.279636	 1.474438
C	 3.258060	 -0.455774	 0.057203
H	 1.718003	 -0.459167	 -1.447053
H	 1.651028	 -1.811884	 -0.354513
C	 3.709143	 0.994797	 -0.123830
H	 3.930637	 -1.101717	 -0.501982
H	 3.365259	 -0.739518	 1.102287
H	 3.601178	 1.310569	 -1.158127
H	 4.753787	 1.110486	 0.148516
H	 3.135362	 1.678896	 0.492569

	symmetry c1
}
set optking {
	frozen_dihedral = ("
		1 2 3 5
	")
}

ee = optimize('scf')
oeprop('DIPOLE', 'QUADRUPOLE', 'MULLIKEN_CHARGES')
f=open( 'psi4out.xyz', 'w' )
f.write( "24  " )
f.write( str(ee) + "\n" )
f.write( MOL.save_string_xyz() )
f.close()
--------------------------------------------------------------------------

    Molecular point group: c1
  Charge       = 0
  Multiplicity = 1
  Basis Set: 6-31G*
  Basis Set:
  @DF-RHF Final Energy:  -349.24525129483192
    Total Energy =                       -349.2452512948318031
    Molecular point group: c1
  Basis Set: 6-31G*
  Basis Set:
  Basis Set: 6-31G*
  Basis Set:
  @DF-RHF Final Energy:  -349.24654173050357
    Total Energy =                       -349.2465417305037363
  Basis Set: 6-31G*
  Basis Set:
  Basis Set: 6-31G*
  Basis Set:
  @DF-RHF Final Energy:  -349.24701634573313
    Total Energy =                       -349.2470163457335275
  Basis Set: 6-31G*
  Basis Set:
  Basis Set: 6-31G*
  Basis Set:
  @DF-RHF Final Energy:  -349.24702149893312
    Total Energy =                       -349.2470214989333499
  Basis Set: 6-31G*
  Basis Set:
  @DF-RHF Final Energy:  -349.24702309838710
    Total Energy =                       -349.2470230983874444
  Basis Set: 6-31G*
  Basis Set:
  @DF-RHF Final Energy:  -349.24702410205748
    Total Energy =                       -349.2470241020573667
  Basis Set: 6-31G*
  Basis Set:
  Basis Set: 6-31G*
  Basis Set:
  @DF-RHF Final Energy:  -349.24702306697327
    Total Energy =                       -349.2470230669736111
  Basis Set: 6-31G*
  Basis Set:
  Basis Set: 6-31G*
  Basis Set:
  @DF-RHF Final Energy:  -349.24702447976210
    Total Energy =                       -349.2470244797619330
  Basis Set: 6-31G*
  Basis Set:
  Charge       = 0
  Multiplicity = 1
  Basis Set: 6-31G*
  Basis Set:

    Orbital Energies (a.u.)
    -----------------------

    Doubly Occupied:

       1A    -20.552405     2A    -11.267491     3A    -11.218092
       4A    -11.216067     5A    -11.215336     6A    -11.214573
       7A    -11.213832     8A    -11.208435     9A     -1.358952
      10A     -1.091291    11A     -1.049577    12A     -0.987140
      13A     -0.918021    14A     -0.851585    15A     -0.795252
      16A     -0.779156    17A     -0.697902    18A     -0.649267
      19A     -0.627977    20A     -0.607979    21A     -0.601794
      22A     -0.584231    23A     -0.561692    24A     -0.537841
      25A     -0.520490    26A     -0.511571    27A     -0.495168
      28A     -0.478259    29A     -0.474401    30A     -0.461007
      31A     -0.457130    32A     -0.448030    33A     -0.420423

  @DF-RHF Final Energy:  -349.24702448100822

   => Energetics <=

    Nuclear Repulsion Energy =            384.4819329908840473
    One-Electron Energy =               -1235.3131813310728830
    Two-Electron Energy =                 501.5842238591803834
    DFT Exchange-Correlation Energy =       0.0000000000000000
    Empirical Dispersion Energy =           0.0000000000000000
    PCM Polarization Energy =               0.0000000000000000
    EFP Energy =                            0.0000000000000000
    Total Energy =                       -349.2470244810084523
    Molecular point group: c1
  Basis Set: 6-31G*
  Basis Set:

  -Total Gradient:
     Atom            X                  Y                   Z
    ------   -----------------  -----------------  -----------------
       1       -0.000766189371    -0.000434265962     0.000061555207
       2        0.001145223605     0.000500351501    -0.000106270844
       3       -0.001100881256     0.000048887229     0.000279240765
       4        0.000003891221     0.000009136441    -0.000011688065
       5        0.000727820716    -0.000127390445    -0.000212701427
       6       -0.000001377817     0.000003505165    -0.000010634103
       7       -0.000001960901     0.000006949192    -0.000005100172
       8        0.000004604333     0.000000312298    -0.000000481740
       9       -0.000005216578    -0.000003252100    -0.000000509792
      10        0.000000429667    -0.000000500951     0.000008825730
      11       -0.000006061680     0.000000003301    -0.000003945939
      12        0.000002240774     0.000000122657     0.000001071479
      13        0.000000597132    -0.000002943277    -0.000001199663
      14        0.000003999259     0.000002279869     0.000000868415
      15       -0.000002033448    -0.000000137598     0.000002315052
      16       -0.000000394922     0.000003031527    -0.000003453094
      17       -0.000002235931    -0.000002926594     0.000000275015
      18        0.000003951386    -0.000001679191     0.000001737160
      19       -0.000001154789    -0.000001486520    -0.000000074989
      20        0.000000678104     0.000000527636    -0.000000573975
      21       -0.000002176069     0.000000125240    -0.000000791965
      22       -0.000001319524    -0.000000306856     0.000000490828
      23        0.000000634248    -0.000000327136    -0.000000718664
      24       -0.000003068151    -0.000000015426     0.000001764782

  **** Optimization is complete! (in 9 steps) ****
    Final optimized geometry and variables:
    Molecular point group: c1

    Geometry (in Angstrom), charge = 0, multiplicity = 1:

    H           -3.169029290279    -0.365464770089    -1.542313853833
    O           -3.490316017752     0.288647969768    -0.939594657430
    C           -3.180654533259    -0.086919560440     0.379592734399
    C           -1.764524545461     0.304329929985     0.786008097810
    H           -3.323392065377    -1.157980596864     0.514755851902
    H           -3.898018841719     0.418301071379     1.013888088670
    C           -0.673955878204    -0.397010017493    -0.025692940018
    H           -1.661843793698     1.381255245713     0.681696201497
    H           -1.636792646184     0.074145346260     1.842675308005
    C            0.741659434028    -0.022889035773     0.418710221822
    H           -0.791605254491    -0.146421260393    -1.077561791002
    H           -0.801079536241    -1.476572536274     0.054126001631
    C            1.828202814517    -0.718194843576    -0.405790325770
    H            0.856398934268     1.055771311323     0.352515367504
    H            0.868131882200    -0.280897184282     1.469127579279
    C            3.261998592660    -0.441947852711     0.061211972387
    H            1.729648525826    -0.426122713566    -1.450233587170
    H            1.656290441091    -1.792334085547    -0.373911902721
    C            3.714253848519     1.010481798474    -0.100518338348
    H            3.936653439424    -1.081762883500    -0.502390154057
    H            3.363757757230    -0.738236209518     1.103309461061
    H            3.611361016213     1.338629300320    -1.131416471106
    H            4.757617269849     1.122185253250     0.178117903924
    H            3.137875300760     1.687436703270     0.521156246138

  Mulliken Charges: (a.u.)
   Center  Symbol    Alpha    Beta     Spin     Total
       1     H     0.27987  0.27987  0.00000  0.44026
       2     O     4.37064  4.37064  0.00000 -0.74128
       3     C     2.99956  2.99956  0.00000  0.00087
       4     C     3.15858  3.15858  0.00000 -0.31717
       5     H     0.43194  0.43194  0.00000  0.13612
       6     H     0.41477  0.41477  0.00000  0.17045
       7     C     3.16038  3.16038  0.00000 -0.32077
       8     H     0.41527  0.41527  0.00000  0.16947
       9     H     0.42513  0.42513  0.00000  0.14974
      10     C     3.15265  3.15265  0.00000 -0.30529
      11     H     0.42229  0.42229  0.00000  0.15543
      12     H     0.42656  0.42656  0.00000  0.14688
      13     C     3.15260  3.15260  0.00000 -0.30520
      14     H     0.41942  0.41942  0.00000  0.16116
      15     H     0.42405  0.42405  0.00000  0.15190
      16     C     3.15241  3.15241  0.00000 -0.30483
      17     H     0.42413  0.42413  0.00000  0.15174
      18     H     0.42311  0.42311  0.00000  0.15378
      19     C     3.24129  3.24129  0.00000 -0.48257
      20     H     0.42103  0.42103  0.00000  0.15794
      21     H     0.42339  0.42339  0.00000  0.15323
      22     H     0.42201  0.42201  0.00000  0.15599
      23     H     0.41919  0.41919  0.00000  0.16161
      24     H     0.41973  0.41973  0.00000  0.16054

   Total alpha = 33.00000, Total beta = 33.00000, Total charge = -0.00000
