  ==> Input File <==

--------------------------------------------------------------------------
set {
	reference rhf
	basis 6-31G*
}

set_num_threads( 4 )
memory 2 gb

molecule MOL {
0 1

H	 -1.970663	 -0.476823	 0.951741
O	 -2.035884	 -0.060112	 0.102722
C	 -0.955155	 0.788182	 -0.092531
C	 0.353668	 0.040312	 -0.004810
H	 -0.985057	 1.290372	 -1.054184
H	 -0.974469	 1.533190	 0.688632
F	 0.394464	 -0.937475	 -0.903053
F	 1.368604	 0.853376	 -0.249821
F	 0.546173	 -0.502608	 1.179981

	symmetry c1
}
set optking {
	frozen_dihedral = ("
		1 2 3 5
	")
}

ee = optimize('scf')
oeprop('DIPOLE', 'QUADRUPOLE', 'MULLIKEN_CHARGES')
f=open( 'psi4out.xyz', 'w' )
f.write( "9  " )
f.write( str(ee) + "\n" )
f.write( MOL.save_string_xyz() )
f.close()
--------------------------------------------------------------------------

    Molecular point group: c1
  Charge       = 0
  Multiplicity = 1
  Basis Set: 6-31G*
  Basis Set:
  @DF-RHF Final Energy:  -450.66032547821192
    Total Energy =                       -450.6603254782118029
    Molecular point group: c1
  Basis Set: 6-31G*
  Basis Set:
  Basis Set: 6-31G*
  Basis Set:
  @DF-RHF Final Energy:  -450.66233098202883
    Total Energy =                       -450.6623309820287204
  Basis Set: 6-31G*
  Basis Set:
  Basis Set: 6-31G*
  Basis Set:
  @DF-RHF Final Energy:  -450.66270254633997
    Total Energy =                       -450.6627025463399150
  Basis Set: 6-31G*
  Basis Set:
  Basis Set: 6-31G*
  Basis Set:
  @DF-RHF Final Energy:  -450.66277414543174
    Total Energy =                       -450.6627741454316265
  Basis Set: 6-31G*
  Basis Set:
  Basis Set: 6-31G*
  Basis Set:
  @DF-RHF Final Energy:  -450.66278052279188
    Total Energy =                       -450.6627805227921044
  Basis Set: 6-31G*
  Basis Set:
  Charge       = 0
  Multiplicity = 1
  Basis Set: 6-31G*
  Basis Set:

    Orbital Energies (a.u.)
    -----------------------

    Doubly Occupied:

       1A    -26.345088     2A    -26.344406     3A    -26.340168
       4A    -20.590265     5A    -11.501199     6A    -11.309737
       7A     -1.741238     8A     -1.640227     9A     -1.637769
      10A     -1.402412    11A     -1.048530    12A     -0.924445
      13A     -0.831496    14A     -0.829696    15A     -0.807506
      16A     -0.725812    17A     -0.712812    18A     -0.696550
      19A     -0.665568    20A     -0.660130    21A     -0.643651
      22A     -0.629038    23A     -0.617112    24A     -0.530504
      25A     -0.480287

  @DF-RHF Final Energy:  -450.66278097273096

   => Energetics <=

    Nuclear Repulsion Energy =            277.1712828897256031
    One-Electron Energy =               -1176.3568339227549586
    Two-Electron Energy =                 448.5227700602986829
    DFT Exchange-Correlation Energy =       0.0000000000000000
    Empirical Dispersion Energy =           0.0000000000000000
    PCM Polarization Energy =               0.0000000000000000
    EFP Energy =                            0.0000000000000000
    Total Energy =                       -450.6627809727306726
    Molecular point group: c1
  Basis Set: 6-31G*
  Basis Set:

  -Total Gradient:
     Atom            X                  Y                   Z
    ------   -----------------  -----------------  -----------------
       1        0.000372979472    -0.000616142922    -0.000276184968
       2       -0.000411772343     0.000590081820     0.000324256214
       3       -0.000332277290     0.000530374483     0.000244937601
       4        0.000043487192    -0.000073405899    -0.000097666269
       5        0.000368290251    -0.000492367332    -0.000255980212
       6       -0.000007432973     0.000018285052    -0.000006349929
       7       -0.000026488611    -0.000031029655    -0.000050834057
       8       -0.000007920955     0.000041161805     0.000049378901
       9        0.000001135266     0.000033042656     0.000068442717

  **** Optimization is complete! (in 6 steps) ****
    Final optimized geometry and variables:
    Molecular point group: c1

    Geometry (in Angstrom), charge = 0, multiplicity = 1:

    H           -1.977674977714    -0.450422324489     0.974282425645
    O           -2.036214457595    -0.063968556959     0.110239677950
    C           -0.958585309913     0.783859514680    -0.103757825919
    C            0.351841946236     0.035935361681    -0.041948183149
    H           -1.060212242888     1.202806443563    -1.093629627531
    H           -0.912277924980     1.592847925058     0.618161639895
    F            0.451766720271    -0.885523473354    -0.978337541485
    F            1.369034769687     0.870244967084    -0.180532350759
    F            0.486290930296    -0.573084122827     1.131629718501

  Mulliken Charges: (a.u.)
   Center  Symbol    Alpha    Beta     Spin     Total
       1     H     0.27254  0.27254  0.00000  0.45493
       2     O     4.36235  4.36235  0.00000 -0.72469
       3     C     3.05033  3.05033  0.00000 -0.10066
       4     C     2.46674  2.46674  0.00000  1.06652
       5     H     0.39565  0.39565  0.00000  0.20870
       6     H     0.40973  0.40973  0.00000  0.18054
       7     F     4.67489  4.67489  0.00000 -0.34979
       8     F     4.68120  4.68120  0.00000 -0.36240
       9     F     4.68657  4.68657  0.00000 -0.37315

   Total alpha = 25.00000, Total beta = 25.00000, Total charge = -0.00000
