  ==> Input File <==

--------------------------------------------------------------------------
set {
	reference rhf
	basis 6-31G*
}

set_num_threads( 4 )
memory 2 gb

molecule MOL {
0 1

H	 1.654497	 -1.101329	 -0.850795
O	 1.586534	 -0.678666	 -0.000226
C	 0.489431	 0.077273	 0.000046
C	 -0.764129	 -0.759190	 0.000191
O	 0.537743	 1.263962	 0.000257
C	 -2.038368	 0.075731	 -0.000248
H	 -0.717284	 -1.412404	 -0.866059
H	 -0.717458	 -1.411724	 0.866967
H	 -2.086483	 0.712501	 -0.875098
H	 -2.908485	 -0.571682	 -0.000042
H	 -2.086576	 0.713280	 0.874068

	symmetry c1
}
set optking {
	frozen_dihedral = ("
		1 2 3 5
	")
}

ee = optimize('scf')
oeprop('DIPOLE', 'QUADRUPOLE', 'MULLIKEN_CHARGES')
f=open( 'psi4out.xyz', 'w' )
f.write( "11  " )
f.write( str(ee) + "\n" )
f.write( MOL.save_string_xyz() )
f.close()
--------------------------------------------------------------------------

    Molecular point group: c1
  Charge       = 0
  Multiplicity = 1
  Basis Set: 6-31G*
  Basis Set:
  @DF-RHF Final Energy:  -266.82335970206537
    Total Energy =                       -266.8233597020650905
    Molecular point group: c1
  Basis Set: 6-31G*
  Basis Set:
  Basis Set: 6-31G*
  Basis Set:
  @DF-RHF Final Energy:  -266.82479440909071
    Total Energy =                       -266.8247944090908277
  Basis Set: 6-31G*
  Basis Set:
  Basis Set: 6-31G*
  Basis Set:
  @DF-RHF Final Energy:  -266.82389727023696
    Total Energy =                       -266.8238972702370120
  Basis Set: 6-31G*
  Basis Set:
  Basis Set: 6-31G*
  Basis Set:
  @DF-RHF Final Energy:  -266.82504844777645
    Total Energy =                       -266.8250484477763962
  Basis Set: 6-31G*
  Basis Set:
  Basis Set: 6-31G*
  Basis Set:
  @DF-RHF Final Energy:  -266.82505923457688
    Total Energy =                       -266.8250592345767700
  Basis Set: 6-31G*
  Basis Set:
  Charge       = 0
  Multiplicity = 1
  Basis Set: 6-31G*
  Basis Set:

    Orbital Energies (a.u.)
    -----------------------

    Doubly Occupied:

       1A    -20.597225     2A    -20.562215     3A    -11.382267
       4A    -11.249218     5A    -11.223459     6A     -1.461700
       7A     -1.369641     8A     -1.065580     9A     -0.908988
      10A     -0.812332    11A     -0.714508    12A     -0.671268
      13A     -0.658835    14A     -0.615535    15A     -0.571744
      16A     -0.531024    17A     -0.520361    18A     -0.502342
      19A     -0.490727    20A     -0.445947

  @DF-RHF Final Energy:  -266.82506023073404

   => Energetics <=

    Nuclear Repulsion Energy =            179.0332759417603654
    One-Electron Energy =                -719.0068402307616680
    Two-Electron Energy =                 273.1485040582670081
    DFT Exchange-Correlation Energy =       0.0000000000000000
    Empirical Dispersion Energy =           0.0000000000000000
    PCM Polarization Energy =               0.0000000000000000
    EFP Energy =                            0.0000000000000000
    Total Energy =                       -266.8250602307342660
    Molecular point group: c1
  Basis Set: 6-31G*
  Basis Set:

  -Total Gradient:
     Atom            X                  Y                   Z
    ------   -----------------  -----------------  -----------------
       1        0.001747193994     0.002732514922    -0.001032713056
       2       -0.002314068348    -0.003318932211    -0.000027333709
       3        0.000496287613     0.000504630316     0.004048529695
       4        0.000059637670     0.000003348422     0.000040027416
       5        0.000045091573     0.000096962108    -0.002994387088
       6       -0.000016945753     0.000003148242    -0.000013029336
       7       -0.000002911187    -0.000001367511    -0.000012569256
       8       -0.000009214421    -0.000011905684    -0.000016773177
       9        0.000006256430    -0.000006298094     0.000009361663
      10       -0.000012254190     0.000001309059     0.000001920070
      11        0.000000926619    -0.000003409573    -0.000003033223

  **** Optimization is complete! (in 6 steps) ****
    Final optimized geometry and variables:
    Molecular point group: c1

    Geometry (in Angstrom), charge = 0, multiplicity = 1:

    H            1.767239925649    -1.076167743354    -0.855601651820
    O            1.632831932710    -0.660002982228    -0.013123994709
    C            0.495056181647     0.084035456327     0.004289698093
    C           -0.771848221280    -0.739441822397     0.011876508696
    O            0.535466064960     1.261640742369     0.044649142011
    C           -2.042995142384     0.100006501845     0.008417657633
    H           -0.742822662608    -1.407641130692    -0.846554540106
    H           -0.724384313853    -1.384421117432     0.884763846895
    H           -2.093918356732     0.727635895515    -0.873190578374
    H           -2.916881309294    -0.542227092068     0.021946129527
    H           -2.080387442367     0.747444371096     0.875593966899

  Mulliken Charges: (a.u.)
   Center  Symbol    Alpha    Beta     Spin     Total
       1     H     0.26758  0.26758  0.00000  0.46483
       2     O     4.36633  4.36633  0.00000 -0.73267
       3     C     2.62864  2.62864  0.00000  0.74271
       4     C     3.21155  3.21155  0.00000 -0.42309
       5     O     4.24502  4.24502  0.00000 -0.49003
       6     C     3.23906  3.23906  0.00000 -0.47813
       7     H     0.41217  0.41217  0.00000  0.17565
       8     H     0.39600  0.39600  0.00000  0.20799
       9     H     0.41042  0.41042  0.00000  0.17917
      10     H     0.41679  0.41679  0.00000  0.16642
      11     H     0.40642  0.40642  0.00000  0.18715

   Total alpha = 20.00000, Total beta = 20.00000, Total charge =  0.00000
