  ==> Input File <==

--------------------------------------------------------------------------
set {
	reference rhf
	basis 6-31G*
}

set_num_threads( 4 )
memory 2 gb

molecule MOL {
0 1

H	 -2.449482	 1.909615	 -2.141383
C	 -1.601796	 2.446740	 -2.584719
C	 -0.724761	 3.177143	 -1.599867
O	 -1.429987	 2.425204	 -3.760205
C	 -0.249239	 2.274528	 -0.452949
H	 0.110060	 3.608768	 -2.139759
H	 -1.316209	 3.995080	 -1.190205
C	 0.706163	 1.166783	 -0.903957
H	 0.242435	 2.894158	 0.291093
H	 -1.113342	 1.834786	 0.042742
C	 1.180775	 0.282413	 0.250794
H	 1.566892	 1.616944	 -1.394210
H	 0.222643	 0.545822	 -1.655725
C	 2.148627	 -0.814315	 -0.201312
H	 1.653374	 0.909052	 1.002928
H	 0.317861	 -0.176125	 0.731945
C	 3.580890	 -0.659131	 0.322722
H	 2.166869	 -0.852443	 -1.289387
H	 1.762857	 -1.776509	 0.128956
C	 4.324889	 0.564933	 -0.213704
H	 4.142010	 -1.551473	 0.056605
H	 3.564836	 -0.624694	 1.410140
H	 4.342616	 0.565491	 -1.300421
H	 3.866655	 1.493402	 0.110242
H	 5.353900	 0.572371	 0.132816

	symmetry c1
}
set optking {
	frozen_dihedral = ("
		8 11 14 18
	")
}

ee = optimize('scf')
oeprop('DIPOLE', 'QUADRUPOLE', 'MULLIKEN_CHARGES')
f=open( 'psi4out.xyz', 'w' )
f.write( "25  " )
f.write( str(ee) + "\n" )
f.write( MOL.save_string_xyz() )
f.close()
--------------------------------------------------------------------------

    Molecular point group: c1
  Charge       = 0
  Multiplicity = 1
  Basis Set: 6-31G*
  Basis Set:
  @DF-RHF Final Energy:  -387.11675661715327
    Total Energy =                       -387.1167566171534418
    Molecular point group: c1
  Basis Set: 6-31G*
  Basis Set:
  Basis Set: 6-31G*
  Basis Set:
  @DF-RHF Final Energy:  -387.11684763651459
    Total Energy =                       -387.1168476365145352
  Basis Set: 6-31G*
  Basis Set:
  Basis Set: 6-31G*
  Basis Set:
  @DF-RHF Final Energy:  -387.11700109422213
    Total Energy =                       -387.1170010942229283
  Basis Set: 6-31G*
  Basis Set:
  Basis Set: 6-31G*
  Basis Set:
  @DF-RHF Final Energy:  -387.11712107053376
    Total Energy =                       -387.1171210705335852
  Basis Set: 6-31G*
  Basis Set:
  Basis Set: 6-31G*
  Basis Set:
  @DF-RHF Final Energy:  -387.11712912849583
    Total Energy =                       -387.1171291284949803
  Basis Set: 6-31G*
  Basis Set:
  Basis Set: 6-31G*
  Basis Set:
  @DF-RHF Final Energy:  -387.11713272122932
    Total Energy =                       -387.1171327212294955
  Basis Set: 6-31G*
  Basis Set:
  Charge       = 0
  Multiplicity = 1
  Basis Set: 6-31G*
  Basis Set:

    Orbital Energies (a.u.)
    -----------------------

    Doubly Occupied:

       1A    -20.561976     2A    -11.326138     3A    -11.235171
       4A    -11.234580     5A    -11.223869     6A    -11.220010
       7A    -11.218054     8A    -11.216724     9A    -11.210956
      10A     -1.401916    11A     -1.103119    12A     -1.068680
      13A     -1.011638    14A     -0.943180    15A     -0.875707
      16A     -0.820228    17A     -0.788113    18A     -0.781780
      19A     -0.664455    20A     -0.660591    21A     -0.631035
      22A     -0.624418    23A     -0.607008    24A     -0.592738
      25A     -0.568755    26A     -0.556002    27A     -0.532965
      28A     -0.522230    29A     -0.514220    30A     -0.495698
      31A     -0.487226    32A     -0.484663    33A     -0.463257
      34A     -0.452716    35A     -0.441378    36A     -0.409529

  @DF-RHF Final Energy:  -387.11713284215534

   => Energetics <=

    Nuclear Repulsion Energy =            445.1967262987171807
    One-Electron Energy =               -1406.7262755193939938
    Two-Electron Energy =                 574.4124163785206747
    DFT Exchange-Correlation Energy =       0.0000000000000000
    Empirical Dispersion Energy =           0.0000000000000000
    PCM Polarization Energy =               0.0000000000000000
    EFP Energy =                            0.0000000000000000
    Total Energy =                       -387.1171328421561384
    Molecular point group: c1
  Basis Set: 6-31G*
  Basis Set:

  -Total Gradient:
     Atom            X                  Y                   Z
    ------   -----------------  -----------------  -----------------
       1       -0.000000599743    -0.000005372621     0.000000870694
       2       -0.000035231235     0.000024028879     0.000021314981
       3        0.000005106064     0.000010784048    -0.000010457883
       4        0.000007893938     0.000005099404     0.000000855093
       5       -0.000016067689    -0.000020292064    -0.000001378729
       6        0.000006484092    -0.000011176110    -0.000008364405
       7        0.000011124333     0.000004508683    -0.000006701222
       8       -0.000462935390    -0.000351262784    -0.000072301468
       9       -0.000012853321     0.000010475711     0.000007388084
      10        0.000005749664    -0.000009422682    -0.000019584637
      11        0.000760439323     0.000642081473     0.000123629038
      12       -0.000000839512    -0.000003005915    -0.000003943507
      13        0.000012623119    -0.000013650604     0.000004949736
      14       -0.000912906771    -0.000819597917     0.000003032078
      15        0.000002223740    -0.000002654229    -0.000001510405
      16        0.000002026560     0.000011522637    -0.000005833432
      17        0.000016552404    -0.000014789624    -0.000048849630
      18        0.000609378067     0.000551100636     0.000003306207
      19        0.000005640594    -0.000010954842    -0.000011052287
      20        0.000008620265    -0.000003197369     0.000019479893
      21        0.000008901716    -0.000016443819     0.000014371437
      22       -0.000011312244     0.000023270972    -0.000015584708
      23       -0.000011115347    -0.000009857644     0.000008867599
      24        0.000001403042     0.000012642103     0.000000253345
      25       -0.000000305663    -0.000003836328    -0.000002755859

  **** Optimization is complete! (in 7 steps) ****
    Final optimized geometry and variables:
    Molecular point group: c1

    Geometry (in Angstrom), charge = 0, multiplicity = 1:

    H           -3.354045728773     0.719378993036    -1.099320003397
    C           -2.504110702807     1.249359381190    -1.547130289153
    C           -1.615561726526     1.972042892655    -0.566832958372
    O           -2.342564027986     1.231481513534    -2.724184266851
    C           -1.137137514456     1.063771705324     0.574648944354
    H           -0.781933646236     2.399577401478    -1.111905112994
    H           -2.198857631845     2.792778055242    -0.151355846285
    C           -0.183385536175    -0.042007408785     0.116580712291
    H           -0.643915299049     1.679787605229     1.321085476938
    H           -2.000026052880     0.621716900625     1.070218079949
    C            0.291238140821    -0.933708611120     1.267144442157
    H            0.674600854101     0.409092550274    -0.376835557753
    H           -0.669183149313    -0.662157309322    -0.634471058708
    C            1.273327006479    -2.046227737705     0.833505371478
    H            0.749897422859    -0.313259867927     2.033720511883
    H           -0.581160668853    -1.382180249795     1.735766203890
    C            2.702964326781    -1.877366382685     1.362613460103
    H            1.310496250534    -2.098164109806    -0.252586551618
    H            0.898897513918    -3.009529165510     1.166837087797
    C            3.435173692559    -0.652988970224     0.811875502905
    H            3.273693848625    -2.768425027616     1.112707700851
    H            2.678998936676    -1.826674334951     2.449239146460
    H            3.500856762100    -0.693170210810    -0.271878642379
    H            2.933803615801     0.272459351250     1.078377995326
    H            4.446776632519    -0.598294005498     1.202081893414

  Mulliken Charges: (a.u.)
   Center  Symbol    Alpha    Beta     Spin     Total
       1     H     0.43259  0.43259  0.00000  0.13482
       2     C     2.83080  2.83080  0.00000  0.33841
       3     C     3.20809  3.20809  0.00000 -0.41618
       4     O     4.23779  4.23779  0.00000 -0.47559
       5     C     3.16733  3.16733  0.00000 -0.33466
       6     H     0.39970  0.39970  0.00000  0.20061
       7     H     0.40664  0.40664  0.00000  0.18672
       8     C     3.15737  3.15737  0.00000 -0.31473
       9     H     0.41301  0.41301  0.00000  0.17397
      10     H     0.41965  0.41965  0.00000  0.16069
      11     C     3.15726  3.15726  0.00000 -0.31452
      12     H     0.41643  0.41643  0.00000  0.16713
      13     H     0.41783  0.41783  0.00000  0.16435
      14     C     3.15704  3.15704  0.00000 -0.31409
      15     H     0.42050  0.42050  0.00000  0.15901
      16     H     0.42034  0.42034  0.00000  0.15931
      17     C     3.15321  3.15321  0.00000 -0.30643
      18     H     0.41951  0.41951  0.00000  0.16099
      19     H     0.41835  0.41835  0.00000  0.16331
      20     C     3.24106  3.24106  0.00000 -0.48212
      21     H     0.42087  0.42087  0.00000  0.15826
      22     H     0.42325  0.42325  0.00000  0.15351
      23     H     0.42091  0.42091  0.00000  0.15819
      24     H     0.42196  0.42196  0.00000  0.15609
      25     H     0.41851  0.41851  0.00000  0.16297

   Total alpha = 36.00000, Total beta = 36.00000, Total charge =  0.00000
