                              Psi4 1.0.54 Driver

  ==> Input File <==

--------------------------------------------------------------------------
set {
	reference rhf
	basis cc-pvtz
}

set_num_threads( 4 )
memory 2 gb

molecule MOL {
0 1

H	 1.726258	 1.565534	 -2.011847
C	 1.001149	 1.391746	 -1.227440
C	 1.322304	 0.099773	 -0.484271
H	 1.022930	 2.246055	 -0.560319
H	 0.019831	 1.349099	 -1.686284
C	 0.308557	 -0.162619	 0.622645
H	 2.311772	 0.156659	 -0.047864
H	 1.316009	 -0.737180	 -1.171591
N	 -1.069352	 -0.004081	 0.085342
H	 0.371632	 -1.172932	 0.991288
H	 0.400391	 0.548875	 1.426218
O	 -1.584901	 -0.965470	 -0.377818
O	 -1.548033	 1.079343	 0.130056

	symmetry c1
}
set optking {
	frozen_dihedral = ("
		7 3 6 9
	")
}

ee,wfn = optimize('scf', return_wfn=True)
oeprop( wfn, 'DIPOLE', 'QUADRUPOLE', 'MULLIKEN_CHARGES')
f=open( 'psi4out.xyz', 'w' )
f.write( "13  " )
f.write( str(ee) + "\n" )
f.write( MOL.save_string_xyz() )
f.close()
--------------------------------------------------------------------------

    Molecular point group: c1
  Charge       = 0
  Multiplicity = 1
  Basis Set: CC-PVTZ
  Basis Set:
  @DF-RHF Final Energy:  -321.85698480224005
    Total Energy =                       -321.8569848022401629
    Molecular point group: c1
  Basis Set: CC-PVTZ
  Basis Set:
  Basis Set: CC-PVTZ
  Basis Set:
  @DF-RHF Final Energy:  -321.85684298940851
    Total Energy =                       -321.8568429894086194
  Basis Set: CC-PVTZ
  Basis Set:
  Basis Set: CC-PVTZ
  Basis Set:
  @DF-RHF Final Energy:  -321.85361549700809
    Total Energy =                       -321.8536154970080361
  Basis Set: CC-PVTZ
  Basis Set:
  Basis Set: CC-PVTZ
  Basis Set:
  @DF-RHF Final Energy:  -321.85672576721095
    Total Energy =                       -321.8567257672110600
  Basis Set: CC-PVTZ
  Basis Set:
  @DF-RHF Final Energy:  -321.85984854447122
    Total Energy =                       -321.8598485444714470
  @DF-RHF Final Energy:  -321.86011283347176
    Total Energy =                       -321.8601128334717600
  @DF-RHF Final Energy:  -321.86037949655446
    Total Energy =                       -321.8603794965545148
  Basis Set: CC-PVTZ
  Basis Set:
  @DF-RHF Final Energy:  -321.86045604957428
    Total Energy =                       -321.8604560495742817
  Basis Set: CC-PVTZ
  Basis Set:
  Basis Set: CC-PVTZ
  Basis Set:
  @DF-RHF Final Energy:  -321.86048962551268
    Total Energy =                       -321.8604896255127983
  Basis Set: CC-PVTZ
  Basis Set:
  Basis Set: CC-PVTZ
  Basis Set:
  @DF-RHF Final Energy:  -321.86050359206848
    Total Energy =                       -321.8605035920684259
  Basis Set: CC-PVTZ
  Basis Set:
  Charge       = 0
  Multiplicity = 1
  Basis Set: CC-PVTZ
  Basis Set:

    Orbital Energies (a.u.)
    -----------------------

    Doubly Occupied:

       1A    -20.593448     2A    -20.588877     3A    -15.837027
       4A    -11.297504     5A    -11.252954     6A    -11.228563
       7A     -1.636677     8A     -1.420914     9A     -1.132485
      10A     -1.021101    11A     -0.895294    12A     -0.822769
      13A     -0.758779    14A     -0.741513    15A     -0.729552
      16A     -0.658426    17A     -0.614296    18A     -0.593130
      19A     -0.533007    20A     -0.518798    21A     -0.512462
      22A     -0.486551    23A     -0.475032    24A     -0.454618

  @DF-RHF Final Energy:  -321.86050429454860

   => Energetics <=

    Nuclear Repulsion Energy =            254.3528732092424036
    One-Electron Energy =                -942.8192022193045432
    Two-Electron Energy =                 366.6058247155134495
    DFT Exchange-Correlation Energy =       0.0000000000000000
    Empirical Dispersion Energy =           0.0000000000000000
    PCM Polarization Energy =               0.0000000000000000
    EFP Energy =                            0.0000000000000000
    Total Energy =                       -321.8605042945487185
    Molecular point group: c1
  Basis Set: CC-PVTZ
  Basis Set:

  -Total Gradient:
     Atom            X                  Y                   Z
    ------   -----------------  -----------------  -----------------
       1       -0.000024023391    -0.000013169272     0.000025224482
       2       -0.000044152388     0.000004648756    -0.000000941298
       3        0.000623333691    -0.002860461091    -0.000923521973
       4        0.000002976647    -0.000034892890    -0.000038837187
       5       -0.000002977906     0.000011030953     0.000010413895
       6       -0.000005320440    -0.002429333456    -0.001171452023
       7       -0.000568095487     0.003048635867     0.001133102368
       8       -0.000018929004     0.000011218537     0.000048534402
       9       -0.000108617368     0.002260056369     0.001087020453
      10       -0.000047640435     0.000052443033    -0.000016263804
      11        0.000059846384     0.000010190427    -0.000013422960
      12       -0.000016971954    -0.000048406431    -0.000131019565
      13        0.000150571648    -0.000011960801    -0.000008836791

  **** Optimization is complete! (in 11 steps) ****
    Final optimized geometry and variables:
    Molecular point group: c1

    Geometry (in Angstrom), charge = 0, multiplicity = 1:

    H            1.836583654771     1.838844269353    -1.697574037280
    C            1.151483463275     1.473798178340    -0.943227800521
    C            1.569347749695     0.075960806141    -0.493094750161
    H            1.160256885963     2.174098866591    -0.115962191717
    H            0.158138088881     1.475304953976    -1.373841100287
    C            0.724401358561    -0.488041114261     0.644083264740
    H            2.584375933297     0.123252500055    -0.114601265119
    H            1.554936333036    -0.608920366251    -1.329296593471
    N           -0.729713850505    -0.381155232067     0.338588949431
    H            0.913798931743    -1.539080916493     0.795201045834
    H            0.865555508703     0.056111007113     1.561976126514
    O           -1.131828188628    -1.011763509944    -0.582417501096
    O           -1.385797048354     0.327144607056     1.023650129623

  Mulliken Charges: (a.u.)
   Center  Symbol    Alpha    Beta     Spin     Total
       1     H     0.44543  0.44543  0.00000  0.10914
       2     C     3.14746  3.14746  0.00000 -0.29491
       3     C     3.09718  3.09718  0.00000 -0.19435
       4     H     0.45009  0.45009  0.00000  0.09981
       5     H     0.44390  0.44390  0.00000  0.11219
       6     C     3.04797  3.04797  0.00000 -0.09595
       7     H     0.44551  0.44551  0.00000  0.10899
       8     H     0.43879  0.43879  0.00000  0.12241
       9     N     3.28077  3.28077  0.00000  0.43847
      10     H     0.42828  0.42828  0.00000  0.14345
      11     H     0.43165  0.43165  0.00000  0.13670
      12     O     4.17435  4.17435  0.00000 -0.34870
      13     O     4.16863  4.16863  0.00000 -0.33725

   Total alpha = 24.00000, Total beta = 24.00000, Total charge = -0.00000

*** Psi4 exiting successfully. Buy a developer a beer!
