                              Psi4 1.0.54 Driver

  ==> Input File <==

--------------------------------------------------------------------------
set {
	reference rhf
	basis cc-pvtz
}

set_num_threads( 4 )
memory 2 gb

molecule MOL {
0 1

O	 -2.016407	 -0.333830	 0.675326
C	 -1.081510	 0.147522	 0.122720
C	 0.327029	 -0.064006	 0.641890
C	 -1.244900	 1.006587	 -1.108369
C	 1.349460	 -0.017068	 -0.500215
H	 0.399029	 -1.014606	 1.159950
H	 0.538021	 0.726928	 1.350471
C	 2.779782	 -0.209014	 -0.009215
H	 1.115007	 -0.782959	 -1.233891
H	 1.259071	 0.936707	 -1.006644
H	 3.481860	 -0.160270	 -0.833072
H	 2.903471	 -1.171535	 0.475559
H	 3.052569	 0.559584	 0.705428
H	 -0.706598	 1.941244	 -0.997007
H	 -2.290699	 1.201115	 -1.289923
H	 -0.818276	 0.491051	 -1.962808

	symmetry c1
}
set optking {
	frozen_dihedral = ("
		4 2 3 5
	")
}

ee,wfn = optimize('scf', return_wfn=True)
oeprop( wfn, 'DIPOLE', 'QUADRUPOLE', 'MULLIKEN_CHARGES')
f=open( 'psi4out.xyz', 'w' )
f.write( "16  " )
f.write( str(ee) + "\n" )
f.write( MOL.save_string_xyz() )
f.close()
--------------------------------------------------------------------------

    Molecular point group: c1
  Charge       = 0
  Multiplicity = 1
  Basis Set: CC-PVTZ
  Basis Set:
  @DF-RHF Final Energy:  -270.12487894477971
    Total Energy =                       -270.1248789447797662
    Molecular point group: c1
  Basis Set: CC-PVTZ
  Basis Set:
  Basis Set: CC-PVTZ
  Basis Set:
  @DF-RHF Final Energy:  -269.94715379078832
    Total Energy =                       -269.9471537907881498
  Basis Set: CC-PVTZ
  Basis Set:
  Basis Set: CC-PVTZ
  Basis Set:
  @DF-RHF Final Energy:  -270.06253820957807
    Total Energy =                       -270.0625382095784630
  Basis Set: CC-PVTZ
  Basis Set:
  Basis Set: CC-PVTZ
  Basis Set:
  @DF-RHF Final Energy:  -270.12193546514817
    Total Energy =                       -270.1219354651481126
  Basis Set: CC-PVTZ
  Basis Set:
  @DF-RHF Final Energy:  -270.12646450168620
    Total Energy =                       -270.1264645016862005
  @DF-RHF Final Energy:  -270.12771799010409
    Total Energy =                       -270.1277179901043155
  @DF-RHF Final Energy:  -270.12691505985669
    Total Energy =                       -270.1269150598566853
  @DF-RHF Final Energy:  -270.12786323424660
    Total Energy =                       -270.1278632342467745
  Basis Set: CC-PVTZ
  Basis Set:
  @DF-RHF Final Energy:  -270.12783715264692
    Total Energy =                       -270.1278371526470892
  Basis Set: CC-PVTZ
  Basis Set:
  Basis Set: CC-PVTZ
  Basis Set:
  @DF-RHF Final Energy:  -270.12787045746194
    Total Energy =                       -270.1278704574618814
  Basis Set: CC-PVTZ
  Basis Set:
  Basis Set: CC-PVTZ
  Basis Set:
  @DF-RHF Final Energy:  -270.12789201221011
    Total Energy =                       -270.1278920122100544
  Basis Set: CC-PVTZ
  Basis Set:
  Charge       = 0
  Multiplicity = 1
  Basis Set: CC-PVTZ
  Basis Set:

    Orbital Energies (a.u.)
    -----------------------

    Doubly Occupied:

       1A    -20.536143     2A    -11.320692     3A    -11.232492
       4A    -11.229716     5A    -11.226916     6A    -11.219431
       7A     -1.396891     8A     -1.086547     9A     -1.010646
      10A     -0.953043    11A     -0.835373    12A     -0.734815
      13A     -0.658464    14A     -0.654270    15A     -0.625924
      16A     -0.602044    17A     -0.578399    18A     -0.552475
      19A     -0.539561    20A     -0.522134    21A     -0.506207
      22A     -0.490017    23A     -0.474201    24A     -0.400610

  @DF-RHF Final Energy:  -270.12789228450009

   => Energetics <=

    Nuclear Repulsion Energy =            237.2365278031932121
    One-Electron Energy =                -835.9548205078268666
    Two-Electron Energy =                 328.5904004201335056
    DFT Exchange-Correlation Energy =       0.0000000000000000
    Empirical Dispersion Energy =           0.0000000000000000
    PCM Polarization Energy =               0.0000000000000000
    EFP Energy =                            0.0000000000000000
    Total Energy =                       -270.1278922845001489
    Molecular point group: c1
  Basis Set: CC-PVTZ
  Basis Set:

  -Total Gradient:
     Atom            X                  Y                   Z
    ------   -----------------  -----------------  -----------------
       1       -0.000063642515    -0.000031300779     0.000040808235
       2       -0.000597013916     0.002420296922     0.000438428119
       3        0.000205839890    -0.002465491364    -0.000007404762
       4        0.000453781593    -0.001257055849    -0.000362234752
       5        0.000022856720     0.001277274528    -0.000129838462
       6        0.000008598101     0.000002185897     0.000002102447
       7       -0.000000155671     0.000006350734     0.000006257315
       8       -0.000023437295    -0.000004382428     0.000025613506
       9       -0.000008428565     0.000004848848    -0.000004236186
      10       -0.000013874014    -0.000008176783    -0.000000494944
      11       -0.000007406560     0.000001228654    -0.000009006964
      12        0.000007449849     0.000011345230     0.000000086006
      13        0.000006786997    -0.000003873700     0.000006718763
      14        0.000002921218     0.000023563014     0.000008463161
      15       -0.000010333695     0.000007213541    -0.000002421545
      16        0.000016057866     0.000015973535    -0.000012839934

  **** Optimization is complete! (in 12 steps) ****
    Final optimized geometry and variables:
    Molecular point group: c1

    Geometry (in Angstrom), charge = 0, multiplicity = 1:

    O           -2.132684602838    -0.490357403504    -0.119985349807
    C           -1.066621930844    -0.037051055240    -0.384265231285
    C            0.013415147397     0.042390207696     0.681479615848
    C           -0.768580303512     0.487782047772    -1.769556726749
    C            1.465105593448    -0.033310576294     0.212053250587
    H           -0.202622992329    -0.735867702135     1.401684846840
    H           -0.146712153915     0.989069699800     1.194866890430
    C            2.445429362171     0.022877133199     1.379155881069
    H            1.623120891930    -0.953910736567    -0.342112676509
    H            1.680194168537     0.779489683914    -0.472490422436
    H            3.469491348906    -0.033913890985     1.030050395430
    H            2.282658842411    -0.799691659973     2.066601787476
    H            2.335705500518     0.946381031401     1.937530196361
    H           -0.391519863376     1.503476100443    -1.722784892932
    H           -1.669296998777     0.458360402178    -2.362744683730
    H           -0.004129481338    -0.118345522767    -2.241673366665

  Mulliken Charges: (a.u.)
   Center  Symbol    Alpha    Beta     Spin     Total
       1     O     4.17371  4.17371  0.00000 -0.34743
       2     C     2.86007  2.86007  0.00000  0.27986
       3     C     3.09587  3.09587  0.00000 -0.19173
       4     C     3.16404  3.16404  0.00000 -0.32808
       5     C     3.09655  3.09655  0.00000 -0.19310
       6     H     0.43719  0.43719  0.00000  0.12561
       7     H     0.44534  0.44534  0.00000  0.10932
       8     C     3.14964  3.14964  0.00000 -0.29928
       9     H     0.44806  0.44806  0.00000  0.10387
      10     H     0.45064  0.45064  0.00000  0.09873
      11     H     0.44607  0.44607  0.00000  0.10785
      12     H     0.45140  0.45140  0.00000  0.09719
      13     H     0.45397  0.45397  0.00000  0.09205
      14     H     0.44825  0.44825  0.00000  0.10350
      15     H     0.43203  0.43203  0.00000  0.13594
      16     H     0.44715  0.44715  0.00000  0.10569

   Total alpha = 24.00000, Total beta = 24.00000, Total charge =  0.00000

*** Psi4 exiting successfully. Buy a developer a beer!
