  ==> Input File <==

--------------------------------------------------------------------------
set {
	reference rhf
	basis 6-31G*
}

set_num_threads( 1 )
memory 2 gb

molecule MOL {
0 1

H	 -2.502533	 -0.734268	 -0.718982
O	 -2.347141	 -0.288243	 0.101568
C	 -1.183760	 0.488866	 0.003406
C	 0.062707	 -0.377382	 0.043431
H	 -1.180018	 1.093289	 -0.899377
H	 -1.183050	 1.161481	 0.849596
O	 1.171513	 0.459272	 -0.058250
H	 0.046881	 -1.094809	 -0.779386
H	 0.082728	 -0.946066	 0.971214
C	 2.397842	 -0.198080	 -0.002151
H	 2.508049	 -0.905315	 -0.822092
H	 3.173794	 0.550865	 -0.078850
H	 2.517602	 -0.735921	 0.936026

	symmetry c1
}
set optking {
	frozen_dihedral = ("
		8 4 3 5,
		1 2 3 5,
		10 7 4 8
	")
}

ee = energy('scf')
oeprop('DIPOLE', 'QUADRUPOLE', 'MULLIKEN_CHARGES')
f=open( 'psi4out.xyz', 'w' )
f.write( "13  " )
f.write( str(ee) + "\n" )
f.write( MOL.save_string_xyz() )
f.close()
--------------------------------------------------------------------------

    Molecular point group: c1

    Geometry (in Angstrom), charge = 0, multiplicity = 1:

       Center              X                  Y                   Z               Mass
    ------------   -----------------  -----------------  -----------------  -----------------
           H         -2.502637574522    -0.735229101828    -0.727962761227     1.007825032070
           O         -2.347245574522    -0.289204101828     0.092587238773    15.994914619560
           C         -1.183864574522     0.487904898172    -0.005574761227    12.000000000000
           C          0.062602425478    -0.378343101828     0.034450238773    12.000000000000
           H         -1.180122574522     1.092327898172    -0.908357761227     1.007825032070
           H         -1.183154574522     1.160519898172     0.840615238773     1.007825032070
           O          1.171408425478     0.458310898172    -0.067230761227    15.994914619560
           H          0.046776425478    -1.095770101828    -0.788366761227     1.007825032070
           H          0.082623425478    -0.947027101828     0.962233238773     1.007825032070
           C          2.397737425478    -0.199041101828    -0.011131761227    12.000000000000
           H          2.507944425478    -0.906276101828    -0.831072761227     1.007825032070
           H          3.173689425478     0.549903898172    -0.087830761227     1.007825032070
           H          2.517497425478    -0.736882101828     0.927045238773     1.007825032070

  Charge       = 0
  Multiplicity = 1
  Basis Set: 6-31G*
  Basis Set:

    Orbital Energies (a.u.)
    -----------------------

    Doubly Occupied:

       1A    -20.562511     2A    -20.560190     3A    -11.270916
       4A    -11.270339     5A    -11.269013     6A     -1.388984
       7A     -1.365257     8A     -1.018611     9A     -0.913402
      10A     -0.841944    11A     -0.709599    12A     -0.674230
      13A     -0.660719    14A     -0.637357    15A     -0.595941
      16A     -0.569537    17A     -0.545434    18A     -0.489403
      19A     -0.481985    20A     -0.438501    21A     -0.422219

  @DF-RHF Final Energy:  -267.95064126284342

   => Energetics <=

    Nuclear Repulsion Energy =            190.2459918178828673
    One-Electron Energy =                -743.0211087232530645
    Two-Electron Energy =                 284.8244756425261812
    DFT Exchange-Correlation Energy =       0.0000000000000000
    Empirical Dispersion Energy =           0.0000000000000000
    PCM Polarization Energy =               0.0000000000000000
    EFP Energy =                            0.0000000000000000
    Total Energy =                       -267.9506412628439875

  Mulliken Charges: (a.u.)
   Center  Symbol    Alpha    Beta     Spin     Total
       1     H     0.28126  0.28126  0.00000  0.43748
       2     O     4.37085  4.37085  0.00000 -0.74171
       3     C     3.00466  3.00466  0.00000 -0.00933
       4     C     2.99660  2.99660  0.00000  0.00680
       5     H     0.42227  0.42227  0.00000  0.15545
       6     H     0.40842  0.40842  0.00000  0.18316
       7     O     4.30743  4.30743  0.00000 -0.61486
       8     H     0.43757  0.43757  0.00000  0.12485
       9     H     0.42326  0.42326  0.00000  0.15347
      10     C     3.08003  3.08003  0.00000 -0.16005
      11     H     0.42922  0.42922  0.00000  0.14157
      12     H     0.41069  0.41069  0.00000  0.17862
      13     H     0.42773  0.42773  0.00000  0.14454

   Total alpha = 21.00000, Total beta = 21.00000, Total charge = -0.00000
