                              Psi4 1.0.54 Driver

  ==> Input File <==

--------------------------------------------------------------------------
set {
	reference rhf
	basis cc-pvtz
}

set_num_threads( 4 )
memory 2 gb

molecule MOL {
0 1

O	 0.749630	 1.305591	 -0.000460
C	 0.576499	 0.134701	 -0.003900
C	 -0.765656	 -0.550508	 -0.002152
O	 1.564816	 -0.744612	 -0.000631
C	 -1.945526	 0.411052	 0.000603
H	 -0.794329	 -1.203792	 -0.868145
H	 -0.791555	 -1.205429	 0.862701
C	 -3.282915	 -0.321280	 0.002596
H	 -1.880300	 1.059126	 -0.864925
H	 -1.877207	 1.057892	 0.866807
H	 -3.388495	 -0.952755	 -0.873419
H	 -4.107811	 0.380864	 0.004116
H	 -3.385717	 -0.953283	 0.878571
C	 2.056220	 -1.173253	 -1.254744
H	 1.275133	 -1.651511	 -1.826783
H	 2.844501	 -1.876325	 -1.040287
H	 2.444543	 -0.337645	 -1.817777

	symmetry c1
}
set optking {
	frozen_dihedral = ("
		14 4 2 1
	")
}

ee,wfn = optimize('scf', return_wfn=True)
oeprop( wfn, 'DIPOLE', 'QUADRUPOLE', 'MULLIKEN_CHARGES')
f=open( 'psi4out.xyz', 'w' )
f.write( "17  " )
f.write( str(ee) + "\n" )
f.write( MOL.save_string_xyz() )
f.close()
--------------------------------------------------------------------------

    Molecular point group: c1
  Charge       = 0
  Multiplicity = 1
  Basis Set: CC-PVTZ
  Basis Set:
  @DF-RHF Final Energy:  -345.01452506588214
    Total Energy =                       -345.0145250658820260
    Molecular point group: c1
  Basis Set: CC-PVTZ
  Basis Set:
  Basis Set: CC-PVTZ
  Basis Set:
  @DF-RHF Final Energy:  -344.93596111492712
    Total Energy =                       -344.9359611149268403
  Basis Set: CC-PVTZ
  Basis Set:
  Basis Set: CC-PVTZ
  Basis Set:
  @DF-RHF Final Energy:  -345.00594501617331
    Total Energy =                       -345.0059450161733139
  Basis Set: CC-PVTZ
  Basis Set:
  Basis Set: CC-PVTZ
  Basis Set:
  @DF-RHF Final Energy:  -345.01512298086067
    Total Energy =                       -345.0151229808607809
  Basis Set: CC-PVTZ
  Basis Set:
  @DF-RHF Final Energy:  -345.00172010621026
    Total Energy =                       -345.0017201062102004
  @DF-RHF Final Energy:  -345.01103296167901
    Total Energy =                       -345.0110329616788931
  @DF-RHF Final Energy:  -345.01596761736016
    Total Energy =                       -345.0159676173600474
  Basis Set: CC-PVTZ
  Basis Set:
  @DF-RHF Final Energy:  -345.01604724842173
    Total Energy =                       -345.0160472484218417
  Basis Set: CC-PVTZ
  Basis Set:
  Basis Set: CC-PVTZ
  Basis Set:
  @DF-RHF Final Energy:  -345.01605362129595
    Total Energy =                       -345.0160536212960096
  Basis Set: CC-PVTZ
  Basis Set:
  Basis Set: CC-PVTZ
  Basis Set:
  @DF-RHF Final Energy:  -345.01605544657326
    Total Energy =                       -345.0160554465734322
  Basis Set: CC-PVTZ
  Basis Set:
  Charge       = 0
  Multiplicity = 1
  Basis Set: CC-PVTZ
  Basis Set:

    Orbital Energies (a.u.)
    -----------------------

    Doubly Occupied:

       1A    -20.578124     2A    -20.546353     3A    -11.368217
       4A    -11.289180     5A    -11.238998     6A    -11.223407
       7A    -11.215636     8A     -1.462052     9A     -1.370321
      10A     -1.082855    11A     -0.992024    12A     -0.952887
      13A     -0.835385    14A     -0.766851    15A     -0.701591
      16A     -0.682132    17A     -0.675587    18A     -0.635451
      19A     -0.619503    20A     -0.579757    21A     -0.566656
      22A     -0.540726    23A     -0.520187    24A     -0.498614
      25A     -0.493068    26A     -0.482764    27A     -0.457038
      28A     -0.438502

  @DF-RHF Final Energy:  -345.01605553310725

   => Energetics <=

    Nuclear Repulsion Energy =            312.9770856294499595
    One-Electron Energy =               -1090.3585488616142811
    Two-Electron Energy =                 432.3654076990572435
    DFT Exchange-Correlation Energy =       0.0000000000000000
    Empirical Dispersion Energy =           0.0000000000000000
    PCM Polarization Energy =               0.0000000000000000
    EFP Energy =                            0.0000000000000000
    Total Energy =                       -345.0160555331071350
    Molecular point group: c1
  Basis Set: CC-PVTZ
  Basis Set:

  -Total Gradient:
     Atom            X                  Y                   Z
    ------   -----------------  -----------------  -----------------
       1        0.000226151807    -0.000047684392     0.003109061017
       2       -0.001069765314    -0.000858423566    -0.004453737732
       3        0.000003570275     0.000000268468     0.000003305125
       4        0.002334373979     0.002912738987     0.001242572325
       5        0.000009012983    -0.000011363766    -0.000019794781
       6        0.000001004500     0.000002549591    -0.000003494383
       7        0.000002297240    -0.000003482778    -0.000002759924
       8       -0.000008715569     0.000005175967     0.000008035849
       9        0.000001399758     0.000001879961    -0.000000340399
      10       -0.000003567683     0.000001085678     0.000000354202
      11        0.000002285079     0.000003553783     0.000000079167
      12       -0.000003443161    -0.000001468207     0.000004747586
      13        0.000000048985    -0.000003421957    -0.000001442040
      14       -0.001507088579    -0.001996666586     0.000129081212
      15        0.000000042672    -0.000004645261    -0.000005081514
      16        0.000004626394     0.000000540134    -0.000002398221
      17        0.000007766632    -0.000000636053    -0.000008187488

  **** Optimization is complete! (in 11 steps) ****
    Final optimized geometry and variables:
    Molecular point group: c1

    Geometry (in Angstrom), charge = 0, multiplicity = 1:

    O            0.790027065534     1.479462110533     0.090718597243
    C            0.683259682336     0.308463146267     0.093848861280
    C           -0.610848694180    -0.441511746998     0.276727321621
    O            1.763780965145    -0.498998467471     0.013211604675
    C           -1.843375883712     0.447734342791     0.355826161083
    H           -0.698565375786    -1.159208830446    -0.533719623098
    H           -0.495620542219    -1.035673058499     1.178461334837
    C           -3.123085933417    -0.356519934690     0.556997982481
    H           -1.917069645344     1.038219532417    -0.549996845548
    H           -1.719265289995     1.154899226886     1.166573667570
    H           -3.286740153765    -1.050795785452    -0.260826621282
    H           -3.985364216466     0.296838329002     0.611733358902
    H           -3.086426903627    -0.932426214138     1.475805292023
    C            2.184671143283    -0.875830294285    -1.277504245403
    H            1.413514932492    -1.436006434516    -1.794877455290
    H            3.050725359176    -1.504888093428    -1.151158458378
    H            2.454144892422    -0.005154357350    -1.861646001592

  Mulliken Charges: (a.u.)
   Center  Symbol    Alpha    Beta     Spin     Total
       1     O     4.16868  4.16868  0.00000 -0.33735
       2     C     2.78852  2.78852  0.00000  0.42295
       3     C     3.11216  3.11216  0.00000 -0.22431
       4     O     4.16913  4.16913  0.00000 -0.33826
       5     C     3.08019  3.08019  0.00000 -0.16037
       6     H     0.44506  0.44506  0.00000  0.10989
       7     H     0.43838  0.43838  0.00000  0.12324
       8     C     3.15016  3.15016  0.00000 -0.30032
       9     H     0.44799  0.44799  0.00000  0.10402
      10     H     0.44390  0.44390  0.00000  0.11220
      11     H     0.45652  0.45652  0.00000  0.08696
      12     H     0.44501  0.44501  0.00000  0.10997
      13     H     0.45500  0.45500  0.00000  0.09000
      14     C     3.03474  3.03474  0.00000 -0.06949
      15     H     0.46754  0.46754  0.00000  0.06492
      16     H     0.44278  0.44278  0.00000  0.11443
      17     H     0.45424  0.45424  0.00000  0.09151

   Total alpha = 28.00000, Total beta = 28.00000, Total charge = -0.00000

*** Psi4 exiting successfully. Buy a developer a beer!
