  ==> Input File <==

--------------------------------------------------------------------------
set {
	reference rhf
	basis 6-31G*
}

set_num_threads( 1 )
memory 2 gb

molecule MOL {
0 1

H	 -2.819983	 -0.115515	 0.746589
C	 -2.594377	 0.653214	 0.010180
O	 -1.227317	 0.739752	 -0.232709
H	 -3.075770	 0.395854	 -0.923183
H	 -2.999079	 1.600198	 0.364957
C	 -0.469307	 1.073903	 0.886671
C	 0.997481	 1.030159	 0.527748
H	 -0.724471	 2.077132	 1.230354
H	 -0.659324	 0.380906	 1.703772
O	 1.392611	 -0.295398	 0.366430
H	 1.159813	 1.596528	 -0.387065
H	 1.575341	 1.502851	 1.322942
C	 2.706965	 -0.449871	 -0.062409
H	 2.756559	 -0.644779	 -1.131878
H	 3.305899	 0.433456	 0.155466
H	 3.125548	 -1.294566	 0.467107

	symmetry c1
}
set optking {
	frozen_dihedral = ("
		3 6 7 11,
		2 3 6 7
	")
}

ee = energy('scf')
oeprop('DIPOLE', 'QUADRUPOLE', 'MULLIKEN_CHARGES')
f=open( 'psi4out.xyz', 'w' )
f.write( "16  " )
f.write( str(ee) + "\n" )
f.write( MOL.save_string_xyz() )
f.close()
--------------------------------------------------------------------------

    Molecular point group: c1

    Geometry (in Angstrom), charge = 0, multiplicity = 1:

       Center              X                  Y                   Z               Mass
    ------------   -----------------  -----------------  -----------------  -----------------
           H         -2.953109064186    -0.568225306348     0.501641304859     1.007825032070
           C         -2.727503064186     0.200503693652    -0.234767695141    12.000000000000
           O         -1.360443064186     0.287041693652    -0.477656695141    15.994914619560
           H         -3.208896064186    -0.056856306348    -1.168130695141     1.007825032070
           H         -3.132205064186     1.147487693652     0.120009304859     1.007825032070
           C         -0.602433064186     0.621192693652     0.641723304859    12.000000000000
           C          0.864354935814     0.577448693652     0.282800304859    12.000000000000
           H         -0.857597064186     1.624421693652     0.985406304859     1.007825032070
           H         -0.792450064186    -0.071804306348     1.458824304859     1.007825032070
           O          1.259484935814    -0.748108306348     0.121482304859    15.994914619560
           H          1.026686935814     1.143817693652    -0.632012695141     1.007825032070
           H          1.442214935814     1.050140693652     1.077994304859     1.007825032070
           C          2.573838935814    -0.902581306348    -0.307356695141    12.000000000000
           H          2.623432935814    -1.097489306348    -1.376825695141     1.007825032070
           H          3.172772935814    -0.019254306348    -0.089481695141     1.007825032070
           H          2.992421935814    -1.747276306348     0.222159304859     1.007825032070

  Charge       = 0
  Multiplicity = 1
  Basis Set: 6-31G*
  Basis Set:

    Orbital Energies (a.u.)
    -----------------------

    Doubly Occupied:

       1A    -20.553410     2A    -20.551220     3A    -11.269240
       4A    -11.268263     5A    -11.263391     6A    -11.262718
       7A     -1.387749     8A     -1.370111     9A     -1.030484
      10A     -0.935575    11A     -0.892062    12A     -0.824586
      13A     -0.683039    14A     -0.679838    15A     -0.657471
      16A     -0.633765    17A     -0.629663    18A     -0.596195
      19A     -0.552168    20A     -0.538182    21A     -0.506755
      22A     -0.478087    23A     -0.463330    24A     -0.417696
      25A     -0.408180

  @DF-RHF Final Energy:  -306.97461923934924

   => Energetics <=

    Nuclear Repulsion Energy =            258.8531572315460494
    One-Electron Energy =                -931.9492736751519715
    Two-Electron Energy =                 366.1214972042561158
    DFT Exchange-Correlation Energy =       0.0000000000000000
    Empirical Dispersion Energy =           0.0000000000000000
    PCM Polarization Energy =               0.0000000000000000
    EFP Energy =                            0.0000000000000000
    Total Energy =                       -306.9746192393498632

  Mulliken Charges: (a.u.)
   Center  Symbol    Alpha    Beta     Spin     Total
       1     H     0.42807  0.42807  0.00000  0.14385
       2     C     3.07948  3.07948  0.00000 -0.15896
       3     O     4.30086  4.30086  0.00000 -0.60171
       4     H     0.41133  0.41133  0.00000  0.17734
       5     H     0.43193  0.43193  0.00000  0.13615
       6     C     2.99343  2.99343  0.00000  0.01313
       7     C     2.99507  2.99507  0.00000  0.00986
       8     H     0.43242  0.43242  0.00000  0.13516
       9     H     0.42283  0.42283  0.00000  0.15434
      10     O     4.30219  4.30219  0.00000 -0.60437
      11     H     0.42247  0.42247  0.00000  0.15507
      12     H     0.43169  0.43169  0.00000  0.13662
      13     C     3.07730  3.07730  0.00000 -0.15459
      14     H     0.42256  0.42256  0.00000  0.15489
      15     H     0.43178  0.43178  0.00000  0.13643
      16     H     0.41660  0.41660  0.00000  0.16681

   Total alpha = 25.00000, Total beta = 25.00000, Total charge = -0.00000
