  ==> Input File <==

--------------------------------------------------------------------------
set {
	reference rhf
	basis cc-pvtz
}

set_num_threads( 4 )
memory 2 gb

molecule MOL {
0 1

O	 -2.440701	 -0.934798	 -0.415053
C	 -1.922978	 0.063265	 -0.045005
C	 -2.632749	 1.372204	 0.158357
O	 -0.637375	 0.157174	 0.243149
H	 -2.187724	 2.129143	 -0.474664
H	 -3.677681	 1.257276	 -0.079438
H	 -2.516788	 1.693160	 1.185542
C	 0.162530	 -1.009518	 0.097799
C	 1.587210	 -0.664190	 0.477086
H	 0.096803	 -1.356267	 -0.924704
H	 -0.233803	 -1.785900	 0.736810
C	 2.256770	 0.342732	 -0.454344
H	 2.154716	 -1.590834	 0.479041
H	 1.598751	 -0.289614	 1.496104
C	 3.213622	 -0.315965	 -1.442356
H	 1.490827	 0.886249	 -1.001172
H	 2.793577	 1.076623	 0.135643
H	 3.671279	 0.419862	 -2.093121
H	 2.697967	 -1.036255	 -2.068992
H	 4.010171	 -0.840147	 -0.924900

	symmetry c1
}
set optking {
	frozen_dihedral = ("
		16 12 9 8
	")
}

ee = optimize('scf')
oeprop('DIPOLE', 'QUADRUPOLE', 'MULLIKEN_CHARGES')
f=open( 'psi4out.xyz', 'w' )
f.write( "20  " )
f.write( str(ee) + "\n" )
f.write( MOL.save_string_xyz() )
f.close()
--------------------------------------------------------------------------

    Molecular point group: c1
  Charge       = 0
  Multiplicity = 1
  Basis Set: CC-PVTZ
  Basis Set:
  @DF-RHF Final Energy:  -384.08295331264128
    Total Energy =                       -384.0829533126408251
    Molecular point group: c1
  Basis Set: CC-PVTZ
  Basis Set:
  Basis Set: CC-PVTZ
  Basis Set:
  @DF-RHF Final Energy:  -384.08317630409556
    Total Energy =                       -384.0831763040952183
  Basis Set: CC-PVTZ
  Basis Set:
  Basis Set: CC-PVTZ
  Basis Set:
  @DF-RHF Final Energy:  -384.08303719207532
    Total Energy =                       -384.0830371920756079
  Basis Set: CC-PVTZ
  Basis Set:
  Basis Set: CC-PVTZ
  Basis Set:
  @DF-RHF Final Energy:  -384.08323427543604
    Total Energy =                       -384.0832342754363253
  Basis Set: CC-PVTZ
  Basis Set:
  Basis Set: CC-PVTZ
  Basis Set:
  @DF-RHF Final Energy:  -384.08323633516852
    Total Energy =                       -384.0832363351685217
  Basis Set: CC-PVTZ
  Basis Set:
  Charge       = 0
  Multiplicity = 1
  Basis Set: CC-PVTZ
  Basis Set:

    Orbital Energies (a.u.)
    -----------------------

    Doubly Occupied:

       1A    -20.594547     2A    -20.532850     3A    -11.366856
       4A    -11.280466     5A    -11.231749     6A    -11.223189
       7A    -11.219022     8A    -11.211877     9A     -1.471302
      10A     -1.365477    11A     -1.085737    12A     -1.028521
      13A     -0.981072    14A     -0.884091    15A     -0.812221
      16A     -0.774168    17A     -0.693098    18A     -0.690634
      19A     -0.669285    20A     -0.625292    21A     -0.609696
      22A     -0.586012    23A     -0.574844    24A     -0.561474
      25A     -0.541686    26A     -0.529653    27A     -0.516449
      28A     -0.484205    29A     -0.475981    30A     -0.469438
      31A     -0.451252    32A     -0.442059

  @DF-RHF Final Energy:  -384.08323650505952

   => Energetics <=

    Nuclear Repulsion Energy =            387.4549433123369226
    One-Electron Energy =               -1291.1079571918135116
    Two-Electron Energy =                 519.5697773744171855
    DFT Exchange-Correlation Energy =       0.0000000000000000
    Empirical Dispersion Energy =           0.0000000000000000
    PCM Polarization Energy =               0.0000000000000000
    EFP Energy =                            0.0000000000000000
    Total Energy =                       -384.0832365050594035
    Molecular point group: c1
  Basis Set: CC-PVTZ
  Basis Set:

  -Total Gradient:
     Atom            X                  Y                   Z
    ------   -----------------  -----------------  -----------------
       1       -0.000010545033     0.000000671956     0.000006159281
       2       -0.000011432203    -0.000000215149     0.000021410859
       3        0.000002533393     0.000000238206    -0.000013016746
       4        0.000010385022    -0.000035257493     0.000050060245
       5       -0.000000792212     0.000002696744     0.000000802902
       6        0.000000936276     0.000000132893    -0.000001507299
       7        0.000001991639    -0.000002750757    -0.000001332802
       8       -0.000718506907     0.001695165074     0.001008795638
       9        0.001065043192    -0.002791063496    -0.002082248476
      10       -0.000008051508    -0.000019127184     0.000027982677
      11       -0.000017487243    -0.000002319588     0.000025685628
      12       -0.000460463902     0.003230573397     0.003006219954
      13        0.000012819187     0.000032500142     0.000000513208
      14        0.000003140044     0.000010605863    -0.000002820859
      15        0.000013865596    -0.000021104485     0.000014963909
      16        0.000117847960    -0.002070425342    -0.002064038995
      17        0.000005430119    -0.000029309235     0.000011142089
      18       -0.000009339386     0.000010774720     0.000002057420
      19        0.000000340673    -0.000002937398    -0.000002482305
      20        0.000002285289    -0.000008848868    -0.000008346328

  **** Optimization is complete! (in 6 steps) ****
    Final optimized geometry and variables:
    Molecular point group: c1

    Geometry (in Angstrom), charge = 0, multiplicity = 1:

    O           -2.372381109300    -0.798819778874    -0.274061830279
    C           -1.860897195812     0.189270961400     0.129716326158
    C           -2.573817382751     1.492550482812     0.355102132295
    O           -0.579634358491     0.275635559469     0.439313588392
    H           -2.119052922124     2.265033547629    -0.251607074069
    H           -3.615000554743     1.383974112647     0.098576877923
    H           -2.473329669788     1.787175679532     1.391690876496
    C            0.222677523433    -0.886784013176     0.277693478660
    C            1.643756410097    -0.536092752830     0.668964764989
    H            0.157577195346    -1.219393702148    -0.749730941064
    H           -0.172392273957    -1.673383223748     0.905016656322
    C            2.327353042446     0.467324391030    -0.276871970525
    H            2.213846288443    -1.458481731979     0.709749951912
    H            1.620146948422    -0.144474126036     1.679592413868
    C            3.282472574466    -0.199803833303    -1.264727764775
    H            1.571714317811     1.003287896274    -0.839102205361
    H            2.870339154024     1.206386192727     0.299708849991
    H            3.716823389620     0.527123245488    -1.941383531210
    H            2.769760052054    -0.943540108289    -1.866413086256
    H            4.095040859671    -0.698925926890    -0.747548019645

  Mulliken Charges: (a.u.)
   Center  Symbol    Alpha    Beta     Spin     Total
       1     O     4.19710  4.19710  0.00000 -0.39420
       2     C     2.80918  2.80918  0.00000  0.38165
       3     C     3.13799  3.13799  0.00000 -0.27598
       4     O     4.15316  4.15316  0.00000 -0.30632
       5     H     0.44619  0.44619  0.00000  0.10763
       6     H     0.43798  0.43798  0.00000  0.12404
       7     H     0.44565  0.44565  0.00000  0.10870
       8     C     2.99370  2.99370  0.00000  0.01260
       9     C     3.09047  3.09047  0.00000 -0.18093
      10     H     0.45086  0.45086  0.00000  0.09829
      11     H     0.44429  0.44429  0.00000  0.11141
      12     C     3.09160  3.09160  0.00000 -0.18320
      13     H     0.45138  0.45138  0.00000  0.09725
      14     H     0.44657  0.44657  0.00000  0.10686
      15     C     3.14788  3.14788  0.00000 -0.29577
      16     H     0.45019  0.45019  0.00000  0.09962
      17     H     0.44768  0.44768  0.00000  0.10465
      18     H     0.44820  0.44820  0.00000  0.10360
      19     H     0.45495  0.45495  0.00000  0.09009
      20     H     0.45500  0.45500  0.00000  0.09001

   Total alpha = 32.00000, Total beta = 32.00000, Total charge =  0.00000
