  ==> Input File <==

--------------------------------------------------------------------------
set {
	reference rhf
	basis cc-pvtz
}

set_num_threads( 4 )
memory 2 gb

molecule MOL {
0 1

H	 -2.644180	 -0.653737	 1.272255
C	 -2.092774	 -0.380414	 0.391915
O	 -0.808934	 -0.154049	 0.752536
F	 -2.163230	 -1.351640	 -0.507133
F	 -2.627232	 0.691260	 -0.169301
C	 0.085006	 0.250800	 -0.215074
C	 1.370439	 -0.548013	 -0.012993
Cl	 0.421658	 1.987697	 -0.091007
H	 -0.272219	 0.063284	 -1.212508
F	 1.312260	 -1.236089	 1.098848
F	 2.380405	 0.284324	 0.079191
F	 1.604346	 -1.367487	 -1.000920

	symmetry c1
}
set optking {
	frozen_dihedral = ("
		10 7 6 9
	")
}

ee = optimize('scf')
oeprop('DIPOLE', 'QUADRUPOLE', 'MULLIKEN_CHARGES')
f=open( 'psi4out.xyz', 'w' )
f.write( "12  " )
f.write( str(ee) + "\n" )
f.write( MOL.save_string_xyz() )
f.close()
--------------------------------------------------------------------------

    Molecular point group: c1
  Charge       = 0
  Multiplicity = 1
  Basis Set: CC-PVTZ
  Basis Set:
  @DF-RHF Final Energy: -1146.60709819111889
    Total Energy =                      -1146.6070981911182116
    Molecular point group: c1
  Basis Set: CC-PVTZ
  Basis Set:
  Basis Set: CC-PVTZ
  Basis Set:
  @DF-RHF Final Energy: -1146.60819580286216
    Total Energy =                      -1146.6081958028612462
  Basis Set: CC-PVTZ
  Basis Set:
  Basis Set: CC-PVTZ
  Basis Set:
  @DF-RHF Final Energy: -1146.61125045601989
    Total Energy =                      -1146.6112504560194338
  Basis Set: CC-PVTZ
  Basis Set:
  Basis Set: CC-PVTZ
  Basis Set:
  @DF-RHF Final Energy: -1146.61156157290498
    Total Energy =                      -1146.6115615729049750
  Basis Set: CC-PVTZ
  Basis Set:
  Basis Set: CC-PVTZ
  Basis Set:
  @DF-RHF Final Energy: -1146.61158556507166
    Total Energy =                      -1146.6115855650705271
  Basis Set: CC-PVTZ
  Basis Set:
  Basis Set: CC-PVTZ
  Basis Set:
  @DF-RHF Final Energy: -1146.61159007728611
    Total Energy =                      -1146.6115900772856548
  Basis Set: CC-PVTZ
  Basis Set:
  Charge       = 0
  Multiplicity = 1
  Basis Set: CC-PVTZ
  Basis Set:

    Orbital Energies (a.u.)
    -----------------------

    Doubly Occupied:

       1A   -104.855983     2A    -26.354838     3A    -26.352849
       4A    -26.352000     5A    -26.342917     6A    -26.342666
       7A    -20.638966     8A    -11.522644     9A    -11.483162
      10A    -11.402237    11A    -10.581596    12A     -8.048381
      13A     -8.046399    14A     -8.046324    15A     -1.768555
      16A     -1.724158    17A     -1.663558    18A     -1.659257
      19A     -1.644290    20A     -1.485682    21A     -1.175393
      22A     -1.049681    23A     -0.990355    24A     -0.923932
      25A     -0.861977    26A     -0.857746    27A     -0.852632
      28A     -0.830510    29A     -0.818597    30A     -0.795786
      31A     -0.732783    32A     -0.730337    33A     -0.710951
      34A     -0.708176    35A     -0.685081    36A     -0.679571
      37A     -0.665264    38A     -0.662676    39A     -0.650592
      40A     -0.634673    41A     -0.598005    42A     -0.579979
      43A     -0.523747    44A     -0.476793    45A     -0.469383

  @DF-RHF Final Energy: -1146.61159079759182

   => Energetics <=

    Nuclear Repulsion Energy =            735.6229383739179184
    One-Electron Energy =               -3054.5069025003176648
    Two-Electron Energy =                1172.2723733288073618
    DFT Exchange-Correlation Energy =       0.0000000000000000
    Empirical Dispersion Energy =           0.0000000000000000
    PCM Polarization Energy =               0.0000000000000000
    EFP Energy =                            0.0000000000000000
    Total Energy =                      -1146.6115907975924983
    Molecular point group: c1
  Basis Set: CC-PVTZ
  Basis Set:

  -Total Gradient:
     Atom            X                  Y                   Z
    ------   -----------------  -----------------  -----------------
       1        0.000003131757     0.000005668279     0.000005830805
       2       -0.000078830812     0.000000641024     0.000026002328
       3        0.000049758693    -0.000004325062    -0.000049899542
       4        0.000015709620     0.000037888755    -0.000010260829
       5        0.000066398385    -0.000040044436     0.000002441642
       6        0.002050527214     0.002820203689    -0.002128730859
       7        0.001443088096     0.002742935555     0.002361025692
       8        0.000002355767     0.000010004324    -0.000007289540
       9       -0.002107791238    -0.003029881675     0.001359329963
      10       -0.001391656399    -0.002578449367    -0.001592116869
      11       -0.000026500181     0.000001972857     0.000006008179
      12       -0.000026190880     0.000033386174     0.000027659030

  **** Optimization is complete! (in 7 steps) ****
    Final optimized geometry and variables:
    Molecular point group: c1

    Geometry (in Angstrom), charge = 0, multiplicity = 1:

    H           -2.669314943289    -0.661236616915     1.230379577635
    C           -2.093575004633    -0.394104018203     0.363762338261
    O           -0.829391831873    -0.131037874034     0.762396957837
    F           -2.109610275094    -1.388023819359    -0.514642582061
    F           -2.635085596049     0.650054597661    -0.241382673661
    C            0.084606578758     0.283515571612    -0.185827328422
    C            1.390408431579    -0.540345170216     0.000695371690
    CL           0.364842337335     2.026679480756    -0.051857983970
    H           -0.277728971146     0.083322231454    -1.177171535957
    F            1.374737924707    -1.231273429929     1.107060931744
    F            2.470287823265     0.188237895977    -0.015762341095
    F            1.473442456622    -1.397213744684    -0.997342082039

  Mulliken Charges: (a.u.)
   Center  Symbol    Alpha    Beta     Spin     Total
       1     H     0.45194  0.45194  0.00000  0.09611
       2     C     2.73913  2.73913  0.00000  0.52175
       3     O     4.15065  4.15065  0.00000 -0.30130
       4     F     4.61884  4.61884  0.00000 -0.23768
       5     F     4.61535  4.61535  0.00000 -0.23069
       6     C     2.96162  2.96162  0.00000  0.07677
       7     C     2.66254  2.66254  0.00000  0.67491
       8    CL     8.56815  8.56815  0.00000 -0.13631
       9     H     0.43148  0.43148  0.00000  0.13703
      10     F     4.59714  4.59714  0.00000 -0.19429
      11     F     4.59516  4.59516  0.00000 -0.19032
      12     F     4.60799  4.60799  0.00000 -0.21599

   Total alpha = 45.00000, Total beta = 45.00000, Total charge =  0.00000
