  ==> Input File <==

--------------------------------------------------------------------------
set {
	reference rhf
	basis cc-pvtz
}

set_num_threads( 4 )
memory 2 gb

molecule MOL {
0 1

H	 -2.362939	 -1.309000	 -0.383250
C	 -1.359344	 -1.272457	 0.020748
C	 -0.684082	 0.000127	 -0.464918
H	 -0.825835	 -2.151141	 -0.318537
H	 -1.416276	 -1.292399	 1.099455
C	 -1.359089	 1.272668	 0.021259
N	 0.742439	 -0.000109	 0.007333
H	 -0.596914	 0.000345	 -1.538146
H	 -2.362696	 1.309620	 -0.382686
H	 -0.825392	 2.151374	 -0.317674
H	 -1.415983	 1.292181	 1.099973
O	 0.948406	 0.359555	 1.117227
O	 1.572164	 -0.360105	 -0.759641

	symmetry c1
}
set optking {
	frozen_dihedral = ("
		12 7 3 8
	")
}

ee = optimize('scf')
oeprop('DIPOLE', 'QUADRUPOLE', 'MULLIKEN_CHARGES')
f=open( 'psi4out.xyz', 'w' )
f.write( "13  " )
f.write( str(ee) + "\n" )
f.write( MOL.save_string_xyz() )
f.close()
--------------------------------------------------------------------------

    Molecular point group: c1
  Charge       = 0
  Multiplicity = 1
  Basis Set: CC-PVTZ
  Basis Set:
  @DF-RHF Final Energy:  -321.86415578564254
    Total Energy =                       -321.8641557856425379
    Molecular point group: c1
  Basis Set: CC-PVTZ
  Basis Set:
  Basis Set: CC-PVTZ
  Basis Set:
  @DF-RHF Final Energy:  -321.86093672579352
    Total Energy =                       -321.8609367257933513
  Basis Set: CC-PVTZ
  Basis Set:
  Basis Set: CC-PVTZ
  Basis Set:
  @DF-RHF Final Energy:  -321.86406994805424
    Total Energy =                       -321.8640699480541798
  Basis Set: CC-PVTZ
  Basis Set:
  Basis Set: CC-PVTZ
  Basis Set:
  @DF-RHF Final Energy:  -321.86441593375127
    Total Energy =                       -321.8644159337510473
  Basis Set: CC-PVTZ
  Basis Set:
  Basis Set: CC-PVTZ
  Basis Set:
  @DF-RHF Final Energy:  -321.86441779494737
    Total Energy =                       -321.8644177949474852
  Basis Set: CC-PVTZ
  Basis Set:
  Charge       = 0
  Multiplicity = 1
  Basis Set: CC-PVTZ
  Basis Set:

    Orbital Energies (a.u.)
    -----------------------

    Doubly Occupied:

       1A    -20.589110     2A    -20.588735     3A    -15.832696
       4A    -11.304430     5A    -11.245312     6A    -11.240313
       7A     -1.633917     8A     -1.418188     9A     -1.142512
      10A     -0.973764    11A     -0.957265    12A     -0.816455
      13A     -0.753302    14A     -0.732358    15A     -0.726431
      16A     -0.649569    17A     -0.594867    18A     -0.588033
      19A     -0.571222    20A     -0.529969    21A     -0.522356
      22A     -0.485299    23A     -0.470116    24A     -0.452111

  @DF-RHF Final Energy:  -321.86441840502278

   => Energetics <=

    Nuclear Repulsion Energy =            257.3607324696762362
    One-Electron Energy =                -948.8136458096731758
    Two-Electron Energy =                 369.5884949349741646
    DFT Exchange-Correlation Energy =       0.0000000000000000
    Empirical Dispersion Energy =           0.0000000000000000
    PCM Polarization Energy =               0.0000000000000000
    EFP Energy =                            0.0000000000000000
    Total Energy =                       -321.8644184050227750
    Molecular point group: c1
  Basis Set: CC-PVTZ
  Basis Set:

  -Total Gradient:
     Atom            X                  Y                   Z
    ------   -----------------  -----------------  -----------------
       1       -0.000001597581     0.000000614339     0.000000797888
       2        0.000031367443     0.000021365867    -0.000021127667
       3       -0.000007606805    -0.000502479969    -0.000046716071
       4       -0.000001244501    -0.000010497502     0.000002946359
       5        0.000001528996     0.000005744363     0.000000446490
       6       -0.000004476151     0.000027059018     0.000003928968
       7       -0.000072913434    -0.000654356734     0.000278057098
       8        0.000020952144     0.000576573875     0.000003561090
       9       -0.000006473822     0.000001344537    -0.000000917024
      10       -0.000004047715    -0.000002218731     0.000004179023
      11        0.000006756937    -0.000001675594    -0.000006259153
      12        0.000041296968     0.000546229186    -0.000191119294
      13       -0.000003542475    -0.000007702654    -0.000027777705

  **** Optimization is complete! (in 6 steps) ****
    Final optimized geometry and variables:
    Molecular point group: c1

    Geometry (in Angstrom), charge = 0, multiplicity = 1:

    H           -2.357739598339    -1.295669172751    -0.362628341040
    C           -1.346693084852    -1.256640766120     0.021166621276
    C           -0.683885952674     0.026167491427    -0.462827765742
    H           -0.812600321085    -2.127474194721    -0.334466646775
    H           -1.386387462196    -1.282948496792     1.101918571092
    C           -1.374647380463     1.288458397166     0.018440681197
    N            0.743718145434    -0.000608551053     0.007906415872
    H           -0.595897283919     0.021057639509    -1.536449655055
    H           -2.368415416997     1.319429238111    -0.410708862912
    H           -0.840288746064     2.173841179243    -0.300292445647
    H           -1.457954848202     1.304510961142     1.094712014676
    O            0.969680336857     0.356632049171     1.115081606419
    O            1.552652394060    -0.406706045008    -0.757361706305

  Mulliken Charges: (a.u.)
   Center  Symbol    Alpha    Beta     Spin     Total
       1     H     0.44845  0.44845  0.00000  0.10310
       2     C     3.14301  3.14301  0.00000 -0.28602
       3     C     3.00771  3.00771  0.00000 -0.01543
       4     H     0.43796  0.43796  0.00000  0.12408
       5     H     0.44150  0.44150  0.00000  0.11700
       6     C     3.14451  3.14451  0.00000 -0.28901
       7     N     3.27453  3.27453  0.00000  0.45093
       8     H     0.42528  0.42528  0.00000  0.14945
       9     H     0.44996  0.44996  0.00000  0.10008
      10     H     0.44118  0.44118  0.00000  0.11763
      11     H     0.43827  0.43827  0.00000  0.12345
      12     O     4.17599  4.17599  0.00000 -0.35197
      13     O     4.17165  4.17165  0.00000 -0.34329

   Total alpha = 24.00000, Total beta = 24.00000, Total charge =  0.00000
