  ==> Input File <==

--------------------------------------------------------------------------
set {
	reference rhf
	basis 6-31G*
}

set_num_threads( 4 )
memory 2 gb

molecule MOL {
0 1

H	 2.108074	 -3.393748	 1.560080
C	 2.284180	 -2.497561	 0.973919
C	 1.013122	 -1.657350	 0.858086
H	 3.081098	 -1.939216	 1.457033
H	 2.643737	 -2.807862	 -0.003158
C	 1.217350	 -0.386724	 0.039429
H	 0.656407	 -1.379213	 1.844891
H	 0.226493	 -2.255761	 0.401457
N	 0.000003	 0.397874	 -0.023260
H	 1.984232	 0.223125	 0.509473
H	 1.596240	 -0.648193	 -0.954278
C	 -1.217365	 -0.386708	 0.039277
H	 -0.000031	 1.072115	 0.718656
C	 -2.452633	 0.504241	 -0.042481
H	 -1.215291	 -1.074557	 -0.802042
H	 -1.269739	 -1.003477	 0.942735
C	 -3.758029	 -0.289423	 -0.010781
H	 -2.394220	 1.093569	 -0.952170
H	 -2.440793	 1.210787	 0.785871
H	 -3.816659	 -0.981993	 -0.845726
H	 -4.617837	 0.370165	 -0.069296
H	 -3.847478	 -0.867502	 0.904682

	symmetry c1
}
set optking {
	frozen_dihedral = ("
		10 6 9 12
	")
}

ee = optimize('scf')
oeprop('DIPOLE', 'QUADRUPOLE', 'MULLIKEN_CHARGES')
f=open( 'psi4out.xyz', 'w' )
f.write( "22  " )
f.write( str(ee) + "\n" )
f.write( MOL.save_string_xyz() )
f.close()
--------------------------------------------------------------------------

    Molecular point group: c1
  Charge       = 0
  Multiplicity = 1
  Basis Set: 6-31G*
  Basis Set:
  @DF-RHF Final Energy:  -290.36960003818888
    Total Energy =                       -290.3696000381888211
    Molecular point group: c1
  Basis Set: 6-31G*
  Basis Set:
  Basis Set: 6-31G*
  Basis Set:
  @DF-RHF Final Energy:  -290.36983259842702
    Total Energy =                       -290.3698325984270241
  Basis Set: 6-31G*
  Basis Set:
  Basis Set: 6-31G*
  Basis Set:
  @DF-RHF Final Energy:  -290.37486093904380
    Total Energy =                       -290.3748609390436286
  Basis Set: 6-31G*
  Basis Set:
  Basis Set: 6-31G*
  Basis Set:
  @DF-RHF Final Energy:  -290.37599604205303
    Total Energy =                       -290.3759960420532025
  Basis Set: 6-31G*
  Basis Set:
  Basis Set: 6-31G*
  Basis Set:
  @DF-RHF Final Energy:  -290.37615522471339
    Total Energy =                       -290.3761552247133295
  Basis Set: 6-31G*
  Basis Set:
  Basis Set: 6-31G*
  Basis Set:
  @DF-RHF Final Energy:  -290.37620844928460
    Total Energy =                       -290.3762084492846611
  Basis Set: 6-31G*
  Basis Set:
  Basis Set: 6-31G*
  Basis Set:
  @DF-RHF Final Energy:  -290.37621230717821
    Total Energy =                       -290.3762123071780934
  Basis Set: 6-31G*
  Basis Set:
  Charge       = 0
  Multiplicity = 1
  Basis Set: 6-31G*
  Basis Set:

    Orbital Energies (a.u.)
    -----------------------

    Doubly Occupied:

       1A    -15.532112     2A    -11.239140     3A    -11.237255
       4A    -11.214133     5A    -11.212073     6A    -11.211085
       7A    -11.208894     8A     -1.200039     9A     -1.056698
      10A     -1.027355    11A     -0.929580    12A     -0.873760
      13A     -0.812875    14A     -0.785012    15A     -0.669818
      16A     -0.628254    17A     -0.617231    18A     -0.605551
      19A     -0.576001    20A     -0.557322    21A     -0.539915
      22A     -0.528397    23A     -0.501632    24A     -0.493601
      25A     -0.483386    26A     -0.471569    27A     -0.462259
      28A     -0.461272    29A     -0.351614

  @DF-RHF Final Energy:  -290.37621262267982

   => Energetics <=

    Nuclear Repulsion Energy =            317.7928194250152387
    One-Electron Energy =               -1021.3623962497175626
    Two-Electron Energy =                 413.1933642020226785
    DFT Exchange-Correlation Energy =       0.0000000000000000
    Empirical Dispersion Energy =           0.0000000000000000
    PCM Polarization Energy =               0.0000000000000000
    EFP Energy =                            0.0000000000000000
    Total Energy =                       -290.3762126226797022
    Molecular point group: c1
  Basis Set: 6-31G*
  Basis Set:

  -Total Gradient:
     Atom            X                  Y                   Z
    ------   -----------------  -----------------  -----------------
       1       -0.000003583018    -0.000000400779    -0.000003091273
       2       -0.000014637070     0.000001793639    -0.000015101013
       3        0.000033727741    -0.000007037448     0.000031181729
       4       -0.000004935830     0.000000401997     0.000001573443
       5        0.000007685048    -0.000000904915    -0.000000852369
       6        0.002080503694     0.002922406177    -0.004445974901
       7       -0.000001555150     0.000005959360     0.000008909700
       8       -0.000004053137     0.000001914456    -0.000005679059
       9       -0.000360940784    -0.001050280821    -0.006313365406
      10       -0.001700146151    -0.002267371271     0.005638811010
      11       -0.000014534863     0.000016251644    -0.000002661242
      12       -0.000016856315     0.000382878869     0.005106605007
      13        0.000008983299     0.000000016157     0.000007097649
      14        0.000006990540    -0.000009433964     0.000004019698
      15       -0.000005501604    -0.000009895511    -0.000007159913
      16       -0.000003500247     0.000003978473    -0.000005126449
      17       -0.000000692315     0.000002803760     0.000004370587
      18        0.000000238510     0.000004295170    -0.000001585106
      19       -0.000005411917     0.000002652171    -0.000000354873
      20        0.000001135509     0.000002091290     0.000000464440
      21       -0.000002385111    -0.000001212390    -0.000000651128
      22       -0.000000530822    -0.000000906065    -0.000001430529

  **** Optimization is complete! (in 8 steps) ****
    Final optimized geometry and variables:
    Molecular point group: c1

    Geometry (in Angstrom), charge = 0, multiplicity = 1:

    H            2.895084497426    -2.751005867784     1.213203923214
    C            2.927859083701    -1.818653726854     0.658687707655
    C            1.553231011406    -1.150252761326     0.619912507049
    H            3.665759598802    -1.177973403186     1.133614062930
    H            3.283184175032    -2.043240388670    -0.343124547879
    C            1.587254741363     0.162292929965    -0.175495904102
    H            1.217352061046    -0.951487724603     1.635460814723
    H            0.835989734905    -1.839806648237     0.185158905831
    N            0.353797983592     0.941661161647    -0.237347105135
    H            2.333682282521     0.789914437818     0.301771678642
    H            1.928075257690    -0.047010612489    -1.186281827037
    C           -0.909373919940     0.228525858021    -0.189343470534
    H            0.360563785108     1.623453823602     0.494955626478
    C           -2.073054249599     1.196626546632    -0.381474210008
    H           -0.921242078524    -0.501961738134    -0.994225850283
    H           -1.054712788874    -0.328587414059     0.738143137851
    C           -3.432960675248     0.500131960115    -0.356517752257
    H           -1.935975899598     1.720596543341    -1.321958730301
    H           -2.041872468234     1.953159510638     0.401176526207
    H           -3.509442629061    -0.240535058448    -1.147645792237
    H           -4.239702963611     1.212930206916    -0.494233371674
    H           -3.600342120136    -0.008379960406     0.588919341531

  Mulliken Charges: (a.u.)
   Center  Symbol    Alpha    Beta     Spin     Total
       1     H     0.41763  0.41763  0.00000  0.16474
       2     C     3.24256  3.24256  0.00000 -0.48512
       3     C     3.16439  3.16439  0.00000 -0.32879
       4     H     0.42188  0.42188  0.00000  0.15624
       5     H     0.42030  0.42030  0.00000  0.15939
       6     C     3.04455  3.04455  0.00000 -0.08909
       7     H     0.42415  0.42415  0.00000  0.15169
       8     H     0.41962  0.41962  0.00000  0.16075
       9     N     3.86051  3.86051  0.00000 -0.72102
      10     H     0.42426  0.42426  0.00000  0.15148
      11     H     0.42090  0.42090  0.00000  0.15820
      12     C     3.05222  3.05222  0.00000 -0.10443
      13     H     0.33420  0.33420  0.00000  0.33160
      14     C     3.15300  3.15300  0.00000 -0.30600
      15     H     0.42215  0.42215  0.00000  0.15569
      16     H     0.43285  0.43285  0.00000  0.13429
      17     C     3.24336  3.24336  0.00000 -0.48672
      18     H     0.41304  0.41304  0.00000  0.17392
      19     H     0.42731  0.42731  0.00000  0.14538
      20     H     0.42107  0.42107  0.00000  0.15786
      21     H     0.41787  0.41787  0.00000  0.16427
      22     H     0.42216  0.42216  0.00000  0.15568

   Total alpha = 29.00000, Total beta = 29.00000, Total charge =  0.00000
