  ==> Input File <==

--------------------------------------------------------------------------
set {
	reference rhf
	basis 6-31G*
}

set_num_threads( 4 )
memory 2 gb

molecule MOL {
0 1

H	 -2.646374	 -0.642757	 1.268656
C	 -2.083525	 -0.384536	 0.393091
O	 -0.807605	 -0.127164	 0.768327
F	 -2.118945	 -1.383102	 -0.486752
F	 -2.621877	 0.670592	 -0.209486
C	 -0.234838	 1.055771	 0.337872
C	 1.150692	 0.711578	 -0.193162
Cl	 -0.121886	 2.222348	 1.665860
H	 -0.796090	 1.517651	 -0.455499
F	 1.755184	 1.793732	 -0.635513
F	 1.022195	 -0.126784	 -1.202159
F	 1.904984	 0.149903	 0.719821

	symmetry c1
}
set optking {
	frozen_dihedral = ("
		6 3 2 4
	")
}

ee = optimize('scf')
oeprop('DIPOLE', 'QUADRUPOLE', 'MULLIKEN_CHARGES')
f=open( 'psi4out.xyz', 'w' )
f.write( "12  " )
f.write( str(ee) + "\n" )
f.write( MOL.save_string_xyz() )
f.close()
--------------------------------------------------------------------------

    Molecular point group: c1
  Charge       = 0
  Multiplicity = 1
  Basis Set: 6-31G*
  Basis Set:
  @DF-RHF Final Energy: -1146.30726317392214
    Total Energy =                      -1146.3072631739216831
    Molecular point group: c1
  Basis Set: 6-31G*
  Basis Set:
  Basis Set: 6-31G*
  Basis Set:
  @DF-RHF Final Energy: -1146.30737662381102
    Total Energy =                      -1146.3073766238112512
  Basis Set: 6-31G*
  Basis Set:
  Basis Set: 6-31G*
  Basis Set:
  @DF-RHF Final Energy: -1146.30940286040618
    Total Energy =                      -1146.3094028604057257
  Basis Set: 6-31G*
  Basis Set:
  Basis Set: 6-31G*
  Basis Set:
  @DF-RHF Final Energy: -1146.30968837947876
    Total Energy =                      -1146.3096883794787573
  Basis Set: 6-31G*
  Basis Set:
  @DF-RHF Final Energy: -1146.30984389638297
    Total Energy =                      -1146.3098438963834269
  @DF-RHF Final Energy: -1146.30994351332561
    Total Energy =                      -1146.3099435133262887
  Basis Set: 6-31G*
  Basis Set:
  @DF-RHF Final Energy: -1146.30993984286670
    Total Energy =                      -1146.3099398428655604
  Basis Set: 6-31G*
  Basis Set:
  Basis Set: 6-31G*
  Basis Set:
  @DF-RHF Final Energy: -1146.30997436823100
    Total Energy =                      -1146.3099743682307690
  Basis Set: 6-31G*
  Basis Set:
  Basis Set: 6-31G*
  Basis Set:
  @DF-RHF Final Energy: -1146.30997641141585
    Total Energy =                      -1146.3099764114153913
  Basis Set: 6-31G*
  Basis Set:
  Charge       = 0
  Multiplicity = 1
  Basis Set: 6-31G*
  Basis Set:

    Orbital Energies (a.u.)
    -----------------------

    Doubly Occupied:

       1A   -104.843889     2A    -26.359812     3A    -26.358050
       4A    -26.357377     5A    -26.356194     6A    -26.341450
       7A    -20.646715     8A    -11.527932     9A    -11.491678
      10A    -11.402732    11A    -10.578734    12A     -8.048057
      13A     -8.044601    14A     -8.044470    15A     -1.760945
      16A     -1.720445    17A     -1.657371    18A     -1.655869
      19A     -1.642160    20A     -1.483090    21A     -1.177977
      22A     -1.055357    23A     -0.986238    24A     -0.918838
      25A     -0.859624    26A     -0.849310    27A     -0.843173
      28A     -0.833056    29A     -0.813029    30A     -0.793243
      31A     -0.727238    32A     -0.725497    33A     -0.700514
      34A     -0.699669    35A     -0.681129    36A     -0.673871
      37A     -0.662007    38A     -0.657660    39A     -0.654590
      40A     -0.632473    41A     -0.599871    42A     -0.576925
      43A     -0.513434    44A     -0.478627    45A     -0.470288

  @DF-RHF Final Energy: -1146.30997656601721

   => Energetics <=

    Nuclear Repulsion Energy =            733.1222413783372076
    One-Electron Energy =               -3049.0540261120158902
    Two-Electron Energy =                1169.6218081676611291
    DFT Exchange-Correlation Energy =       0.0000000000000000
    Empirical Dispersion Energy =           0.0000000000000000
    PCM Polarization Energy =               0.0000000000000000
    EFP Energy =                            0.0000000000000000
    Total Energy =                      -1146.3099765660176672
    Molecular point group: c1
  Basis Set: 6-31G*
  Basis Set:

  -Total Gradient:
     Atom            X                  Y                   Z
    ------   -----------------  -----------------  -----------------
       1       -0.000004239763    -0.000006923151    -0.000003510483
       2       -0.000241764937     0.001841993299    -0.000578013670
       3        0.000467475185    -0.001251326420    -0.001968392847
       4        0.000064678285    -0.001132229572     0.001033713538
       5       -0.000003789330    -0.000027264128     0.000000626023
       6       -0.000266640271     0.000584234157     0.001513809661
       7        0.000035913491     0.000014421036    -0.000000162826
       8        0.000004406431     0.000000490905    -0.000001059982
       9       -0.000003500985    -0.000008466734    -0.000006092422
      10       -0.000016416678     0.000016871432     0.000007105816
      11       -0.000021306746    -0.000021772558    -0.000008657227
      12       -0.000014814681    -0.000010028327     0.000010634429

  **** Optimization is complete! (in 10 steps) ****
    Final optimized geometry and variables:
    Molecular point group: c1

    Geometry (in Angstrom), charge = 0, multiplicity = 1:

    H           -2.312053820622    -1.403201099966     1.113559968673
    C           -1.904604144586    -1.022094775862     0.196463213017
    O           -0.566346657429    -0.799160518925     0.345623791767
    F           -2.089142398980    -1.910595882943    -0.768195611241
    F           -2.542601176021     0.089364897516    -0.153244348629
    C            0.003523694957     0.395953549009    -0.023430722455
    C            1.443953030186     0.083042199413    -0.409473590521
    CL          -0.039590928326     1.575528245163     1.307317562280
    H           -0.483754864572     0.849801265538    -0.867302971929
    F            2.064419041486     1.182300215582    -0.782361619755
    F            1.440083428175    -0.749200876279    -1.430698729308
    F            2.113973019646    -0.466602769357     0.573521447908

  Mulliken Charges: (a.u.)
   Center  Symbol    Alpha    Beta     Spin     Total
       1     H     0.40802  0.40802  0.00000  0.18396
       2     C     2.56245  2.56245  0.00000  0.87510
       3     O     4.30813  4.30813  0.00000 -0.61627
       4     F     4.67560  4.67560  0.00000 -0.35120
       5     F     4.68230  4.68230  0.00000 -0.36459
       6     C     3.03591  3.03591  0.00000 -0.07181
       7     C     2.43250  2.43250  0.00000  1.13500
       8    CL     8.50958  8.50958  0.00000 -0.01917
       9     H     0.36744  0.36744  0.00000  0.26512
      10     F     4.67456  4.67456  0.00000 -0.34913
      11     F     4.67541  4.67541  0.00000 -0.35081
      12     F     4.66810  4.66810  0.00000 -0.33621

   Total alpha = 45.00000, Total beta = 45.00000, Total charge =  0.00000
