  ==> Input File <==

--------------------------------------------------------------------------
set {
	reference rhf
	basis 6-31G*
}

set_num_threads( 1 )
memory 2 gb

molecule MOL {
0 1

H	 0.777919	 6.877022	 0.062133
C	 -0.232354	 6.523168	 -0.118587
C	 -0.269218	 5.001190	 -0.250496
H	 -0.852651	 6.857443	 0.707750
H	 -0.595378	 7.005921	 -1.021894
C	 -1.679755	 4.468946	 -0.513016
H	 0.123430	 4.553300	 0.656600
H	 0.387849	 4.694754	 -1.062931
C	 -1.745470	 2.949402	 -0.667722
H	 -2.338048	 4.769610	 0.294384
H	 -2.066853	 4.922156	 -1.422849
C	 -1.522356	 2.177584	 0.624470
H	 -2.728492	 2.659727	 -1.035860
H	 -1.037383	 2.604110	 -1.417764
C	 -1.181045	 0.701995	 0.511084
O	 -1.628133	 2.701564	 1.692488
C	 -2.285934	 -0.139295	 -0.145128
H	 -0.984223	 0.344371	 1.514618
H	 -0.262749	 0.602632	 -0.064715
C	 -3.651768	 0.085446	 0.506485
H	 -2.346596	 0.110469	 -1.202272
H	 -2.034737	 -1.195320	 -0.088721
C	 -4.759797	 -0.746382	 -0.137905
H	 -3.908762	 1.140117	 0.445781
H	 -3.588286	 -0.154158	 1.565709
H	 -4.868882	 -0.505166	 -1.191300
H	 -4.548009	 -1.809175	 -0.062213
H	 -5.715422	 -0.564821	 0.343442

	symmetry c1
}
set optking {
	frozen_dihedral = ("
		10 6 3 2,
		16 12 15 17
	")
}

ee = energy('scf')
oeprop('DIPOLE', 'QUADRUPOLE', 'MULLIKEN_CHARGES')
f=open( 'psi4out.xyz', 'w' )
f.write( "28  " )
f.write( str(ee) + "\n" )
f.write( MOL.save_string_xyz() )
f.close()
--------------------------------------------------------------------------

    Molecular point group: c1

    Geometry (in Angstrom), charge = 0, multiplicity = 1:

       Center              X                  Y                   Z               Mass
    ------------   -----------------  -----------------  -----------------  -----------------
           H          2.683475856389     4.493915112097    -0.091086702520     1.007825032070
           C          1.673202856389     4.140061112097    -0.271806702520    12.000000000000
           C          1.636338856389     2.618083112097    -0.403715702520    12.000000000000
           H          1.052905856389     4.474336112097     0.554530297480     1.007825032070
           H          1.310178856389     4.622814112097    -1.175113702520     1.007825032070
           C          0.225801856389     2.085839112097    -0.666235702520    12.000000000000
           H          2.028986856389     2.170193112097     0.503380297480     1.007825032070
           H          2.293405856389     2.311647112097    -1.216150702520     1.007825032070
           C          0.160086856389     0.566295112097    -0.820941702520    12.000000000000
           H         -0.432491143611     2.386503112097     0.141164297480     1.007825032070
           H         -0.161296143611     2.539049112097    -1.576068702520     1.007825032070
           C          0.383200856389    -0.205522887903     0.471250297480    12.000000000000
           H         -0.822935143611     0.276620112097    -1.189079702520     1.007825032070
           H          0.868173856389     0.221003112097    -1.570983702520     1.007825032070
           C          0.724511856389    -1.681111887903     0.357864297480    12.000000000000
           O          0.277423856389     0.318457112097     1.539268297480    15.994914619560
           C         -0.380377143611    -2.522401887903    -0.298347702520    12.000000000000
           H          0.921333856389    -2.038735887903     1.361398297480     1.007825032070
           H          1.642807856389    -1.780474887903    -0.217934702520     1.007825032070
           C         -1.746211143611    -2.297660887903     0.353265297480    12.000000000000
           H         -0.441039143611    -2.272637887903    -1.355491702520     1.007825032070
           H         -0.129180143611    -3.578426887903    -0.241940702520     1.007825032070
           C         -2.854240143611    -3.129488887903    -0.291124702520    12.000000000000
           H         -2.003205143611    -1.242989887903     0.292561297480     1.007825032070
           H         -1.682729143611    -2.537264887903     1.412489297480     1.007825032070
           H         -2.963325143611    -2.888272887903    -1.344519702520     1.007825032070
           H         -2.642452143611    -4.192281887903    -0.215432702520     1.007825032070
           H         -3.809865143611    -2.947927887903     0.190222297480     1.007825032070

  Charge       = 0
  Multiplicity = 1
  Basis Set: 6-31G*
  Basis Set:

    Orbital Energies (a.u.)
    -----------------------

    Doubly Occupied:

       1A    -20.548548     2A    -11.322380     3A    -11.231717
       4A    -11.230370     5A    -11.228519     6A    -11.223099
       7A    -11.216935     8A    -11.215022     9A    -11.212628
      10A    -11.205959    11A     -1.393764    12A     -1.096332
      13A     -1.077082    14A     -1.020077    15A     -0.991277
      16A     -0.906036    17A     -0.874835    18A     -0.813473
      19A     -0.797448    20A     -0.720340    21A     -0.663942
      22A     -0.654835    23A     -0.630430    24A     -0.614786
      25A     -0.608565    26A     -0.586152    27A     -0.584169
      28A     -0.573798    29A     -0.548542    30A     -0.534417
      31A     -0.516520    32A     -0.508998    33A     -0.501248
      34A     -0.486838    35A     -0.476348    36A     -0.471695
      37A     -0.467191    38A     -0.462269    39A     -0.456243
      40A     -0.393730

  @DF-RHF Final Energy:  -426.16747460061049

   => Energetics <=

    Nuclear Repulsion Energy =            544.3496176912702822
    One-Electron Energy =               -1656.9007122543803234
    Two-Electron Energy =                 686.3836199625002337
    DFT Exchange-Correlation Energy =       0.0000000000000000
    Empirical Dispersion Energy =           0.0000000000000000
    PCM Polarization Energy =               0.0000000000000000
    EFP Energy =                            0.0000000000000000
    Total Energy =                       -426.1674746006096939

  Mulliken Charges: (a.u.)
   Center  Symbol    Alpha    Beta     Spin     Total
       1     H     0.41927  0.41927  0.00000  0.16145
       2     C     3.24014  3.24014  0.00000 -0.48027
       3     C     3.15641  3.15641  0.00000 -0.31282
       4     H     0.41829  0.41829  0.00000  0.16341
       5     H     0.42359  0.42359  0.00000  0.15282
       6     C     3.14893  3.14893  0.00000 -0.29786
       7     H     0.41043  0.41043  0.00000  0.17914
       8     H     0.42759  0.42759  0.00000  0.14483
       9     C     3.21222  3.21222  0.00000 -0.42444
      10     H     0.40671  0.40671  0.00000  0.18657
      11     H     0.42189  0.42189  0.00000  0.15623
      12     C     2.73337  2.73337  0.00000  0.53327
      13     H     0.40302  0.40302  0.00000  0.19396
      14     H     0.41275  0.41275  0.00000  0.17450
      15     C     3.20062  3.20062  0.00000 -0.40125
      16     O     4.26758  4.26758  0.00000 -0.53515
      17     C     3.16245  3.16245  0.00000 -0.32490
      18     H     0.40042  0.40042  0.00000  0.19915
      19     H     0.41080  0.41080  0.00000  0.17841
      20     C     3.15760  3.15760  0.00000 -0.31521
      21     H     0.42014  0.42014  0.00000  0.15972
      22     H     0.41326  0.41326  0.00000  0.17348
      23     C     3.23983  3.23983  0.00000 -0.47967
      24     H     0.41910  0.41910  0.00000  0.16179
      25     H     0.41464  0.41464  0.00000  0.17072
      26     H     0.42216  0.42216  0.00000  0.15568
      27     H     0.42065  0.42065  0.00000  0.15869
      28     H     0.41613  0.41613  0.00000  0.16774

   Total alpha = 40.00000, Total beta = 40.00000, Total charge = -0.00000
