  ==> Input File <==

--------------------------------------------------------------------------
set {
	reference rhf
	basis 6-31G*
}

set_num_threads( 4 )
memory 2 gb

molecule MOL {
0 1

H	 -0.367348	 2.047014	 -0.308205
C	 0.352277	 1.337084	 0.083769
N	 -0.000016	 0.000074	 -0.335546
H	 1.328359	 1.600444	 -0.307950
H	 0.381933	 1.450534	 1.172486
C	 -0.247192	 -0.871328	 0.790435
C	 -1.101854	 -0.000061	 -1.270484
H	 -0.437766	 -1.879505	 0.440275
H	 0.626457	 -0.900337	 1.431808
H	 -1.102570	 -0.555498	 1.396622
H	 -0.852123	 0.606720	 -2.133517
H	 -1.290823	 -1.010115	 -1.616202
H	 -2.029604	 0.389928	 -0.839074

	symmetry c1
}
set optking {
	frozen_dihedral = ("
		6 3 2 1
	")
}

ee = optimize('scf')
oeprop('DIPOLE', 'QUADRUPOLE', 'MULLIKEN_CHARGES')
f=open( 'psi4out.xyz', 'w' )
f.write( "13  " )
f.write( str(ee) + "\n" )
f.write( MOL.save_string_xyz() )
f.close()
--------------------------------------------------------------------------

    Molecular point group: c1
  Charge       = 0
  Multiplicity = 1
  Basis Set: 6-31G*
  Basis Set:
  @DF-RHF Final Energy:  -173.26157412810531
    Total Energy =                       -173.2615741281053374
    Molecular point group: c1
  Basis Set: 6-31G*
  Basis Set:
  Basis Set: 6-31G*
  Basis Set:
  @DF-RHF Final Energy:  -173.26232586599403
    Total Energy =                       -173.2623258659940007
  Basis Set: 6-31G*
  Basis Set:
  Basis Set: 6-31G*
  Basis Set:
  @DF-RHF Final Energy:  -173.26249968432083
    Total Energy =                       -173.2624996843208578
  Basis Set: 6-31G*
  Basis Set:
  Basis Set: 6-31G*
  Basis Set:
  @DF-RHF Final Energy:  -173.26250936972758
    Total Energy =                       -173.2625093697274679
  Basis Set: 6-31G*
  Basis Set:
  Charge       = 0
  Multiplicity = 1
  Basis Set: 6-31G*
  Basis Set:

    Orbital Energies (a.u.)
    -----------------------

    Doubly Occupied:

       1A    -15.538763     2A    -11.235410     3A    -11.235332
       4A    -11.235312     5A     -1.218621     6A     -0.951288
       7A     -0.950946     8A     -0.805801     9A     -0.636297
      10A     -0.628141    11A     -0.627243    12A     -0.548978
      13A     -0.547052    14A     -0.514632    15A     -0.500802
      16A     -0.500680    17A     -0.337106

  @DF-RHF Final Energy:  -173.26251085660394

   => Energetics <=

    Nuclear Repulsion Energy =            138.7116652927565781
    One-Electron Energy =                -507.9235445390596624
    Two-Electron Energy =                 195.9493683896991172
    DFT Exchange-Correlation Energy =       0.0000000000000000
    Empirical Dispersion Energy =           0.0000000000000000
    PCM Polarization Energy =               0.0000000000000000
    EFP Energy =                            0.0000000000000000
    Total Energy =                       -173.2625108566039387
    Molecular point group: c1
  Basis Set: 6-31G*
  Basis Set:

  -Total Gradient:
     Atom            X                  Y                   Z
    ------   -----------------  -----------------  -----------------
       1        0.000795301659     0.000133193265    -0.001301432042
       2       -0.000531426260    -0.000238156043     0.001668145484
       3       -0.001342792639     0.000443303348    -0.000322721788
       4       -0.000043015660    -0.000019125227    -0.000009585287
       5       -0.000005749465    -0.000010140183     0.000003282476
       6        0.001128577121    -0.000302476002    -0.000044855623
       7        0.000026777012     0.000031579178    -0.000002192549
       8       -0.000006655572    -0.000015339879     0.000016481040
       9       -0.000003892802    -0.000012066831     0.000015380635
      10        0.000005344575     0.000001132716    -0.000012323901
      11       -0.000018990401    -0.000004761905    -0.000007888289
      12       -0.000009813762    -0.000003364662    -0.000007765613
      13        0.000006336195    -0.000003777775     0.000005475458

  **** Optimization is complete! (in 5 steps) ****
    Final optimized geometry and variables:
    Molecular point group: c1

    Geometry (in Angstrom), charge = 0, multiplicity = 1:

    H           -0.068205496243     1.978730367161    -0.101913338867
    C            0.638147870586     1.230168775272     0.248241878502
    N            0.238403610818    -0.113632366246    -0.143544615318
    H            1.610517877956     1.482619695179    -0.165588302447
    H            0.702697793708     1.324707131173     1.327040882807
    C            0.017455668571    -1.007087380685     0.968630716559
    C           -0.833455374630    -0.137871902124    -1.109315075892
    H           -0.158771553339    -2.011775043972     0.600637267657
    H            0.899058086931    -1.037560022341     1.598459708038
    H           -0.836156526423    -0.722813883040     1.593027692802
    H           -0.566290370819     0.461970399743    -1.972047536250
    H           -0.996409906344    -1.153562899465    -1.452291517741
    H           -1.781251843312     0.241957325022    -0.713534646033

  Mulliken Charges: (a.u.)
   Center  Symbol    Alpha    Beta     Spin     Total
       1     H     0.42435  0.42435  0.00000  0.15129
       2     C     3.14332  3.14332  0.00000 -0.28663
       3     N     3.77221  3.77221  0.00000 -0.54442
       4     H     0.41639  0.41639  0.00000  0.16722
       5     H     0.42163  0.42163  0.00000  0.15674
       6     C     3.14024  3.14024  0.00000 -0.28049
       7     C     3.14053  3.14053  0.00000 -0.28106
       8     H     0.41829  0.41829  0.00000  0.16343
       9     H     0.41663  0.41663  0.00000  0.16673
      10     H     0.43589  0.43589  0.00000  0.12821
      11     H     0.41662  0.41662  0.00000  0.16676
      12     H     0.41818  0.41818  0.00000  0.16365
      13     H     0.43571  0.43571  0.00000  0.12858

   Total alpha = 17.00000, Total beta = 17.00000, Total charge =  0.00000
