  ==> Input File <==

--------------------------------------------------------------------------
set {
	reference rhf
	basis cc-pvtz
}

set_num_threads( 4 )
memory 2 gb

molecule MOL {
0 1

H	 -2.644180	 -0.653737	 1.272255
C	 -2.092774	 -0.380414	 0.391915
O	 -0.808934	 -0.154049	 0.752536
F	 -2.163230	 -1.351640	 -0.507133
F	 -2.627232	 0.691260	 -0.169301
C	 0.085006	 0.250800	 -0.215074
C	 1.370439	 -0.548013	 -0.012993
Cl	 0.421658	 1.987697	 -0.091007
H	 -0.272219	 0.063284	 -1.212508
F	 1.233809	 -1.393157	 0.977001
F	 2.343019	 0.278020	 0.292084
F	 1.715708	 -1.209168	 -1.083467

	symmetry c1
}
set optking {
	frozen_dihedral = ("
		10 7 6 9
	")
}

ee = optimize('scf')
oeprop('DIPOLE', 'QUADRUPOLE', 'MULLIKEN_CHARGES')
f=open( 'psi4out.xyz', 'w' )
f.write( "12  " )
f.write( str(ee) + "\n" )
f.write( MOL.save_string_xyz() )
f.close()
--------------------------------------------------------------------------

    Molecular point group: c1
  Charge       = 0
  Multiplicity = 1
  Basis Set: CC-PVTZ
  Basis Set:
  @DF-RHF Final Energy: -1146.60663856190013
    Total Energy =                      -1146.6066385619010362
    Molecular point group: c1
  Basis Set: CC-PVTZ
  Basis Set:
  Basis Set: CC-PVTZ
  Basis Set:
  @DF-RHF Final Energy: -1146.60749936844900
    Total Energy =                      -1146.6074993684485435
  Basis Set: CC-PVTZ
  Basis Set:
  Basis Set: CC-PVTZ
  Basis Set:
  @DF-RHF Final Energy: -1146.61063708171446
    Total Energy =                      -1146.6106370817142306
  Basis Set: CC-PVTZ
  Basis Set:
  Basis Set: CC-PVTZ
  Basis Set:
  @DF-RHF Final Energy: -1146.61091737646711
    Total Energy =                      -1146.6109173764671141
  Basis Set: CC-PVTZ
  Basis Set:
  @DF-RHF Final Energy: -1146.61094168868522
    Total Energy =                      -1146.6109416886840791
  Basis Set: CC-PVTZ
  Basis Set:
  @DF-RHF Final Energy: -1146.61094816205014
    Total Energy =                      -1146.6109481620501356
  Basis Set: CC-PVTZ
  Basis Set:
  Basis Set: CC-PVTZ
  Basis Set:
  @DF-RHF Final Energy: -1146.61095159185743
    Total Energy =                      -1146.6109515918578836
  Basis Set: CC-PVTZ
  Basis Set:
  Basis Set: CC-PVTZ
  Basis Set:
  @DF-RHF Final Energy: -1146.61095476490186
    Total Energy =                      -1146.6109547649020897
  Basis Set: CC-PVTZ
  Basis Set:
  Charge       = 0
  Multiplicity = 1
  Basis Set: CC-PVTZ
  Basis Set:

    Orbital Energies (a.u.)
    -----------------------

    Doubly Occupied:

       1A   -104.855313     2A    -26.353296     3A    -26.353224
       4A    -26.353050     5A    -26.343311     6A    -26.343055
       7A    -20.639284     8A    -11.522820     9A    -11.483663
      10A    -11.402383    11A    -10.580929    12A     -8.047706
      13A     -8.045733    14A     -8.045649    15A     -1.768556
      16A     -1.724546    17A     -1.662192    18A     -1.660565
      19A     -1.644663    20A     -1.486479    21A     -1.174831
      22A     -1.048539    23A     -0.990999    24A     -0.924026
      25A     -0.862162    26A     -0.858268    27A     -0.851952
      28A     -0.831237    29A     -0.819448    30A     -0.795994
      31A     -0.732893    32A     -0.731680    33A     -0.710905
      34A     -0.708386    35A     -0.684645    36A     -0.680135
      37A     -0.665384    38A     -0.662537    39A     -0.650458
      40A     -0.634414    41A     -0.598249    42A     -0.579402
      43A     -0.523452    44A     -0.476583    45A     -0.468627

  @DF-RHF Final Energy: -1146.61095560926810

   => Energetics <=

    Nuclear Repulsion Energy =            735.3817575308951291
    One-Electron Energy =               -3054.0221805856158426
    Two-Electron Energy =                1172.0294674454530650
    DFT Exchange-Correlation Energy =       0.0000000000000000
    Empirical Dispersion Energy =           0.0000000000000000
    PCM Polarization Energy =               0.0000000000000000
    EFP Energy =                            0.0000000000000000
    Total Energy =                      -1146.6109556092674211
    Molecular point group: c1
  Basis Set: CC-PVTZ
  Basis Set:

  -Total Gradient:
     Atom            X                  Y                   Z
    ------   -----------------  -----------------  -----------------
       1       -0.000012608623    -0.000004166186     0.000003726306
       2       -0.000059188547     0.000016072034     0.000107088995
       3       -0.000039529625    -0.000075565958    -0.000051546486
       4        0.000028694300     0.000056859840    -0.000011142169
       5        0.000084894035    -0.000006485813    -0.000027940866
       6       -0.000107337543    -0.000138239385     0.000095159927
       7       -0.000093719064    -0.000013765769     0.000033002101
       8       -0.000060442611    -0.000012012059    -0.000007192406
       9        0.000133281308     0.000179182313    -0.000072884431
      10        0.000109576515     0.000153811024     0.000089809946
      11       -0.000029143807    -0.000067858865    -0.000034392580
      12        0.000045523691    -0.000087831090    -0.000123688338

  **** Optimization is complete! (in 9 steps) ****
    Final optimized geometry and variables:
    Molecular point group: c1

    Geometry (in Angstrom), charge = 0, multiplicity = 1:

    H           -2.681328370731    -0.633120782196     1.238172006875
    C           -2.097371251739    -0.389319898715     0.370228367532
    O           -0.842109359541    -0.095153851140     0.774784863936
    F           -2.088816438282    -1.413353379304    -0.472887557017
    F           -2.643255739225     0.626233995199    -0.278493229874
    C            0.076710482169     0.291898721756    -0.176965802047
    C            1.379914695998    -0.544227686893    -0.002320602047
    CL           0.384336252518     2.034024869967    -0.057231608612
    H           -0.280502320244     0.114565546941    -1.174215058070
    F            1.265462840429    -1.408783669240     0.968583500642
    F            2.439337985156     0.179525822201     0.227618144827
    F            1.590667621561    -1.214585827601    -1.115774879388

  Mulliken Charges: (a.u.)
   Center  Symbol    Alpha    Beta     Spin     Total
       1     H     0.45161  0.45161  0.00000  0.09677
       2     C     2.73857  2.73857  0.00000  0.52286
       3     O     4.14965  4.14965  0.00000 -0.29929
       4     F     4.61882  4.61882  0.00000 -0.23764
       5     F     4.61555  4.61555  0.00000 -0.23110
       6     C     2.96455  2.96455  0.00000  0.07090
       7     C     2.66088  2.66088  0.00000  0.67823
       8    CL     8.56848  8.56848  0.00000 -0.13696
       9     H     0.43161  0.43161  0.00000  0.13679
      10     F     4.59765  4.59765  0.00000 -0.19531
      11     F     4.59531  4.59531  0.00000 -0.19062
      12     F     4.60731  4.60731  0.00000 -0.21462

   Total alpha = 45.00000, Total beta = 45.00000, Total charge = -0.00000
