                              Psi4 1.0.54 Driver

  ==> Input File <==

--------------------------------------------------------------------------
set {
	reference rhf
	basis cc-pvtz
}

set_num_threads( 4 )
memory 2 gb

molecule MOL {
0 1

H	 -3.144994	 -1.202467	 -0.018751
O	 -2.321472	 -0.864941	 -0.318626
C	 -2.021813	 0.336996	 0.342658
C	 -0.669613	 0.837286	 -0.127252
H	 -2.780861	 1.084746	 0.127159
H	 -2.006390	 0.184138	 1.420053
C	 0.490865	 -0.082543	 0.241244
H	 -0.708709	 0.967192	 -1.204587
H	 -0.507562	 1.822272	 0.303070
C	 1.839800	 0.429565	 -0.255472
H	 0.305636	 -1.070211	 -0.165276
H	 0.527397	 -0.195943	 1.322876
C	 2.350175	 -0.321928	 -1.480446
H	 1.756088	 1.486845	 -0.491806
H	 2.572555	 0.353857	 0.543921
H	 1.655196	 -0.235316	 -2.308950
H	 3.307531	 0.065939	 -1.809587
H	 2.477291	 -1.378183	 -1.266878

	symmetry c1
}
set optking {
	frozen_dihedral = ("
		14 10 7 11
	")
}

ee,wfn = optimize('scf', return_wfn=True)
oeprop( wfn, 'DIPOLE', 'QUADRUPOLE', 'MULLIKEN_CHARGES')
f=open( 'psi4out.xyz', 'w' )
f.write( "18  " )
f.write( str(ee) + "\n" )
f.write( MOL.save_string_xyz() )
f.close()
--------------------------------------------------------------------------

    Molecular point group: c1
  Charge       = 0
  Multiplicity = 1
  Basis Set: CC-PVTZ
  Basis Set:
  @DF-RHF Final Energy:  -271.28183682636063
    Total Energy =                       -271.2818368263607454
    Molecular point group: c1
  Basis Set: CC-PVTZ
  Basis Set:
  Basis Set: CC-PVTZ
  Basis Set:
  @DF-RHF Final Energy:  -271.28213324175010
    Total Energy =                       -271.2821332417505573
  Basis Set: CC-PVTZ
  Basis Set:
  Basis Set: CC-PVTZ
  Basis Set:
  @DF-RHF Final Energy:  -271.28222040752644
    Total Energy =                       -271.2822204075263244
  Basis Set: CC-PVTZ
  Basis Set:
  Basis Set: CC-PVTZ
  Basis Set:
  @DF-RHF Final Energy:  -271.28222141465710
    Total Energy =                       -271.2822214146572151
  Basis Set: CC-PVTZ
  Basis Set:
  Charge       = 0
  Multiplicity = 1
  Basis Set: CC-PVTZ
  Basis Set:

    Orbital Energies (a.u.)
    -----------------------

    Doubly Occupied:

       1A    -20.546464     2A    -11.265841     3A    -11.210770
       4A    -11.208827     5A    -11.204766     6A    -11.201606
       7A     -1.364285     8A     -1.074874     9A     -1.008127
      10A     -0.913438    11A     -0.822836    12A     -0.781132
      13A     -0.707834    14A     -0.641491    15A     -0.618876
      16A     -0.595816    17A     -0.570326    18A     -0.560045
      19A     -0.511020    20A     -0.504767    21A     -0.499416
      22A     -0.464879    23A     -0.454423    24A     -0.448775
      25A     -0.430375

  @DF-RHF Final Energy:  -271.28222164675026

   => Energetics <=

    Nuclear Repulsion Energy =            251.2737493724238504
    One-Electron Energy =                -865.8899295925502884
    Two-Electron Energy =                 343.3339585733761510
    DFT Exchange-Correlation Energy =       0.0000000000000000
    Empirical Dispersion Energy =           0.0000000000000000
    PCM Polarization Energy =               0.0000000000000000
    EFP Energy =                            0.0000000000000000
    Total Energy =                       -271.2822216467503154
    Molecular point group: c1
  Basis Set: CC-PVTZ
  Basis Set:

  -Total Gradient:
     Atom            X                  Y                   Z
    ------   -----------------  -----------------  -----------------
       1        0.000000560036     0.000000669311    -0.000002346172
       2        0.000000722798    -0.000002816994     0.000005033466
       3       -0.000016578795     0.000006187268    -0.000008471118
       4        0.000016547522    -0.000004748298     0.000017725085
       5       -0.000009341226    -0.000001623049     0.000002214023
       6        0.000001335995     0.000001505374    -0.000000707052
       7        0.001508633309    -0.001686538971     0.002276465856
       8        0.000002871962    -0.000001723430     0.000005292222
       9       -0.000001606552     0.000003642491    -0.000000337240
      10        0.000703017709     0.001169681679     0.002896540386
      11       -0.001372683722     0.001228663915    -0.002385049223
      12        0.000008543965     0.000014388727    -0.000010612087
      13        0.000001346787     0.000013575738     0.000006525479
      14       -0.000840719042    -0.000728106500    -0.002795167119
      15       -0.000010782346    -0.000008976857     0.000001095623
      16       -0.000004420895    -0.000003459499     0.000000848761
      17        0.000011282002     0.000000700641    -0.000011733033
      18        0.000001270486    -0.000001021548     0.000002682143

  **** Optimization is complete! (in 5 steps) ****
    Final optimized geometry and variables:
    Molecular point group: c1

    Geometry (in Angstrom), charge = 0, multiplicity = 1:

    H           -3.018958845625    -1.241962026508     0.196774956308
    O           -2.191932496718    -0.895461428985    -0.082229069835
    C           -1.914495952580     0.301388544566     0.597857689075
    C           -0.555400059363     0.814773965750     0.163622966669
    H           -2.673436778992     1.046611400695     0.373332670141
    H           -1.921857014638     0.137469986168     1.673775397316
    C            0.605894747285    -0.096668950143     0.560525465841
    H           -0.568934853760     0.946850379486    -0.914294811740
    H           -0.411889588731     1.799835332502     0.599615959418
    C            1.963552906549     0.398017700932     0.028899808630
    H            0.400237602079    -1.086137372733     0.171469747002
    H            0.632478960393    -0.178210550695     1.642678951249
    C            2.428232069143    -0.353597856418    -1.217107121252
    H            1.892843740835     1.452518612032    -0.220589240529
    H            2.722330772633     0.309427857710     0.798282603065
    H            1.692594983277    -0.286649953299    -2.011863512847
    H            3.361333510249     0.049421923931    -1.595153490563
    H            2.582929284702    -1.405387534860    -1.002113714776

  Mulliken Charges: (a.u.)
   Center  Symbol    Alpha    Beta     Spin     Total
       1     H     0.39571  0.39571  0.00000  0.20858
       2     O     4.19835  4.19835  0.00000 -0.39669
       3     C     2.97379  2.97379  0.00000  0.05241
       4     C     3.09157  3.09157  0.00000 -0.18313
       5     H     0.46521  0.46521  0.00000  0.06957
       6     H     0.47361  0.47361  0.00000  0.05279
       7     C     3.09562  3.09562  0.00000 -0.19124
       8     H     0.45195  0.45195  0.00000  0.09609
       9     H     0.45339  0.45339  0.00000  0.09322
      10     C     3.08980  3.08980  0.00000 -0.17959
      11     H     0.44583  0.44583  0.00000  0.10834
      12     H     0.45260  0.45260  0.00000  0.09480
      13     C     3.14712  3.14712  0.00000 -0.29424
      14     H     0.45690  0.45690  0.00000  0.08619
      15     H     0.44909  0.44909  0.00000  0.10181
      16     H     0.45360  0.45360  0.00000  0.09280
      17     H     0.45085  0.45085  0.00000  0.09831
      18     H     0.45502  0.45502  0.00000  0.08996

   Total alpha = 25.00000, Total beta = 25.00000, Total charge =  0.00000

*** Psi4 exiting successfully. Buy a developer a beer!
