  ==> Input File <==

--------------------------------------------------------------------------
set {
	reference rhf
	basis 6-31G*
}

set_num_threads( 1 )
memory 2 gb

molecule MOL {
0 1

H	 1.166481	 0.555191	 1.836870
O	 1.367178	 0.059544	 1.054624
C	 0.709265	 0.639550	 -0.033818
C	 -0.793441	 0.596080	 0.058728
H	 1.036030	 0.092806	 -0.911029
H	 1.028720	 1.671709	 -0.173898
C	 -1.530462	 -0.493172	 -0.025500
H	 -1.268471	 1.554324	 0.202247
H	 -1.092586	 -1.461565	 -0.186463
H	 -2.602122	 -0.450675	 0.050101

	symmetry c1
}
set optking {
	frozen_dihedral = ("
		5 3 2 1,
		3 4 7 9
	")
}

ee = energy('scf')
oeprop('DIPOLE', 'QUADRUPOLE', 'MULLIKEN_CHARGES')
f=open( 'psi4out.xyz', 'w' )
f.write( "10  " )
f.write( str(ee) + "\n" )
f.write( MOL.save_string_xyz() )
f.close()
--------------------------------------------------------------------------

    Molecular point group: c1

    Geometry (in Angstrom), charge = 0, multiplicity = 1:

       Center              X                  Y                   Z               Mass
    ------------   -----------------  -----------------  -----------------  -----------------
           H          1.153615478992     0.351216880558     1.532162898956     1.007825032070
           O          1.354312478992    -0.144430119442     0.749916898956    15.994914619560
           C          0.696399478992     0.435575880558    -0.338525101044    12.000000000000
           C         -0.806306521008     0.392105880558    -0.245979101044    12.000000000000
           H          1.023164478992    -0.111168119442    -1.215736101044     1.007825032070
           H          1.015854478992     1.467734880558    -0.478605101044     1.007825032070
           C         -1.543327521008    -0.697146119442    -0.330207101044    12.000000000000
           H         -1.281336521008     1.350349880558    -0.102460101044     1.007825032070
           H         -1.105451521008    -1.665539119442    -0.491170101044     1.007825032070
           H         -2.614987521008    -0.654649119442    -0.254606101044     1.007825032070

  Charge       = 0
  Multiplicity = 1
  Basis Set: 6-31G*
  Basis Set:

    Orbital Energies (a.u.)
    -----------------------

    Doubly Occupied:

       1A    -20.555725     2A    -11.273691     3A    -11.227542
       4A    -11.224806     5A     -1.364440     6A     -1.059230
       7A     -0.922023     8A     -0.775866     9A     -0.683578
      10A     -0.654333    11A     -0.608885    12A     -0.577856
      13A     -0.546895    14A     -0.475481    15A     -0.440971
      16A     -0.370089

  @DF-RHF Final Energy:  -191.91179270864632

   => Energetics <=

    Nuclear Repulsion Energy =            118.1842905818946150
    One-Electron Energy =                -494.6693397539878561
    Two-Electron Energy =                 184.5732564634468531
    DFT Exchange-Correlation Energy =       0.0000000000000000
    Empirical Dispersion Energy =           0.0000000000000000
    PCM Polarization Energy =               0.0000000000000000
    EFP Energy =                            0.0000000000000000
    Total Energy =                       -191.9117927086463737

  Mulliken Charges: (a.u.)
   Center  Symbol    Alpha    Beta     Spin     Total
       1     H     0.28295  0.28295  0.00000  0.43410
       2     O     4.36263  4.36263  0.00000 -0.72526
       3     C     3.00591  3.00591  0.00000 -0.01182
       4     C     3.10086  3.10086  0.00000 -0.20173
       5     H     0.41051  0.41051  0.00000  0.17899
       6     H     0.42831  0.42831  0.00000  0.14338
       7     C     3.18199  3.18199  0.00000 -0.36398
       8     H     0.41066  0.41066  0.00000  0.17868
       9     H     0.40641  0.40641  0.00000  0.18717
      10     H     0.40977  0.40977  0.00000  0.18046

   Total alpha = 16.00000, Total beta = 16.00000, Total charge =  0.00000
