  ==> Input File <==

--------------------------------------------------------------------------
set {
	reference rhf
	basis 6-31G*
}

set_num_threads( 1 )
memory 2 gb

molecule MOL {
0 1

O	 3.225979	 0.970355	 -0.599647
C	 2.701189	 0.057885	 -0.047330
C	 1.245376	 -0.013843	 0.345420
O	 3.347903	 -1.046386	 0.304773
C	 0.455112	 1.231400	 -0.050772
H	 0.838542	 -0.913825	 -0.103701
H	 1.208210	 -0.175333	 1.419774
C	 -0.998893	 1.219485	 0.433193
H	 0.482531	 1.345121	 -1.130325
H	 0.957290	 2.103070	 0.354729
C	 -1.425053	 -0.056430	 1.164999
H	 -1.643099	 1.355045	 -0.432455
H	 -1.173857	 2.080419	 1.076768
C	 -2.910908	 -0.064921	 1.529914
H	 -1.203874	 -0.919055	 0.538280
H	 -0.839798	 -0.180639	 2.073306
C	 -3.346966	 -1.332910	 2.266248
H	 -3.504473	 0.045634	 0.623993
H	 -3.134936	 0.803284	 2.147756
C	 -4.832889	 -1.335137	 2.623640
H	 -3.122898	 -2.201532	 1.650673
H	 -2.757778	 -1.442825	 3.174299
H	 -5.111279	 -2.246153	 3.144368
H	 -5.450429	 -1.261555	 1.732897
H	 -5.082505	 -0.496632	 3.267748
C	 4.728119	 -1.109107	 -0.004993
H	 4.882018	 -1.033965	 -1.071845
H	 5.068212	 -2.067527	 0.355250
H	 5.265056	 -0.311663	 0.488280

	symmetry c1
}
set optking {
	frozen_dihedral = ("
		21 17 14 11,
		17 14 11 15,
		15 11 8 5,
		6 3 5 9,
		2 4 26 27,
		1 2 4 26,
		6 3 2 1
	")
}

ee = energy('scf')
oeprop('DIPOLE', 'QUADRUPOLE', 'MULLIKEN_CHARGES')
f=open( 'psi4out.xyz', 'w' )
f.write( "29  " )
f.write( str(ee) + "\n" )
f.write( MOL.save_string_xyz() )
f.close()
--------------------------------------------------------------------------

    Molecular point group: c1

    Geometry (in Angstrom), charge = 0, multiplicity = 1:

       Center              X                  Y                   Z               Mass
    ------------   -----------------  -----------------  -----------------  -----------------
           O          2.985073314306     1.119727379433    -1.319736475640    15.994914619560
           C          2.460283314306     0.207257379433    -0.767419475640    12.000000000000
           C          1.004470314306     0.135529379433    -0.374669475640    12.000000000000
           O          3.106997314306    -0.897013620567    -0.415316475640    15.994914619560
           C          0.214206314306     1.380772379433    -0.770861475640    12.000000000000
           H          0.597636314306    -0.764452620567    -0.823790475640     1.007825032070
           H          0.967304314306    -0.025960620567     0.699684524360     1.007825032070
           C         -1.239798685694     1.368857379433    -0.286896475640    12.000000000000
           H          0.241625314306     1.494493379433    -1.850414475640     1.007825032070
           H          0.716384314306     2.252442379433    -0.365360475640     1.007825032070
           C         -1.665958685694     0.092942379433     0.444909524360    12.000000000000
           H         -1.884004685694     1.504417379433    -1.152544475640     1.007825032070
           H         -1.414762685694     2.229791379433     0.356678524360     1.007825032070
           C         -3.151813685694     0.084451379433     0.809824524360    12.000000000000
           H         -1.444779685694    -0.769682620567    -0.181809475640     1.007825032070
           H         -1.080703685694    -0.031266620567     1.353216524360     1.007825032070
           C         -3.587871685694    -1.183537620567     1.546158524360    12.000000000000
           H         -3.745378685694     0.195006379433    -0.096096475640     1.007825032070
           H         -3.375841685694     0.952656379433     1.427666524360     1.007825032070
           C         -5.073794685694    -1.185764620567     1.903550524360    12.000000000000
           H         -3.363803685694    -2.052159620567     0.930583524360     1.007825032070
           H         -2.998683685694    -1.293452620567     2.454209524360     1.007825032070
           H         -5.352184685694    -2.096780620567     2.424278524360     1.007825032070
           H         -5.691334685694    -1.112182620567     1.012807524360     1.007825032070
           H         -5.323410685694    -0.347259620567     2.547658524360     1.007825032070
           C          4.487213314306    -0.959734620567    -0.725082475640    12.000000000000
           H          4.641112314306    -0.884592620567    -1.791934475640     1.007825032070
           H          4.827306314306    -1.918154620567    -0.364839475640     1.007825032070
           H          5.024150314306    -0.162290620567    -0.231809475640     1.007825032070

  Charge       = 0
  Multiplicity = 1
  Basis Set: 6-31G*
  Basis Set:

    Orbital Energies (a.u.)
    -----------------------

    Doubly Occupied:

       1A    -20.602748     2A    -20.544135     3A    -11.370717
       4A    -11.280270     5A    -11.233638     6A    -11.217464
       7A    -11.216878     8A    -11.216142     9A    -11.215878
      10A    -11.214375    11A    -11.209296    12A     -1.468293
      13A     -1.361637    14A     -1.100297    15A     -1.065888
      16A     -1.017842    17A     -0.976279    18A     -0.929196
      19A     -0.866135    20A     -0.798530    21A     -0.792287
      22A     -0.756911    23A     -0.698543    24A     -0.683766
      25A     -0.669782    26A     -0.659323    27A     -0.629611
      28A     -0.603784    29A     -0.588576    30A     -0.578794
      31A     -0.568849    32A     -0.554794    33A     -0.531296
      34A     -0.524579    35A     -0.521943    36A     -0.511794
      37A     -0.503252    38A     -0.480225    39A     -0.467592
      40A     -0.459863    41A     -0.456411    42A     -0.447222
      43A     -0.439506    44A     -0.436188

  @DF-RHF Final Energy:  -501.03319924018160

   => Energetics <=

    Nuclear Repulsion Energy =            616.6365392253476330
    One-Electron Energy =               -1904.3982659995847371
    Two-Electron Energy =                 786.7285275340550470
    DFT Exchange-Correlation Energy =       0.0000000000000000
    Empirical Dispersion Energy =           0.0000000000000000
    PCM Polarization Energy =               0.0000000000000000
    EFP Energy =                            0.0000000000000000
    Total Energy =                       -501.0331992401820571

  Mulliken Charges: (a.u.)
   Center  Symbol    Alpha    Beta     Spin     Total
       1     O     4.28614  4.28614  0.00000 -0.57227
       2     C     2.60277  2.60277  0.00000  0.79445
       3     C     3.21554  3.21554  0.00000 -0.43107
       4     O     4.30746  4.30746  0.00000 -0.61492
       5     C     3.15560  3.15560  0.00000 -0.31119
       6     H     0.39913  0.39913  0.00000  0.20173
       7     H     0.39914  0.39914  0.00000  0.20172
       8     C     3.15716  3.15716  0.00000 -0.31431
       9     H     0.41038  0.41038  0.00000  0.17924
      10     H     0.40821  0.40821  0.00000  0.18358
      11     C     3.15998  3.15998  0.00000 -0.31997
      12     H     0.41920  0.41920  0.00000  0.16161
      13     H     0.41864  0.41864  0.00000  0.16272
      14     C     3.14801  3.14801  0.00000 -0.29602
      15     H     0.42322  0.42322  0.00000  0.15356
      16     H     0.42279  0.42279  0.00000  0.15441
      17     C     3.15144  3.15144  0.00000 -0.30289
      18     H     0.42366  0.42366  0.00000  0.15268
      19     H     0.42368  0.42368  0.00000  0.15264
      20     C     3.23933  3.23933  0.00000 -0.47865
      21     H     0.42334  0.42334  0.00000  0.15331
      22     H     0.42339  0.42339  0.00000  0.15322
      23     H     0.41925  0.41925  0.00000  0.16150
      24     H     0.42164  0.42164  0.00000  0.15671
      25     H     0.42163  0.42163  0.00000  0.15674
      26     C     3.09227  3.09227  0.00000 -0.18453
      27     H     0.40918  0.40918  0.00000  0.18164
      28     H     0.40859  0.40859  0.00000  0.18281
      29     H     0.40923  0.40923  0.00000  0.18155

   Total alpha = 44.00000, Total beta = 44.00000, Total charge =  0.00000
