                              Psi4 1.0.54 Driver

  ==> Input File <==

--------------------------------------------------------------------------
set {
	reference rhf
	basis cc-pvtz
}

set_num_threads( 4 )
memory 2 gb

molecule MOL {
0 1

H	 -2.698799	 -0.000846	 0.036018
C	 -1.694291	 -0.000483	 0.434279
O	 -0.828718	 -0.000608	 -0.655022
H	 -1.576855	 0.881100	 1.056504
H	 -1.576401	 -0.881658	 1.057001
C	 0.557892	 0.000078	 -0.420099
C	 1.346564	 0.614601	 -1.571025
C	 0.923538	 0.615547	 0.925914
H	 0.802304	 -1.054025	 -0.378293
H	 1.035624	 0.182395	 -2.514197
H	 2.404036	 0.417292	 -1.438484
H	 1.219761	 1.689483	 -1.626999
H	 0.319299	 0.183949	 1.714369
H	 1.965672	 0.418378	 1.149197
H	 0.785406	 1.690421	 0.936219

	symmetry c1
}
set optking {
	frozen_dihedral = ("
		9 6 3 2
	")
}

ee,wfn = optimize('scf', return_wfn=True)
oeprop( wfn, 'DIPOLE', 'QUADRUPOLE', 'MULLIKEN_CHARGES')
f=open( 'psi4out.xyz', 'w' )
f.write( "15  " )
f.write( str(ee) + "\n" )
f.write( MOL.save_string_xyz() )
f.close()
--------------------------------------------------------------------------

    Molecular point group: c1
  Charge       = 0
  Multiplicity = 1
  Basis Set: CC-PVTZ
  Basis Set:
  @DF-RHF Final Energy:  -232.22020003542298
    Total Energy =                       -232.2202000354229199
    Molecular point group: c1
  Basis Set: CC-PVTZ
  Basis Set:
  Basis Set: CC-PVTZ
  Basis Set:
  @DF-RHF Final Energy:  -231.55305656254419
    Total Energy =                       -231.5530565625441000
  Basis Set: CC-PVTZ
  Basis Set:
  Basis Set: CC-PVTZ
  Basis Set:
  @DF-RHF Final Energy:  -231.73845610194610
    Total Energy =                       -231.7384561019462126
  Basis Set: CC-PVTZ
  Basis Set:
  Basis Set: CC-PVTZ
  Basis Set:
  @DF-RHF Final Energy:  -232.04106737695011
    Total Energy =                       -232.0410673769501386
  Basis Set: CC-PVTZ
  Basis Set:
  @DF-RHF Final Energy:  -232.20684584871108
    Total Energy =                       -232.2068458487109410
  @DF-RHF Final Energy:  -232.22441699802300
    Total Energy =                       -232.2244169980228321
  @DF-RHF Final Energy:  -232.22542188513802
    Total Energy =                       -232.2254218851380188
  Basis Set: CC-PVTZ
  Basis Set:
  @DF-RHF Final Energy:  -232.22544950049505
    Total Energy =                       -232.2254495004953014
  Basis Set: CC-PVTZ
  Basis Set:
  Basis Set: CC-PVTZ
  Basis Set:
  @DF-RHF Final Energy:  -232.22549055908402
    Total Energy =                       -232.2254905590841076
  Basis Set: CC-PVTZ
  Basis Set:
  Basis Set: CC-PVTZ
  Basis Set:
  @DF-RHF Final Energy:  -232.22549212164691
    Total Energy =                       -232.2254921216471075
  Basis Set: CC-PVTZ
  Basis Set:
  Charge       = 0
  Multiplicity = 1
  Basis Set: CC-PVTZ
  Basis Set:

    Orbital Energies (a.u.)
    -----------------------

    Doubly Occupied:

       1A    -20.541889     2A    -11.273175     3A    -11.259880
       4A    -11.212439     5A    -11.203281     6A     -1.373858
       7A     -1.054324     8A     -0.949940     9A     -0.913505
      10A     -0.786078    11A     -0.678080    12A     -0.642797
      13A     -0.632758    14A     -0.592925    15A     -0.550948
      16A     -0.543078    17A     -0.526332    18A     -0.502694
      19A     -0.495552    20A     -0.450934    21A     -0.406463

  @DF-RHF Final Energy:  -232.22549237987269

   => Energetics <=

    Nuclear Repulsion Energy =            198.1555351314546840
    One-Electron Energy =                -707.5801942634095667
    Two-Electron Energy =                 277.1991667520821920
    DFT Exchange-Correlation Energy =       0.0000000000000000
    Empirical Dispersion Energy =           0.0000000000000000
    PCM Polarization Energy =               0.0000000000000000
    EFP Energy =                            0.0000000000000000
    Total Energy =                       -232.2254923798726622
    Molecular point group: c1
  Basis Set: CC-PVTZ
  Basis Set:

  -Total Gradient:
     Atom            X                  Y                   Z
    ------   -----------------  -----------------  -----------------
       1       -0.000017999526     0.000021949565    -0.000019341180
       2        0.001989757049     0.003285295896     0.002145481677
       3       -0.002277200826    -0.004693778597    -0.004137506705
       4        0.000007344557     0.000008721501    -0.000000464060
       5       -0.000010708560    -0.000026445698     0.000003170093
       6       -0.002628649466     0.000616575441     0.006064764681
       7        0.000026546333     0.000003137541    -0.000013472483
       8       -0.000043070458    -0.000051234472     0.000019410202
       9        0.002927357923     0.000821896378    -0.004044601174
      10        0.000004993977     0.000011703199    -0.000042801470
      11        0.000008395932    -0.000016644273     0.000006703901
      12        0.000002723592     0.000015811681     0.000014903063
      13       -0.000012319648    -0.000002619621     0.000017073904
      14        0.000012004951    -0.000010978989    -0.000002243991
      15        0.000010824168     0.000016610447    -0.000011076458

  **** Optimization is complete! (in 11 steps) ****
    Final optimized geometry and variables:
    Molecular point group: c1

    Geometry (in Angstrom), charge = 0, multiplicity = 1:

    H           -2.384466978847     1.305250645338    -0.513638827813
    C           -1.769693600100     0.653926402850     0.091305963425
    O           -0.606295175390     0.413996580697    -0.629468687791
    H           -1.577464540061     1.147674286144     1.037449013381
    H           -2.329509419081    -0.259056283483     0.284173453321
    C            0.348094543164    -0.491447647778    -0.128702650189
    C            1.674445021481    -0.087941788798    -0.754302374929
    C            0.447487784915    -0.546765826154     1.389308990327
    H            0.103693543723    -1.481775182199    -0.512485730560
    H            1.574148923803    -0.029217389046    -1.830321531213
    H            2.446987813423    -0.811244211585    -0.518981899220
    H            1.986379283805     0.884130086699    -0.389721240743
    H           -0.466155104615    -0.894500029529     1.853176033329
    H            1.236631456016    -1.235515387361     1.665477605787
    H            0.693345456615     0.426575433536     1.799358953229

  Mulliken Charges: (a.u.)
   Center  Symbol    Alpha    Beta     Spin     Total
       1     H     0.44304  0.44304  0.00000  0.11392
       2     C     3.03895  3.03895  0.00000 -0.07791
       3     O     4.18342  4.18342  0.00000 -0.36683
       4     H     0.46862  0.46862  0.00000  0.06275
       5     H     0.47132  0.47132  0.00000  0.05737
       6     C     2.92139  2.92139  0.00000  0.15723
       7     C     3.13981  3.13981  0.00000 -0.27963
       8     C     3.16855  3.16855  0.00000 -0.33711
       9     H     0.46191  0.46191  0.00000  0.07618
      10     H     0.44596  0.44596  0.00000  0.10808
      11     H     0.46000  0.46000  0.00000  0.07999
      12     H     0.45627  0.45627  0.00000  0.08746
      13     H     0.44582  0.44582  0.00000  0.10836
      14     H     0.44483  0.44483  0.00000  0.11035
      15     H     0.45011  0.45011  0.00000  0.09977

   Total alpha = 21.00000, Total beta = 21.00000, Total charge =  0.00000

*** Psi4 exiting successfully. Buy a developer a beer!
