                              Psi4 1.0.54 Driver

  ==> Input File <==

--------------------------------------------------------------------------
set {
	reference rhf
	basis cc-pvtz
}

set_num_threads( 4 )
memory 2 gb

molecule MOL {
0 1

H	 1.337344	 -2.271324	 2.666344
O	 1.389443	 -1.959570	 1.775394
C	 0.599211	 -0.896299	 1.655310
C	 0.626018	 -0.337582	 0.258241
O	 -0.030143	 -0.475712	 2.563529
C	 -0.267326	 0.883135	 0.076490
H	 1.662638	 -0.122594	 0.027897
H	 0.333632	 -1.141002	 -0.410682
C	 -1.726822	 0.642622	 0.463839
H	 -0.210803	 1.217591	 -0.953497
H	 0.129920	 1.693110	 0.675679
C	 -2.480891	 -0.340606	 -0.429852
H	 -2.243098	 1.597649	 0.438609
H	 -1.776542	 0.301208	 1.495542
C	 -3.955933	 -0.460128	 -0.060472
H	 -2.393755	 -0.020485	 -1.464726
H	 -2.024244	 -1.323637	 -0.374360
H	 -4.467673	 -1.160944	 -0.709827
H	 -4.458917	 0.497287	 -0.144505
H	 -4.076458	 -0.806900	 0.960497

	symmetry c1
}
set optking {
	frozen_dihedral = ("
		7 4 6 10
	")
}

ee,wfn = optimize('scf', return_wfn=True)
oeprop( wfn, 'DIPOLE', 'QUADRUPOLE', 'MULLIKEN_CHARGES')
f=open( 'psi4out.xyz', 'w' )
f.write( "20  " )
f.write( str(ee) + "\n" )
f.write( MOL.save_string_xyz() )
f.close()
--------------------------------------------------------------------------

    Molecular point group: c1
  Charge       = 0
  Multiplicity = 1
  Basis Set: CC-PVTZ
  Basis Set:
  @DF-RHF Final Energy:  -384.09036192444916
    Total Energy =                       -384.0903619244494394
    Molecular point group: c1
  Basis Set: CC-PVTZ
  Basis Set:
  Basis Set: CC-PVTZ
  Basis Set:
  @DF-RHF Final Energy:  -384.09270598059845
    Total Energy =                       -384.0927059805983390
  Basis Set: CC-PVTZ
  Basis Set:
  Basis Set: CC-PVTZ
  Basis Set:
  @DF-RHF Final Energy:  -384.09182640795888
    Total Energy =                       -384.0918264079587061
  Basis Set: CC-PVTZ
  Basis Set:
  Basis Set: CC-PVTZ
  Basis Set:
  @DF-RHF Final Energy:  -384.09324262061813
    Total Energy =                       -384.0932426206185255
  Basis Set: CC-PVTZ
  Basis Set:
  @DF-RHF Final Energy:  -384.09360024583458
    Total Energy =                       -384.0936002458348639
  Basis Set: CC-PVTZ
  Basis Set:
  @DF-RHF Final Energy:  -384.09373280952485
    Total Energy =                       -384.0937328095251360
  Basis Set: CC-PVTZ
  Basis Set:
  Basis Set: CC-PVTZ
  Basis Set:
  @DF-RHF Final Energy:  -384.09378756972319
    Total Energy =                       -384.0937875697238724
  Basis Set: CC-PVTZ
  Basis Set:
  Basis Set: CC-PVTZ
  Basis Set:
  @DF-RHF Final Energy:  -384.09379813450528
    Total Energy =                       -384.0937981345052776
  Basis Set: CC-PVTZ
  Basis Set:
  Charge       = 0
  Multiplicity = 1
  Basis Set: CC-PVTZ
  Basis Set:

    Orbital Energies (a.u.)
    -----------------------

    Doubly Occupied:

       1A    -20.605349     2A    -20.540211     3A    -11.374192
       4A    -11.238998     5A    -11.223169     6A    -11.215796
       7A    -11.211858     8A    -11.207626     9A     -1.478454
      10A     -1.369421    11A     -1.095233    12A     -1.039829
      13A     -0.959705    14A     -0.872556    15A     -0.817644
      16A     -0.774329    17A     -0.706044    18A     -0.688794
      19A     -0.665654    20A     -0.634815    21A     -0.606667
      22A     -0.594080    23A     -0.576111    24A     -0.557145
      25A     -0.534771    26A     -0.514761    27A     -0.500633
      28A     -0.486153    29A     -0.469144    30A     -0.464450
      31A     -0.454798    32A     -0.441842

  @DF-RHF Final Energy:  -384.09379901117626

   => Energetics <=

    Nuclear Repulsion Energy =            387.7396529445529154
    One-Electron Energy =               -1291.8264414928576116
    Two-Electron Energy =                 519.9929895371283237
    DFT Exchange-Correlation Energy =       0.0000000000000000
    Empirical Dispersion Energy =           0.0000000000000000
    PCM Polarization Energy =               0.0000000000000000
    EFP Energy =                            0.0000000000000000
    Total Energy =                       -384.0937990111763156
    Molecular point group: c1
  Basis Set: CC-PVTZ
  Basis Set:

  -Total Gradient:
     Atom            X                  Y                   Z
    ------   -----------------  -----------------  -----------------
       1       -0.000005790556     0.000020654651    -0.000044849635
       2        0.000014909501    -0.000053593994    -0.000019234405
       3        0.000040922925    -0.000008829352     0.000030474406
       4       -0.000821918737    -0.001029778604    -0.002616230794
       5       -0.000044594020     0.000080131165    -0.000016372989
       6        0.002110418390     0.001672781290     0.001089686583
       7        0.000362061190     0.000617091524     0.002039293894
       8        0.000020403892     0.000006653074     0.000018378985
       9        0.000024943548     0.000000059218    -0.000026864402
      10       -0.001659220852    -0.001255432946    -0.000461813091
      11        0.000019995991    -0.000020728679    -0.000004738129
      12       -0.000050580573    -0.000003635691     0.000000426822
      13       -0.000004639789    -0.000023992087     0.000008547789
      14        0.000010135084    -0.000002814405     0.000006355800
      15       -0.000005696062    -0.000014620814    -0.000014395812
      16        0.000005379150     0.000000351804     0.000026570419
      17       -0.000021729878     0.000015347869    -0.000005656079
      18       -0.000008407006     0.000006042732     0.000003618825
      19        0.000008085357    -0.000010376243     0.000004559095
      20        0.000005322447     0.000004689481    -0.000017757280

  **** Optimization is complete! (in 9 steps) ****
    Final optimized geometry and variables:
    Molecular point group: c1

    Geometry (in Angstrom), charge = 0, multiplicity = 1:

    H            1.797069043622    -1.960805041237     1.935997716443
    O            1.746501566160    -1.740231217611     1.017936975827
    C            1.351935123898    -0.475078696753     0.911616775858
    C            1.314120366528    -0.014556205617    -0.522577519797
    O            1.107650476212     0.187986819127     1.860364436106
    C            0.450809126023     1.221841628323    -0.765061043205
    H            2.349870234725     0.211486718028    -0.761839682432
    H            1.029742429271    -0.849036853170    -1.147384280316
    C           -1.038861414892     1.064067231500    -0.446941873996
    H            0.549317370711     1.485133524656    -1.813947244769
    H            0.849672315164     2.045382331161    -0.187064350958
    C           -1.770440564286     0.027320339254    -1.298277833645
    H           -1.511372954180     2.030458557606    -0.597731005038
    H           -1.164866355059     0.828334983114     0.603510444496
    C           -3.269788526937    -0.008435403674    -1.019722586368
    H           -1.605418142523     0.242460977003    -2.351108958729
    H           -1.358139473153    -0.961361728493    -1.121085923589
    H           -3.765529598197    -0.753952675019    -1.630772727901
    H           -3.729303736726     0.951408988611    -1.230149966332
    H           -3.467789062546    -0.247050715344     0.019765055804

  Mulliken Charges: (a.u.)
   Center  Symbol    Alpha    Beta     Spin     Total
       1     H     0.38162  0.38162  0.00000  0.23676
       2     O     4.16026  4.16026  0.00000 -0.32053
       3     C     2.80017  2.80017  0.00000  0.39966
       4     C     3.12494  3.12494  0.00000 -0.24988
       5     O     4.19506  4.19506  0.00000 -0.39013
       6     C     3.09607  3.09607  0.00000 -0.19214
       7     H     0.42983  0.42983  0.00000  0.14033
       8     H     0.43196  0.43196  0.00000  0.13609
       9     C     3.10638  3.10638  0.00000 -0.21275
      10     H     0.44605  0.44605  0.00000  0.10791
      11     H     0.43966  0.43966  0.00000  0.12068
      12     C     3.08645  3.08645  0.00000 -0.17291
      13     H     0.44668  0.44668  0.00000  0.10665
      14     H     0.43938  0.43938  0.00000  0.12124
      15     C     3.14932  3.14932  0.00000 -0.29863
      16     H     0.45454  0.45454  0.00000  0.09092
      17     H     0.45539  0.45539  0.00000  0.08922
      18     H     0.44862  0.44862  0.00000  0.10275
      19     H     0.45426  0.45426  0.00000  0.09148
      20     H     0.45336  0.45336  0.00000  0.09328

   Total alpha = 32.00000, Total beta = 32.00000, Total charge =  0.00000

*** Psi4 exiting successfully. Buy a developer a beer!
