  ==> Input File <==

--------------------------------------------------------------------------
set {
	reference rhf
	basis 6-31G*
}

set_num_threads( 1 )
memory 2 gb

molecule MOL {
0 1

H	 -0.000158	 1.970498	 0.756846
O	 -0.000074	 1.880206	 -0.189275
C	 -0.000015	 0.544847	 -0.545111
C	 -1.278788	 -0.123820	 -0.051541
C	 1.278802	 -0.123718	 -0.051505
H	 -0.000001	 0.490777	 -1.623619
F	 -1.542871	 0.277080	 1.173647
F	 -2.316740	 0.165316	 -0.807461
F	 -1.141375	 -1.439879	 -0.025012
F	 2.323327	 0.466644	 -0.591854
F	 1.326242	 -1.401483	 -0.363667
F	 1.388946	 -0.015632	 1.262939

	symmetry c1
}
set optking {
	frozen_dihedral = ("
		6 3 2 1
	")
}

ee = energy('scf')
oeprop('DIPOLE', 'QUADRUPOLE', 'MULLIKEN_CHARGES')
f=open( 'psi4out.xyz', 'w' )
f.write( "12  " )
f.write( str(ee) + "\n" )
f.write( MOL.save_string_xyz() )
f.close()
--------------------------------------------------------------------------

    Molecular point group: c1

    Geometry (in Angstrom), charge = 0, multiplicity = 1:

       Center              X                  Y                   Z               Mass
    ------------   -----------------  -----------------  -----------------  -----------------
           H         -0.004393899039     1.975772008161     0.753016645330     1.007825032070
           O         -0.004309899039     1.885480008161    -0.193104354670    15.994914619560
           C         -0.004250899039     0.550121008161    -0.548940354670    12.000000000000
           C         -1.283023899039    -0.118545991839    -0.055370354670    12.000000000000
           C          1.274566100961    -0.118443991839    -0.055334354670    12.000000000000
           H         -0.004236899039     0.496051008161    -1.627448354670     1.007825032070
           F         -1.547106899039     0.282354008161     1.169817645330    18.998403224000
           F         -2.320975899039     0.170590008161    -0.811290354670    18.998403224000
           F         -1.145610899039    -1.434604991839    -0.028841354670    18.998403224000
           F          2.319091100961     0.471918008161    -0.595683354670    18.998403224000
           F          1.322006100961    -1.396208991839    -0.367496354670    18.998403224000
           F          1.384710100961    -0.010357991839     1.259109645330    18.998403224000

  Charge       = 0
  Multiplicity = 1
  Basis Set: 6-31G*
  Basis Set:

    Orbital Energies (a.u.)
    -----------------------

    Doubly Occupied:

       1A    -26.364565     2A    -26.363149     3A    -26.361940
       4A    -26.358954     5A    -26.358204     6A    -26.357861
       7A    -20.615805     8A    -11.526396     9A    -11.525410
      10A    -11.348695    11A     -1.765244    12A     -1.758528
      13A     -1.662328    14A     -1.659648    15A     -1.657241
      16A     -1.653128    17A     -1.434527    18A     -1.101680
      19A     -0.997030    20A     -0.938353    21A     -0.864751
      22A     -0.861957    23A     -0.851699    24A     -0.844284
      25A     -0.833135    26A     -0.816768    27A     -0.743445
      28A     -0.728349    29A     -0.724139    30A     -0.717783
      31A     -0.688970    32A     -0.687482    33A     -0.682693
      34A     -0.675068    35A     -0.667764    36A     -0.662454
      37A     -0.655433    38A     -0.651269    39A     -0.622011
      40A     -0.550489    41A     -0.505583

  @DF-RHF Final Energy:  -786.27575647320180

   => Energetics <=

    Nuclear Repulsion Energy =            671.4786783655355293
    One-Electron Energy =               -2429.8202530807384392
    Two-Electron Energy =                 972.0658182420014555
    DFT Exchange-Correlation Energy =       0.0000000000000000
    Empirical Dispersion Energy =           0.0000000000000000
    PCM Polarization Energy =               0.0000000000000000
    EFP Energy =                            0.0000000000000000
    Total Energy =                       -786.2757564732015680

  Mulliken Charges: (a.u.)
   Center  Symbol    Alpha    Beta     Spin     Total
       1     H     0.26479  0.26479  0.00000  0.47043
       2     O     4.36378  4.36378  0.00000 -0.72755
       3     C     3.05425  3.05425  0.00000 -0.10850
       4     C     2.43880  2.43880  0.00000  1.12241
       5     C     2.44453  2.44453  0.00000  1.11094
       6     H     0.37473  0.37473  0.00000  0.25053
       7     F     4.67836  4.67836  0.00000 -0.35673
       8     F     4.67436  4.67436  0.00000 -0.34872
       9     F     4.67723  4.67723  0.00000 -0.35445
      10     F     4.67496  4.67496  0.00000 -0.34992
      11     F     4.67323  4.67323  0.00000 -0.34646
      12     F     4.68098  4.68098  0.00000 -0.36195

   Total alpha = 41.00000, Total beta = 41.00000, Total charge =  0.00000
