  ==> Input File <==

--------------------------------------------------------------------------
set {
	reference rhf
	basis 6-31G*
}

set_num_threads( 4 )
memory 2 gb

molecule MOL {
0 1

O	 1.525560	 0.915694	 -0.859193
C	 1.705091	 0.115954	 0.001797
C	 0.833403	 -0.074920	 1.219005
O	 2.721346	 -0.737485	 -0.000216
C	 -0.353954	 0.881733	 1.270419
H	 0.505032	 -1.110710	 1.223975
H	 1.468080	 0.037848	 2.093755
C	 -1.219888	 0.665847	 2.512439
H	 -0.954546	 0.754655	 0.375249
H	 0.009423	 1.904337	 1.247067
C	 -2.416230	 1.616690	 2.579677
H	 -1.578246	 -0.362353	 2.531942
H	 -0.611400	 0.792300	 3.406661
C	 -3.280381	 1.401323	 3.821495
H	 -3.026506	 1.489776	 1.688276
H	 -2.059829	 2.644199	 2.561166
H	 -3.680471	 0.391729	 3.850849
H	 -4.119446	 2.089840	 3.840573
H	 -2.705932	 1.554894	 4.730745
C	 4.024888	 -0.184556	 -0.001949
H	 4.179030	 0.422472	 -0.882452
H	 4.701782	 -1.024608	 -0.003642
H	 4.181981	 0.421185	 0.878906

	symmetry c1
}
set optking {
	frozen_dihedral = ("
		1 2 4 20
	")
}

ee = optimize('scf')
oeprop('DIPOLE', 'QUADRUPOLE', 'MULLIKEN_CHARGES')
f=open( 'psi4out.xyz', 'w' )
f.write( "23  " )
f.write( str(ee) + "\n" )
f.write( MOL.save_string_xyz() )
f.close()
--------------------------------------------------------------------------

    Molecular point group: c1
  Charge       = 0
  Multiplicity = 1
  Basis Set: 6-31G*
  Basis Set:
  @DF-RHF Final Energy:  -422.96125090240275
    Total Energy =                       -422.9612509024029805
    Molecular point group: c1
  Basis Set: 6-31G*
  Basis Set:
  Basis Set: 6-31G*
  Basis Set:
  @DF-RHF Final Energy:  -422.95885917056671
    Total Energy =                       -422.9588591705668250
  Basis Set: 6-31G*
  Basis Set:
  Basis Set: 6-31G*
  Basis Set:
  @DF-RHF Final Energy:  -422.96212027754274
    Total Energy =                       -422.9621202775425672
  Basis Set: 6-31G*
  Basis Set:
  Basis Set: 6-31G*
  Basis Set:
  @DF-RHF Final Energy:  -422.96222344792420
    Total Energy =                       -422.9622234479239751
  Basis Set: 6-31G*
  Basis Set:
  Basis Set: 6-31G*
  Basis Set:
  @DF-RHF Final Energy:  -422.96222874988956
    Total Energy =                       -422.9622287498898459
  Basis Set: 6-31G*
  Basis Set:
  Charge       = 0
  Multiplicity = 1
  Basis Set: 6-31G*
  Basis Set:

    Orbital Energies (a.u.)
    -----------------------

    Doubly Occupied:

       1A    -20.589494     2A    -20.553782     3A    -11.374419
       4A    -11.287230     5A    -11.237332     6A    -11.220477
       7A    -11.219001     8A    -11.217322     9A    -11.210355
      10A     -1.460748    11A     -1.365344    12A     -1.093862
      13A     -1.042423    14A     -0.983310    15A     -0.936986
      16A     -0.847285    17A     -0.796104    18A     -0.764939
      19A     -0.695970    20A     -0.678271    21A     -0.672801
      22A     -0.649517    23A     -0.612679    24A     -0.605982
      25A     -0.576970    26A     -0.567475    27A     -0.553672
      28A     -0.531612    29A     -0.509206    30A     -0.506157
      31A     -0.486045    32A     -0.472450    33A     -0.468772
      34A     -0.466342    35A     -0.450733    36A     -0.431652

  @DF-RHF Final Energy:  -422.96222938033651

   => Energetics <=

    Nuclear Repulsion Energy =            451.6863792644253977
    One-Electron Energy =               -1471.0237786833240534
    Two-Electron Energy =                 596.3751700385628283
    DFT Exchange-Correlation Energy =       0.0000000000000000
    Empirical Dispersion Energy =           0.0000000000000000
    PCM Polarization Energy =               0.0000000000000000
    EFP Energy =                            0.0000000000000000
    Total Energy =                       -422.9622293803358843
    Molecular point group: c1
  Basis Set: 6-31G*
  Basis Set:

  -Total Gradient:
     Atom            X                  Y                   Z
    ------   -----------------  -----------------  -----------------
       1       -0.005371838915    -0.005620065713    -0.003984256998
       2        0.008109699269     0.008298492323     0.009159014951
       3        0.000058089092     0.000037623800    -0.000004524408
       4       -0.003190359838    -0.002773785358    -0.012036180641
       5       -0.000021848692    -0.000019821050    -0.000001478965
       6       -0.000005112714    -0.000006781512    -0.000014217905
       7       -0.000009677509    -0.000020182658    -0.000010576049
       8       -0.000015032710     0.000009017685     0.000003629251
       9        0.000006851857    -0.000004667456     0.000003619154
      10       -0.000008160653     0.000004631582     0.000001073115
      11        0.000001579766     0.000009271112     0.000011195245
      12       -0.000006232894    -0.000000424346    -0.000004671636
      13        0.000002425274    -0.000004956302    -0.000003315889
      14        0.000003421699    -0.000001122056    -0.000001080170
      15        0.000002027852    -0.000002573849     0.000001387308
      16        0.000000625469     0.000004134039    -0.000001096133
      17        0.000000288454    -0.000001738903     0.000000835453
      18        0.000001410324    -0.000000839821    -0.000002893896
      19       -0.000000368755     0.000001583410     0.000001055177
      20        0.000429195265     0.000114117747     0.006879055817
      21        0.000006718918    -0.000016120119     0.000002830495
      22        0.000003923193     0.000005183719    -0.000003941759
      23        0.000002376246    -0.000010976273     0.000004538488

  **** Optimization is complete! (in 6 steps) ****
    Final optimized geometry and variables:
    Molecular point group: c1

    Geometry (in Angstrom), charge = 0, multiplicity = 1:

    O            1.127259367729     0.444670598262    -1.975708114045
    C            1.308454932791    -0.344214576701    -1.111604654925
    C            0.422511329167    -0.535458599576     0.093195342818
    O            2.298007603358    -1.256575111062    -1.159041997555
    C           -0.790337023673     0.388825853145     0.121482021990
    H            0.126152649388    -1.580950384913     0.107367032916
    H            1.044234360487    -0.398183099180     0.975583970501
    C           -1.663437466683     0.166380155054     1.357340833600
    H           -1.377529659433     0.232828416304    -0.778187795355
    H           -0.455029632102     1.420846173723     0.087491360464
    C           -2.884133033600     1.087136956944     1.400594267343
    H           -1.995624674899    -0.870267015454     1.386030578718
    H           -1.067710056541     0.319383448437     2.256141735076
    C           -3.755915949415     0.864315981963     2.635745108956
    H           -3.481225275484     0.934091041006     0.504461771258
    H           -2.553858951434     2.123151259654     1.373448490912
    H           -4.130023482284    -0.154936333257     2.673294357308
    H           -4.612660492003     1.530899725265     2.637383704227
    H           -3.195706435140     1.043775317125     3.549140528960
    C            3.621634779045    -0.765446640136    -1.241767313646
    H            3.734237979273    -0.100273227924    -2.086368998030
    H            4.260976085819    -1.625787307898    -1.364335717276
    H            3.888389668017    -0.247263043636    -0.327247896644

  Mulliken Charges: (a.u.)
   Center  Symbol    Alpha    Beta     Spin     Total
       1     O     4.26434  4.26434  0.00000 -0.52868
       2     C     2.60732  2.60732  0.00000  0.78536
       3     C     3.21161  3.21161  0.00000 -0.42323
       4     O     4.31536  4.31536  0.00000 -0.63071
       5     C     3.15308  3.15308  0.00000 -0.30615
       6     H     0.39794  0.39794  0.00000  0.20412
       7     H     0.40588  0.40588  0.00000  0.18824
       8     C     3.15319  3.15319  0.00000 -0.30638
       9     H     0.41091  0.41091  0.00000  0.17818
      10     H     0.41240  0.41240  0.00000  0.17521
      11     C     3.15160  3.15160  0.00000 -0.30321
      12     H     0.42345  0.42345  0.00000  0.15310
      13     H     0.42455  0.42455  0.00000  0.15090
      14     C     3.23961  3.23961  0.00000 -0.47923
      15     H     0.42096  0.42096  0.00000  0.15808
      16     H     0.42148  0.42148  0.00000  0.15703
      17     H     0.42160  0.42160  0.00000  0.15679
      18     H     0.41831  0.41831  0.00000  0.16338
      19     H     0.42198  0.42198  0.00000  0.15603
      20     C     3.09474  3.09474  0.00000 -0.18948
      21     H     0.40397  0.40397  0.00000  0.19206
      22     H     0.40511  0.40511  0.00000  0.18979
      23     H     0.42061  0.42061  0.00000  0.15878

   Total alpha = 36.00000, Total beta = 36.00000, Total charge =  0.00000
