  ==> Input File <==

--------------------------------------------------------------------------
set {
	reference rhf
	basis 6-31G*
}

set_num_threads( 4 )
memory 2 gb

molecule MOL {
0 1

H	 -1.438748	 1.955017	 -0.603431
C	 -1.777431	 0.931119	 -0.476586
O	 -0.774054	 0.001095	 -0.743181
H	 -2.567754	 0.744546	 -1.191366
H	 -2.189364	 0.822322	 0.522248
C	 0.406953	 0.000033	 0.038965
C	 1.527284	 -0.003667	 -0.998752
C	 0.498933	 1.262172	 0.902524
C	 0.494271	 -1.259566	 0.906664
H	 1.452513	 0.873252	 -1.631882
H	 1.448863	 -0.881882	 -1.629595
H	 2.502020	 -0.005104	 -0.521731
H	 0.364280	 2.147110	 0.289513
H	 1.472180	 1.321775	 1.378800
H	 -0.247853	 1.275162	 1.689097
H	 0.356778	 -2.146106	 0.296587
H	 1.467182	 -1.320941	 1.383330
H	 -0.252763	 -1.267328	 1.693119

	symmetry c1
}
set optking {
	frozen_dihedral = ("
		2 3 6 7
	")
}

ee = optimize('scf')
oeprop('DIPOLE', 'QUADRUPOLE', 'MULLIKEN_CHARGES')
f=open( 'psi4out.xyz', 'w' )
f.write( "18  " )
f.write( str(ee) + "\n" )
f.write( MOL.save_string_xyz() )
f.close()
--------------------------------------------------------------------------

    Molecular point group: c1
  Charge       = 0
  Multiplicity = 1
  Basis Set: 6-31G*
  Basis Set:
  @DF-RHF Final Energy:  -271.16821871433353
    Total Energy =                       -271.1682187143335341
    Molecular point group: c1
  Basis Set: 6-31G*
  Basis Set:
  Basis Set: 6-31G*
  Basis Set:
  @DF-RHF Final Energy:  -271.16856956386289
    Total Energy =                       -271.1685695638626044
  Basis Set: 6-31G*
  Basis Set:
  Basis Set: 6-31G*
  Basis Set:
  @DF-RHF Final Energy:  -271.17113894510464
    Total Energy =                       -271.1711389451047580
  Basis Set: 6-31G*
  Basis Set:
  Basis Set: 6-31G*
  Basis Set:
  @DF-RHF Final Energy:  -271.17138847376822
    Total Energy =                       -271.1713884737683884
  Basis Set: 6-31G*
  Basis Set:
  @DF-RHF Final Energy:  -271.17141109006633
    Total Energy =                       -271.1714110900663286
  Basis Set: 6-31G*
  Basis Set:
  @DF-RHF Final Energy:  -271.17140360436201
    Total Energy =                       -271.1714036043621832
  Basis Set: 6-31G*
  Basis Set:
  Basis Set: 6-31G*
  Basis Set:
  @DF-RHF Final Energy:  -271.17142035985086
    Total Energy =                       -271.1714203598505719
  Basis Set: 6-31G*
  Basis Set:
  Basis Set: 6-31G*
  Basis Set:
  @DF-RHF Final Energy:  -271.17141901455693
    Total Energy =                       -271.1714190145566477
  Basis Set: 6-31G*
  Basis Set:
  Charge       = 0
  Multiplicity = 1
  Basis Set: 6-31G*
  Basis Set:

    Orbital Energies (a.u.)
    -----------------------

    Doubly Occupied:

       1A    -20.543528     2A    -11.281810     3A    -11.262166
       4A    -11.213619     5A    -11.203862     6A    -11.203210
       7A     -1.366100     8A     -1.073950     9A     -0.950474
      10A     -0.934892    11A     -0.911475    12A     -0.751199
      13A     -0.656345    14A     -0.646006    15A     -0.636416
      16A     -0.582275    17A     -0.576804    18A     -0.548041
      19A     -0.542585    20A     -0.525701    21A     -0.514864
      22A     -0.490908    23A     -0.482451    24A     -0.441044
      25A     -0.396225

  @DF-RHF Final Energy:  -271.17142069387131

   => Energetics <=

    Nuclear Repulsion Energy =            271.7131316370525269
    One-Electron Energy =                -906.2972059703354262
    Two-Electron Energy =                 363.4126536394115305
    DFT Exchange-Correlation Energy =       0.0000000000000000
    Empirical Dispersion Energy =           0.0000000000000000
    PCM Polarization Energy =               0.0000000000000000
    EFP Energy =                            0.0000000000000000
    Total Energy =                       -271.1714206938713119
    Molecular point group: c1
  Basis Set: 6-31G*
  Basis Set:

  -Total Gradient:
     Atom            X                  Y                   Z
    ------   -----------------  -----------------  -----------------
       1        0.000002554383    -0.000002976234    -0.000000028451
       2        0.000738665926     0.001198634677    -0.001271892093
       3       -0.001107397681    -0.001370922523     0.001923507246
       4        0.000004747947    -0.000000875988    -0.000002100755
       5       -0.000001066801     0.000000239072     0.000003617889
       6        0.000384492525    -0.001348402590    -0.000602646278
       7       -0.000032025757     0.001526996091    -0.000047748388
       8        0.000006413597     0.000000153943    -0.000001255955
       9        0.000013375702    -0.000004669790    -0.000000373237
      10        0.000000708787    -0.000000477760    -0.000003212396
      11       -0.000001757674    -0.000001431081     0.000004514449
      12       -0.000001135711     0.000003134926     0.000001973262
      13       -0.000001150486    -0.000001270575    -0.000002696769
      14        0.000000593491     0.000000696275     0.000002435999
      15       -0.000004291857     0.000000994501     0.000000766852
      16       -0.000001202776    -0.000004025061     0.000000848899
      17       -0.000001832391    -0.000001930262    -0.000001999067
      18        0.000000308775     0.000006132378    -0.000003711204

  **** Optimization is complete! (in 9 steps) ****
    Final optimized geometry and variables:
    Molecular point group: c1

    Geometry (in Angstrom), charge = 0, multiplicity = 1:

    H           -1.589022895046     1.740579662892    -0.604425086262
    C           -1.871396717435     0.709897325276    -0.413112357135
    O           -0.830990075918    -0.184711334554    -0.649173939405
    H           -2.663200322172     0.442289716848    -1.100267460253
    H           -2.262961492162     0.639183381770     0.598468706384
    C            0.381854954998    -0.138235438449     0.093577085556
    C            1.500297340587    -0.150157693758    -0.947851426180
    C            0.523951970729     1.104501764456     0.978847739582
    C            0.420756801911    -1.401483140892     0.953940204231
    H            1.451278816234     0.742714978013    -1.562091911506
    H            1.394171659534    -1.010880268557    -1.598514864074
    H            2.477981720961    -0.192016934695    -0.477288244104
    H            0.501554496175     2.018781346688     0.396285988967
    H            1.479166677361     1.066254222441     1.491153935077
    H           -0.249878223433     1.159687252505     1.736227070661
    H            0.314956420981    -2.280193915873     0.327923059533
    H            1.354005270664    -1.478824733500     1.503668394616
    H           -0.396186927869    -1.398743632315     1.668903280554

  Mulliken Charges: (a.u.)
   Center  Symbol    Alpha    Beta     Spin     Total
       1     H     0.42986  0.42986  0.00000  0.14027
       2     C     3.07486  3.07486  0.00000 -0.14971
       3     O     4.32574  4.32574  0.00000 -0.65147
       4     H     0.41246  0.41246  0.00000  0.17508
       5     H     0.43147  0.43147  0.00000  0.13706
       6     C     2.83914  2.83914  0.00000  0.32172
       7     C     3.23130  3.23130  0.00000 -0.46260
       8     C     3.25843  3.25843  0.00000 -0.51685
       9     C     3.23214  3.23214  0.00000 -0.46427
      10     H     0.41925  0.41925  0.00000  0.16151
      11     H     0.41329  0.41329  0.00000  0.17341
      12     H     0.42617  0.42617  0.00000  0.14767
      13     H     0.41523  0.41523  0.00000  0.16954
      14     H     0.41427  0.41427  0.00000  0.17146
      15     H     0.41627  0.41627  0.00000  0.16746
      16     H     0.41338  0.41338  0.00000  0.17323
      17     H     0.42588  0.42588  0.00000  0.14824
      18     H     0.42087  0.42087  0.00000  0.15825

   Total alpha = 25.00000, Total beta = 25.00000, Total charge = -0.00000
