  ==> Input File <==

--------------------------------------------------------------------------
set {
	reference rhf
	basis 6-31G*
}

set_num_threads( 4 )
memory 2 gb

molecule MOL {
0 1

H	 3.893188	 0.355400	 -0.101367
N	 3.092854	 -0.246221	 -0.068770
C	 1.865559	 0.531981	 0.018834
H	 3.199514	 -0.826043	 0.741946
C	 0.645745	 -0.382037	 -0.029944
H	 1.841966	 1.207024	 -0.831236
H	 1.815756	 1.155410	 0.915079
C	 -0.679275	 0.379305	 0.025956
H	 0.698998	 -0.976915	 -0.937203
H	 0.693479	 -1.083846	 0.802235
C	 -1.272025	 0.454755	 1.434263
H	 -1.397860	 -0.097883	 -0.638707
H	 -0.535851	 1.389045	 -0.355754
C	 -2.598010	 1.212862	 1.484737
H	 -1.417421	 -0.552941	 1.817175
H	 -0.557191	 0.933529	 2.100179
H	 -3.345091	 0.738392	 0.854606
H	 -2.992865	 1.248703	 2.495385
H	 -2.478208	 2.236214	 1.140078

	symmetry c1
}
set optking {
	frozen_dihedral = ("
		12 8 5 9
	")
}

ee = optimize('scf')
oeprop('DIPOLE', 'QUADRUPOLE', 'MULLIKEN_CHARGES')
f=open( 'psi4out.xyz', 'w' )
f.write( "19  " )
f.write( str(ee) + "\n" )
f.write( MOL.save_string_xyz() )
f.close()
--------------------------------------------------------------------------

    Molecular point group: c1
  Charge       = 0
  Multiplicity = 1
  Basis Set: 6-31G*
  Basis Set:
  @DF-RHF Final Energy:  -251.34790155196157
    Total Energy =                       -251.3479015519617406
    Molecular point group: c1
  Basis Set: 6-31G*
  Basis Set:
  Basis Set: 6-31G*
  Basis Set:
  @DF-RHF Final Energy:  -251.34814472306769
    Total Energy =                       -251.3481447230676622
  Basis Set: 6-31G*
  Basis Set:
  Basis Set: 6-31G*
  Basis Set:
  @DF-RHF Final Energy:  -251.34822696853809
    Total Energy =                       -251.3482269685376878
  Basis Set: 6-31G*
  Basis Set:
  Basis Set: 6-31G*
  Basis Set:
  @DF-RHF Final Energy:  -251.34822877412674
    Total Energy =                       -251.3482287741270511
  Basis Set: 6-31G*
  Basis Set:
  Charge       = 0
  Multiplicity = 1
  Basis Set: 6-31G*
  Basis Set:

    Orbital Energies (a.u.)
    -----------------------

    Doubly Occupied:

       1A    -15.532597     2A    -11.240148     3A    -11.215269
       4A    -11.212786     5A    -11.209325     6A    -11.208285
       7A     -1.176825     8A     -1.072277     9A     -0.997210
      10A     -0.900002    11A     -0.821494    12A     -0.785176
      13A     -0.659996    14A     -0.636583    15A     -0.621971
      16A     -0.591025    17A     -0.566055    18A     -0.549449
      19A     -0.531054    20A     -0.498050    21A     -0.483786
      22A     -0.464796    23A     -0.457234    24A     -0.449290
      25A     -0.380762

  @DF-RHF Final Energy:  -251.34822921465152

   => Energetics <=

    Nuclear Repulsion Energy =            247.8270298692281983
    One-Electron Energy =                -829.8276178600654021
    Two-Electron Energy =                 330.6523587761855083
    DFT Exchange-Correlation Energy =       0.0000000000000000
    Empirical Dispersion Energy =           0.0000000000000000
    PCM Polarization Energy =               0.0000000000000000
    EFP Energy =                            0.0000000000000000
    Total Energy =                       -251.3482292146516670
    Molecular point group: c1
  Basis Set: 6-31G*
  Basis Set:

  -Total Gradient:
     Atom            X                  Y                   Z
    ------   -----------------  -----------------  -----------------
       1        0.000021214304    -0.000012158889     0.000009617316
       2        0.000037340987     0.000016023899     0.000024441909
       3       -0.000031713265    -0.000048176328    -0.000073366610
       4        0.000012271374    -0.000001272669     0.000000821651
       5        0.001548918083     0.003187703212    -0.002131800127
       6       -0.000013049743     0.000004379821    -0.000000462188
       7       -0.000007157633    -0.000030291271    -0.000009047548
       8       -0.001223276707    -0.002631963174     0.002929440817
       9       -0.001091390265    -0.002164223193     0.001309441821
      10       -0.000000133770     0.000005158654     0.000024653862
      11       -0.000004684908     0.000010308230    -0.000040021680
      12        0.000755279703     0.001650595258    -0.002078313554
      13        0.000014320573     0.000002298066     0.000026354475
      14       -0.000013079615    -0.000004150714     0.000025723111
      15        0.000013780335     0.000002855891    -0.000006517718
      16       -0.000007449661     0.000006899202    -0.000019959555
      17        0.000009963240     0.000002855181    -0.000001226123
      18       -0.000022534437     0.000006212996     0.000004248503
      19        0.000001381407    -0.000003054173     0.000005971638

  **** Optimization is complete! (in 5 steps) ****
    Final optimized geometry and variables:
    Molecular point group: c1

    Geometry (in Angstrom), charge = 0, multiplicity = 1:

    H            3.680344971648     0.050895500231    -0.537209285046
    N            2.884911493305    -0.557577533729    -0.513386690527
    C            1.648244914143     0.208773434757    -0.479898060409
    H            2.973599729704    -1.118816618677     0.312402236240
    C            0.439594818772    -0.718528988127    -0.552199851536
    H            1.643494575363     0.866777872767    -1.343413064825
    H            1.564118148794     0.849663795835     0.401403178954
    C           -0.907610591419     0.020822859424    -0.468500842533
    H            0.502209125252    -1.305250155235    -1.462591974368
    H            0.502456783277    -1.440995177546     0.261196512479
    C           -1.482100749680     0.111059568107     0.946892772989
    H           -1.630411566250    -0.456932005896    -1.124994521868
    H           -0.788411053345     1.028504519765    -0.865350841165
    C           -2.786066415409     0.904777791122     1.013078100634
    H           -1.651248665747    -0.893908373638     1.327297702750
    H           -0.748809686291     0.567391225885     1.608719015916
    H           -3.548605041750     0.457635079241     0.381457032254
    H           -3.175148017611     0.940427966396     2.026046951521
    H           -2.640011051377     1.928020344094     0.678546433722

  Mulliken Charges: (a.u.)
   Center  Symbol    Alpha    Beta     Spin     Total
       1     H     0.33242  0.33242  0.00000  0.33516
       2     N     3.92216  3.92216  0.00000 -0.84432
       3     C     3.06180  3.06180  0.00000 -0.12360
       4     H     0.33515  0.33515  0.00000  0.32970
       5     C     3.15381  3.15381  0.00000 -0.30762
       6     H     0.42027  0.42027  0.00000  0.15946
       7     H     0.43428  0.43428  0.00000  0.13145
       8     C     3.15891  3.15891  0.00000 -0.31781
       9     H     0.41078  0.41078  0.00000  0.17844
      10     H     0.42662  0.42662  0.00000  0.14676
      11     C     3.15194  3.15194  0.00000 -0.30387
      12     H     0.41941  0.41941  0.00000  0.16118
      13     H     0.42387  0.42387  0.00000  0.15226
      14     C     3.23962  3.23962  0.00000 -0.47925
      15     H     0.42237  0.42237  0.00000  0.15527
      16     H     0.42381  0.42381  0.00000  0.15238
      17     H     0.42142  0.42142  0.00000  0.15717
      18     H     0.41956  0.41956  0.00000  0.16088
      19     H     0.42182  0.42182  0.00000  0.15635

   Total alpha = 25.00000, Total beta = 25.00000, Total charge = -0.00000
