                              Psi4 1.0.54 Driver

  ==> Input File <==

--------------------------------------------------------------------------
set {
	reference rhf
	basis cc-pvtz
}

set_num_threads( 4 )
memory 2 gb

molecule MOL {
0 1

H	 2.358993	 -1.904770	 0.609727
N	 1.378483	 -1.727532	 0.619506
C	 0.839444	 -1.756665	 -0.725273
C	 1.091931	 -0.470565	 1.281142
H	 1.052012	 -2.720649	 -1.171258
H	 1.277565	 -0.987392	 -1.363935
C	 -0.662525	 -1.544114	 -0.670635
H	 1.487456	 -0.502610	 2.289054
H	 1.546003	 0.379965	 0.769247
C	 -0.410369	 -0.259698	 1.333152
H	 -1.124047	 -2.396930	 -0.164382
H	 -1.059236	 -1.506660	 -1.678274
N	 -0.976577	 -0.298712	 -0.000000
H	 -0.624757	 0.706469	 1.774376
H	 -0.854520	 -1.024029	 1.977449
C	 -2.391156	 -0.021003	 -0.000000
H	 -2.853954	 -0.458728	 -0.875714
H	 -2.853954	 -0.458728	 0.875714
H	 -2.614037	 1.049773	 -0.000000

	symmetry c1
}
set optking {
	frozen_dihedral = ("
		7 13 16 19
	")
}

ee,wfn = optimize('scf', return_wfn=True)
oeprop( wfn, 'DIPOLE', 'QUADRUPOLE', 'MULLIKEN_CHARGES')
f=open( 'psi4out.xyz', 'w' )
f.write( "19  " )
f.write( str(ee) + "\n" )
f.write( MOL.save_string_xyz() )
f.close()
--------------------------------------------------------------------------

    Molecular point group: c1
  Charge       = 0
  Multiplicity = 1
  Basis Set: CC-PVTZ
  Basis Set:
  @DF-RHF Final Energy:  -305.30586603570168
    Total Energy =                       -305.3058660357014560
    Molecular point group: c1
  Basis Set: CC-PVTZ
  Basis Set:
  Basis Set: CC-PVTZ
  Basis Set:
  @DF-RHF Final Energy:  -305.30678395060073
    Total Energy =                       -305.3067839506002201
  Basis Set: CC-PVTZ
  Basis Set:
  Basis Set: CC-PVTZ
  Basis Set:
  @DF-RHF Final Energy:  -305.30687666493128
    Total Energy =                       -305.3068766649311669
  Basis Set: CC-PVTZ
  Basis Set:
  Charge       = 0
  Multiplicity = 1
  Basis Set: CC-PVTZ
  Basis Set:

    Orbital Energies (a.u.)
    -----------------------

    Doubly Occupied:

       1A    -15.534152     2A    -15.531092     3A    -11.236986
       4A    -11.236964     5A    -11.235959     6A    -11.235695
       7A    -11.233024     8A     -1.247930     9A     -1.186619
      10A     -1.024158    11A     -0.965712    12A     -0.862072
      13A     -0.858360    14A     -0.756324    15A     -0.692390
      16A     -0.634790    17A     -0.626325    18A     -0.608329
      19A     -0.604865    20A     -0.582299    21A     -0.543661
      22A     -0.532720    23A     -0.511024    24A     -0.489635
      25A     -0.468503    26A     -0.458421    27A     -0.366018
      28A     -0.342919

  @DF-RHF Final Energy:  -305.30688037149650

   => Energetics <=

    Nuclear Repulsion Energy =            340.0063777352337411
    One-Electron Energy =               -1087.4126281618841858
    Two-Electron Energy =                 442.0993700551538836
    DFT Exchange-Correlation Energy =       0.0000000000000000
    Empirical Dispersion Energy =           0.0000000000000000
    PCM Polarization Energy =               0.0000000000000000
    EFP Energy =                            0.0000000000000000
    Total Energy =                       -305.3068803714965611
    Molecular point group: c1
  Basis Set: CC-PVTZ
  Basis Set:

  -Total Gradient:
     Atom            X                  Y                   Z
    ------   -----------------  -----------------  -----------------
       1       -0.000006670193     0.000022220173    -0.000003563936
       2       -0.000030142581    -0.000009797248     0.000028242656
       3       -0.000014230384    -0.000034189686     0.000025656390
       4        0.000021630900     0.000028810821    -0.000046369213
       5        0.000051565099    -0.000030736361    -0.000008167611
       6       -0.000043008896    -0.000011858421     0.000011906954
       7        0.000491872321     0.001457720084    -0.003009646465
       8        0.000026279086    -0.000013421637     0.000009499224
       9        0.000003353200    -0.000001946953     0.000007729421
      10        0.000060295332    -0.000049205053     0.000168827313
      11        0.000037242229     0.000082672948    -0.000008707935
      12        0.000001786878     0.000020965581     0.000010156829
      13       -0.000572775472    -0.002232537377     0.002926639428
      14       -0.000001636560    -0.000000925947    -0.000020125743
      15       -0.000015051666     0.000023595664    -0.000072799653
      16       -0.000179529977     0.000829338656     0.004411561108
      17        0.000010539305    -0.000001167747    -0.000010901843
      18        0.000058737607    -0.000043657464    -0.000007875682
      19        0.000099743767    -0.000035880035    -0.004412061242

  **** Optimization is complete! (in 4 steps) ****
    Final optimized geometry and variables:
    Molecular point group: c1

    Geometry (in Angstrom), charge = 0, multiplicity = 1:

    H            2.552536199563    -0.967808957370     0.377082758001
    N            1.568195977050    -0.812613986732     0.380019192293
    C            1.034838272380    -0.887783332564    -0.965194525951
    C            1.251714701161     0.453996601572     1.008533589253
    H            1.281405227149    -1.852973213096    -1.390933416044
    H            1.449959935011    -0.117062923530    -1.617623090711
    C           -0.474061636405    -0.723129893974    -0.922404503465
    H            1.650516889730     0.459617116341     2.015766945015
    H            1.682944742571     1.301350478329     0.471969465455
    C           -0.255609754068     0.625945383576     1.058503397630
    H           -0.909325168112    -1.589758202341    -0.415515015542
    H           -0.861698797897    -0.704263850113    -1.933392233017
    N           -0.826258667621     0.518001849456    -0.265780546725
    H           -0.496253124217     1.602825412266     1.462460419311
    H           -0.677010387725    -0.123271912180     1.735218867452
    C           -2.238834340392     0.815577937931    -0.291469655067
    H           -2.674773090781     0.436717344040    -1.207339822731
    H           -2.786041974022     0.371767312762     0.541920414401
    H           -2.401102653788     1.887542445569    -0.292944816816

  Mulliken Charges: (a.u.)
   Center  Symbol    Alpha    Beta     Spin     Total
       1     H     0.43994  0.43994  0.00000  0.12012
       2     N     3.64277  3.64277  0.00000 -0.28555
       3     C     3.04172  3.04172  0.00000 -0.08343
       4     C     3.04090  3.04090  0.00000 -0.08180
       5     H     0.45258  0.45258  0.00000  0.09484
       6     H     0.46595  0.46595  0.00000  0.06810
       7     C     3.03171  3.03171  0.00000 -0.06343
       8     H     0.45257  0.45257  0.00000  0.09487
       9     H     0.46579  0.46579  0.00000  0.06843
      10     C     3.03397  3.03397  0.00000 -0.06795
      11     H     0.47022  0.47022  0.00000  0.05957
      12     H     0.45427  0.45427  0.00000  0.09147
      13     N     3.61535  3.61535  0.00000 -0.23069
      14     H     0.45445  0.45445  0.00000  0.09110
      15     H     0.46829  0.46829  0.00000  0.06343
      16     C     3.09552  3.09552  0.00000 -0.19105
      17     H     0.45560  0.45560  0.00000  0.08880
      18     H     0.46751  0.46751  0.00000  0.06498
      19     H     0.45090  0.45090  0.00000  0.09820

   Total alpha = 28.00000, Total beta = 28.00000, Total charge = -0.00000

*** Psi4 exiting successfully. Buy a developer a beer!
