                              Psi4 1.0.54 Driver

  ==> Input File <==

--------------------------------------------------------------------------
set {
	reference rhf
	basis cc-pvtz
}

set_num_threads( 4 )
memory 2 gb

molecule MOL {
0 1

H	 3.459101	 0.139266	 -0.762951
C	 2.749156	 -0.051729	 0.031265
C	 1.322304	 0.099773	 -0.484271
H	 2.929445	 -1.053887	 0.403481
H	 2.954281	 0.646699	 0.834672
C	 0.308557	 -0.162619	 0.622645
H	 1.143368	 -0.594400	 -1.295960
H	 1.169532	 1.100095	 -0.870217
N	 -1.069352	 -0.004081	 0.085342
H	 0.371632	 -1.172932	 0.991288
H	 0.400391	 0.548875	 1.426218
O	 -1.303927	 0.985838	 -0.522615
O	 -1.848106	 -0.864645	 0.325994

	symmetry c1
}
set optking {
	frozen_dihedral = ("
		12 9 6 3
	")
}

ee,wfn = optimize('scf', return_wfn=True)
oeprop( wfn, 'DIPOLE', 'QUADRUPOLE', 'MULLIKEN_CHARGES')
f=open( 'psi4out.xyz', 'w' )
f.write( "13  " )
f.write( str(ee) + "\n" )
f.write( MOL.save_string_xyz() )
f.close()
--------------------------------------------------------------------------

    Molecular point group: c1
  Charge       = 0
  Multiplicity = 1
  Basis Set: CC-PVTZ
  Basis Set:
  @DF-RHF Final Energy:  -321.86060457119117
    Total Energy =                       -321.8606045711910610
    Molecular point group: c1
  Basis Set: CC-PVTZ
  Basis Set:
  Basis Set: CC-PVTZ
  Basis Set:
  @DF-RHF Final Energy:  -321.85696325634609
    Total Energy =                       -321.8569632563462619
  Basis Set: CC-PVTZ
  Basis Set:
  Basis Set: CC-PVTZ
  Basis Set:
  @DF-RHF Final Energy:  -321.85923194509297
    Total Energy =                       -321.8592319450929153
  Basis Set: CC-PVTZ
  Basis Set:
  Basis Set: CC-PVTZ
  Basis Set:
  @DF-RHF Final Energy:  -321.86104213359488
    Total Energy =                       -321.8610421335948786
  Basis Set: CC-PVTZ
  Basis Set:
  Basis Set: CC-PVTZ
  Basis Set:
  @DF-RHF Final Energy:  -321.86105947306828
    Total Energy =                       -321.8610594730682237
  Basis Set: CC-PVTZ
  Basis Set:
  Basis Set: CC-PVTZ
  Basis Set:
  @DF-RHF Final Energy:  -321.86106533382514
    Total Energy =                       -321.8610653338251382
  Basis Set: CC-PVTZ
  Basis Set:
  Charge       = 0
  Multiplicity = 1
  Basis Set: CC-PVTZ
  Basis Set:

    Orbital Energies (a.u.)
    -----------------------

    Doubly Occupied:

       1A    -20.592223     2A    -20.589496     3A    -15.837716
       4A    -11.298100     5A    -11.250512     6A    -11.235977
       7A     -1.636720     8A     -1.420840     9A     -1.132752
      10A     -1.027355    11A     -0.884529    12A     -0.830866
      13A     -0.763276    14A     -0.743437    15A     -0.729676
      16A     -0.666830    17A     -0.605201    18A     -0.583582
      19A     -0.551443    20A     -0.522041    21A     -0.510890
      22A     -0.487685    23A     -0.474461    24A     -0.454292

  @DF-RHF Final Energy:  -321.86106550186287

   => Energetics <=

    Nuclear Repulsion Energy =            247.7529914587747442
    One-Electron Energy =                -929.5683115098948974
    Two-Electron Energy =                 359.9542545492574845
    DFT Exchange-Correlation Energy =       0.0000000000000000
    Empirical Dispersion Energy =           0.0000000000000000
    PCM Polarization Energy =               0.0000000000000000
    EFP Energy =                            0.0000000000000000
    Total Energy =                       -321.8610655018626403
    Molecular point group: c1
  Basis Set: CC-PVTZ
  Basis Set:

  -Total Gradient:
     Atom            X                  Y                   Z
    ------   -----------------  -----------------  -----------------
       1        0.000008847783     0.000000827423     0.000004870811
       2       -0.000000444954     0.000008637584    -0.000010288096
       3        0.000000957365     0.000397011329     0.000112556292
       4        0.000002167735    -0.000001438880    -0.000004212061
       5       -0.000003205925    -0.000003222122     0.000000134642
       6        0.000041666321    -0.000653580923    -0.000313146571
       7        0.000004762283     0.000001790368    -0.000001598186
       8        0.000002564575     0.000000779729    -0.000007571390
       9       -0.000214609024     0.000538490754     0.000678507949
      10       -0.000000791493    -0.000006206373     0.000000155769
      11       -0.000005145374    -0.000002110761     0.000003781769
      12        0.000150489407    -0.000299481861    -0.000460626771
      13        0.000012741301     0.000018503732    -0.000002564157

  **** Optimization is complete! (in 7 steps) ****
    Final optimized geometry and variables:
    Molecular point group: c1

    Geometry (in Angstrom), charge = 0, multiplicity = 1:

    H            3.491967068229     0.133302938915    -0.730012931668
    C            2.763319751390    -0.063812107604     0.045494707235
    C            1.349159915994     0.119486229547    -0.496094994374
    H            2.924803477996    -1.074715275309     0.402585343214
    H            2.961737712355     0.616427386474     0.866422032042
    C            0.317199474731    -0.157903058176     0.584369747146
    H            1.182141434920    -0.555128812641    -1.328457286837
    H            1.214916916483     1.125079022793    -0.867015662773
    N           -1.075784652691    -0.006346027053     0.074546598370
    H            0.377229202645    -1.159603744991     0.973068884512
    H            0.395063116932     0.552577566881     1.395546335984
    O           -1.334784020484     0.988952942754    -0.514999497172
    O           -1.837343192161    -0.883887975707     0.304506078417

  Mulliken Charges: (a.u.)
   Center  Symbol    Alpha    Beta     Spin     Total
       1     H     0.44149  0.44149  0.00000  0.11701
       2     C     3.15160  3.15160  0.00000 -0.30321
       3     C     3.09555  3.09555  0.00000 -0.19109
       4     H     0.45222  0.45222  0.00000  0.09556
       5     H     0.45236  0.45236  0.00000  0.09528
       6     C     3.04120  3.04120  0.00000 -0.08241
       7     H     0.44358  0.44358  0.00000  0.11285
       8     H     0.43319  0.43319  0.00000  0.13363
       9     N     3.27654  3.27654  0.00000  0.44691
      10     H     0.43206  0.43206  0.00000  0.13588
      11     H     0.43754  0.43754  0.00000  0.12492
      12     O     4.17351  4.17351  0.00000 -0.34702
      13     O     4.16916  4.16916  0.00000 -0.33832

   Total alpha = 24.00000, Total beta = 24.00000, Total charge =  0.00000

*** Psi4 exiting successfully. Buy a developer a beer!
