  ==> Input File <==

--------------------------------------------------------------------------
set {
	reference rhf
	basis 6-31G*
}

set_num_threads( 4 )
memory 2 gb

molecule MOL {
0 1

H	 -3.650283	 0.221984	 0.000000
C	 -2.577024	 0.154109	 0.000000
C	 -1.960329	 -1.089307	 0.000000
C	 -1.811733	 1.307557	 0.000000
H	 -2.554473	 -1.985285	 0.000000
C	 -0.581547	 -1.175855	 0.000000
H	 -2.287118	 2.271701	 0.000000
C	 -0.428719	 1.219221	 0.000000
H	 -0.090826	 -2.129898	 0.000000
C	 0.198341	 -0.021559	 0.000000
H	 0.149947	 2.124040	 0.000000
C	 1.691355	 -0.173192	 0.000000
C	 2.308274	 -1.387758	 0.661652
O	 2.385922	 0.652577	 -0.514837
H	 2.046508	 -1.430639	 1.713992
H	 3.382336	 -1.324169	 0.562470
H	 1.957915	 -2.302950	 0.195334

	symmetry c1
}
set optking {
	frozen_dihedral = ("
		13 12 10 8
	")
}

ee = optimize('scf')
oeprop('DIPOLE', 'QUADRUPOLE', 'MULLIKEN_CHARGES')
f=open( 'psi4out.xyz', 'w' )
f.write( "17  " )
f.write( str(ee) + "\n" )
f.write( MOL.save_string_xyz() )
f.close()
--------------------------------------------------------------------------

    Molecular point group: c1
  Charge       = 0
  Multiplicity = 1
  Basis Set: 6-31G*
  Basis Set:
  @DF-RHF Final Energy:  -382.47161481719519
    Total Energy =                       -382.4716148171952455
    Molecular point group: c1
  Basis Set: 6-31G*
  Basis Set:
  Basis Set: 6-31G*
  Basis Set:
  @DF-RHF Final Energy:  -382.47198484010988
    Total Energy =                       -382.4719848401098261
  Basis Set: 6-31G*
  Basis Set:
  Basis Set: 6-31G*
  Basis Set:
  @DF-RHF Final Energy:  -382.47324258437482
    Total Energy =                       -382.4732425843754982
  Basis Set: 6-31G*
  Basis Set:
  Basis Set: 6-31G*
  Basis Set:
  @DF-RHF Final Energy:  -382.47380751248642
    Total Energy =                       -382.4738075124868146
  Basis Set: 6-31G*
  Basis Set:
  @DF-RHF Final Energy:  -382.47387738630925
    Total Energy =                       -382.4738773863100505
  @DF-RHF Final Energy:  -382.47389799410655
    Total Energy =                       -382.4738979941064372
  Basis Set: 6-31G*
  Basis Set:
  @DF-RHF Final Energy:  -382.47390178338418
    Total Energy =                       -382.4739017833848038
  Basis Set: 6-31G*
  Basis Set:
  Basis Set: 6-31G*
  Basis Set:
  @DF-RHF Final Energy:  -382.47390434556957
    Total Energy =                       -382.4739043455690535
  Basis Set: 6-31G*
  Basis Set:
  Basis Set: 6-31G*
  Basis Set:
  @DF-RHF Final Energy:  -382.47390565015132
    Total Energy =                       -382.4739056501516643
  Basis Set: 6-31G*
  Basis Set:
  Charge       = 0
  Multiplicity = 1
  Basis Set: 6-31G*
  Basis Set:

    Orbital Energies (a.u.)
    -----------------------

    Doubly Occupied:

       1A    -20.551205     2A    -11.331851     3A    -11.248159
       4A    -11.245054     5A    -11.243808     6A    -11.241050
       7A    -11.240781     8A    -11.238468     9A    -11.230006
      10A     -1.397345    11A     -1.165783    12A     -1.049882
      13A     -1.026431    14A     -0.996538    15A     -0.860826
      16A     -0.835511    17A     -0.760068    18A     -0.707474
      19A     -0.656617    20A     -0.646307    21A     -0.624534
      22A     -0.611767    23A     -0.599151    24A     -0.592520
      25A     -0.555492    26A     -0.525648    27A     -0.515735
      28A     -0.500973    29A     -0.490898    30A     -0.410586
      31A     -0.345067    32A     -0.341660

  @DF-RHF Final Energy:  -382.47390576234335

   => Energetics <=

    Nuclear Repulsion Energy =            403.4427015115905419
    One-Electron Energy =               -1318.2588301959058299
    Two-Electron Energy =                 532.3422229219718247
    DFT Exchange-Correlation Energy =       0.0000000000000000
    Empirical Dispersion Energy =           0.0000000000000000
    PCM Polarization Energy =               0.0000000000000000
    EFP Energy =                            0.0000000000000000
    Total Energy =                       -382.4739057623435201
    Molecular point group: c1
  Basis Set: 6-31G*
  Basis Set:

  -Total Gradient:
     Atom            X                  Y                   Z
    ------   -----------------  -----------------  -----------------
       1        0.000002144744     0.000010143052     0.000001739095
       2       -0.000011506633    -0.000023913738    -0.000013521184
       3       -0.000021887245     0.000041904588     0.000024972556
       4        0.000023957012     0.000028504734     0.000006485264
       5        0.000016000503    -0.000006238827    -0.000002176975
       6        0.000111265574     0.000061310887    -0.000072987234
       7       -0.000007156175     0.000002589185    -0.000000350843
       8       -0.000075410014     0.000049991993     0.003047109504
       9        0.000039852938    -0.000031820462     0.000045572085
      10        0.000027738071     0.000644363484    -0.003045214627
      11       -0.000015926454    -0.000006170414     0.000008557479
      12       -0.000095612711    -0.002368557302    -0.002783071872
      13        0.000007064696     0.001508519757     0.002616372027
      14        0.000007239957     0.000098900614     0.000212110460
      15        0.000002580842     0.000016457092     0.000002213227
      16        0.000008646624    -0.000010988685    -0.000023710431
      17       -0.000018991733    -0.000014995958    -0.000024098530

  **** Optimization is complete! (in 10 steps) ****
    Final optimized geometry and variables:
    Molecular point group: c1

    Geometry (in Angstrom), charge = 0, multiplicity = 1:

    H           -3.638634181598     0.336272852434     0.009492696758
    C           -2.567884107772     0.237809623600    -0.006042405030
    C           -1.988838559966    -1.020130952977    -0.004764246017
    C           -1.767265878597     1.370597621544    -0.023194520419
    H           -2.607133987717    -1.899523372859     0.007593526521
    C           -0.609155353017    -1.146391286444    -0.012274886289
    H           -2.215872488702     2.347596496150    -0.017247025832
    C           -0.390865305562     1.243560162469    -0.049387725327
    H           -0.173440725387    -2.128691509005    -0.000381414001
    C            0.199776724657    -0.016721081652    -0.049185853936
    H            0.239261941024     2.112207416833    -0.073887616142
    C            1.698359368767    -0.098741869728    -0.036137023012
    C            2.353389255269    -1.290794226850     0.629758617519
    O            2.358663241879     0.792006783892    -0.481772675486
    H            1.964180054686    -1.426593012330     1.633187303751
    H            3.420432499291    -1.123773729862     0.667819901173
    H            2.161048509490    -2.204632430244     0.076053785694

  Mulliken Charges: (a.u.)
   Center  Symbol    Alpha    Beta     Spin     Total
       1     H     0.39557  0.39557  0.00000  0.20886
       2     C     3.09342  3.09342  0.00000 -0.18684
       3     C     3.10380  3.10380  0.00000 -0.20759
       4     C     3.10321  3.10321  0.00000 -0.20642
       5     H     0.39635  0.39635  0.00000  0.20729
       6     C     3.10292  3.10292  0.00000 -0.20583
       7     H     0.39528  0.39528  0.00000  0.20944
       8     C     3.09188  3.09188  0.00000 -0.18375
       9     H     0.39463  0.39463  0.00000  0.21074
      10     C     3.04880  3.04880  0.00000 -0.09759
      11     H     0.37912  0.37912  0.00000  0.24177
      12     C     2.73341  2.73341  0.00000  0.53318
      13     C     3.29087  3.29087  0.00000 -0.58173
      14     O     4.26445  4.26445  0.00000 -0.52889
      15     H     0.40416  0.40416  0.00000  0.19169
      16     H     0.39441  0.39441  0.00000  0.21119
      17     H     0.40775  0.40775  0.00000  0.18451

   Total alpha = 32.00000, Total beta = 32.00000, Total charge =  0.00000
