  ==> Input File <==

--------------------------------------------------------------------------
set {
	reference rhf
	basis 6-31G*
}

set_num_threads( 4 )
memory 2 gb

molecule MOL {
0 1

H	 2.572730	 -1.384834	 2.535158
O	 2.134767	 -1.430363	 1.690842
C	 1.360684	 -0.352339	 1.568059
C	 0.624473	 -0.343591	 0.253101
O	 1.290911	 0.474927	 2.417634
C	 -0.265902	 0.883932	 0.072916
H	 1.372093	 -0.423985	 -0.529186
H	 0.043252	 -1.260925	 0.203778
C	 -1.728698	 0.646073	 0.462102
H	 -0.209144	 1.219470	 -0.958188
H	 0.135059	 1.692851	 0.673903
C	 -2.482460	 -0.343073	 -0.431425
H	 -2.245265	 1.602650	 0.432430
H	 -1.779332	 0.308348	 1.496285
C	 -3.960546	 -0.461025	 -0.060175
H	 -2.395034	 -0.026811	 -1.468912
H	 -2.024850	 -1.327147	 -0.371646
H	 -4.472726	 -1.168004	 -0.705284
H	 -4.465146	 0.496508	 -0.151489
H	 -4.081218	 -0.800940	 0.964585

	symmetry c1
}
set optking {
	frozen_dihedral = ("
		7 4 6 10
	")
}

ee = optimize('scf')
oeprop('DIPOLE', 'QUADRUPOLE', 'MULLIKEN_CHARGES')
f=open( 'psi4out.xyz', 'w' )
f.write( "20  " )
f.write( str(ee) + "\n" )
f.write( MOL.save_string_xyz() )
f.close()
--------------------------------------------------------------------------

    Molecular point group: c1
  Charge       = 0
  Multiplicity = 1
  Basis Set: 6-31G*
  Basis Set:
  @DF-RHF Final Energy:  -383.94546851501326
    Total Energy =                       -383.9454685150135447
    Molecular point group: c1
  Basis Set: 6-31G*
  Basis Set:
  Basis Set: 6-31G*
  Basis Set:
  @DF-RHF Final Energy:  -383.94568514922082
    Total Energy =                       -383.9456851492210490
  Basis Set: 6-31G*
  Basis Set:
  Basis Set: 6-31G*
  Basis Set:
  @DF-RHF Final Energy:  -383.94596473283974
    Total Energy =                       -383.9459647328397978
  Basis Set: 6-31G*
  Basis Set:
  Basis Set: 6-31G*
  Basis Set:
  @DF-RHF Final Energy:  -383.94545693733818
    Total Energy =                       -383.9454569373381219
  Basis Set: 6-31G*
  Basis Set:
  @DF-RHF Final Energy:  -383.94591244717390
    Total Energy =                       -383.9459124471740097
  Basis Set: 6-31G*
  Basis Set:
  @DF-RHF Final Energy:  -383.94599437638925
    Total Energy =                       -383.9459943763891943
  Basis Set: 6-31G*
  Basis Set:
  Basis Set: 6-31G*
  Basis Set:
  @DF-RHF Final Energy:  -383.94601223417027
    Total Energy =                       -383.9460122341700981
  Basis Set: 6-31G*
  Basis Set:
  Basis Set: 6-31G*
  Basis Set:
  @DF-RHF Final Energy:  -383.94601380885143
    Total Energy =                       -383.9460138088511485
  Basis Set: 6-31G*
  Basis Set:
  Charge       = 0
  Multiplicity = 1
  Basis Set: 6-31G*
  Basis Set:

    Orbital Energies (a.u.)
    -----------------------

    Doubly Occupied:

       1A    -20.613237     2A    -20.552540     3A    -11.382019
       4A    -11.240047     5A    -11.221855     6A    -11.218625
       7A    -11.216839     8A    -11.210648     9A     -1.475459
      10A     -1.366390    11A     -1.093635    12A     -1.039271
      13A     -0.959454    14A     -0.869778    15A     -0.815438
      16A     -0.775527    17A     -0.701611    18A     -0.690998
      19A     -0.660970    20A     -0.634676    21A     -0.599763
      22A     -0.592841    23A     -0.573784    24A     -0.557147
      25A     -0.536010    26A     -0.508568    27A     -0.500642
      28A     -0.480959    29A     -0.465776    30A     -0.464943
      31A     -0.454077    32A     -0.445340

  @DF-RHF Final Energy:  -383.94601443161190

   => Energetics <=

    Nuclear Repulsion Energy =            380.3987543860708342
    One-Electron Energy =               -1276.8518056660846014
    Two-Electron Energy =                 512.5070368484019809
    DFT Exchange-Correlation Energy =       0.0000000000000000
    Empirical Dispersion Energy =           0.0000000000000000
    PCM Polarization Energy =               0.0000000000000000
    EFP Energy =                            0.0000000000000000
    Total Energy =                       -383.9460144316118431
    Molecular point group: c1
  Basis Set: 6-31G*
  Basis Set:

  -Total Gradient:
     Atom            X                  Y                   Z
    ------   -----------------  -----------------  -----------------
       1       -0.000003389198     0.000006635490    -0.000003708443
       2       -0.000014673000    -0.000030541016    -0.000013175469
       3        0.000042394644     0.000049551919    -0.000011986735
       4        0.003160902699     0.002880869025     0.002427654561
       5       -0.000022696280     0.000006275845    -0.000016124280
       6       -0.003605735310    -0.002973970082    -0.001333333825
       7       -0.002070900317    -0.001912559528    -0.001752181247
       8        0.000007468786     0.000014072788    -0.000009206075
       9        0.000013555087    -0.000038460980     0.000015566243
      10        0.002507060364     0.002025777551     0.000691133660
      11        0.000037931308    -0.000005937580     0.000005482208
      12       -0.000025958189    -0.000017463983     0.000013045450
      13        0.000010744277    -0.000010870376    -0.000002955303
      14       -0.000008994136     0.000002307811     0.000022340613
      15       -0.000003903488     0.000006845292    -0.000040172172
      16       -0.000016527313    -0.000015262941    -0.000009781150
      17       -0.000007838565     0.000014405123     0.000015883171
      18       -0.000010476452     0.000007571251    -0.000001253162
      19        0.000001284045     0.000001263556     0.000011515266
      20        0.000009751033    -0.000010509163    -0.000008743314

  **** Optimization is complete! (in 9 steps) ****
    Final optimized geometry and variables:
    Molecular point group: c1

    Geometry (in Angstrom), charge = 0, multiplicity = 1:

    H            2.917056968393    -1.210621152094     1.818472560894
    O            2.499320171657    -1.269706711833     0.964826082696
    C            1.710194825462    -0.206333126161     0.816026090592
    C            1.001613613735    -0.228070812503    -0.514485792787
    O            1.605826840154     0.624129563587     1.659142238986
    C            0.088775843796     0.981270149149    -0.755569640768
    H            1.752689290814    -0.329688479868    -1.291416874919
    H            0.448779926287    -1.162187356347    -0.549458153209
    C           -1.371564568070     0.769238660571    -0.343090392645
    H            0.146923549431     1.267517407457    -1.801997249553
    H            0.488441020606     1.819890870182    -0.198095750491
    C           -2.165245172078    -0.161435353001    -1.264085389365
    H           -1.866233118300     1.737305222002    -0.321628583961
    H           -1.402696026890     0.393445268046     0.677753458232
    C           -3.616967250928    -0.334435889806    -0.817897251613
    H           -2.143883474653     0.237185755068    -2.276276415556
    H           -1.692021450132    -1.139188358640    -1.313400557542
    H           -4.160957638135    -0.987873873090    -1.492850584044
    H           -4.135029897454     0.619946973084    -0.791713665610
    H           -3.672011456958    -0.766335741504     0.177309144586

  Mulliken Charges: (a.u.)
   Center  Symbol    Alpha    Beta     Spin     Total
       1     H     0.26766  0.26766  0.00000  0.46467
       2     O     4.35030  4.35030  0.00000 -0.70060
       3     C     2.62582  2.62582  0.00000  0.74837
       4     C     3.21429  3.21429  0.00000 -0.42859
       5     O     4.27927  4.27927  0.00000 -0.55854
       6     C     3.16246  3.16246  0.00000 -0.32491
       7     H     0.39500  0.39500  0.00000  0.21000
       8     H     0.39670  0.39670  0.00000  0.20661
       9     C     3.15530  3.15530  0.00000 -0.31060
      10     H     0.41826  0.41826  0.00000  0.16347
      11     H     0.39840  0.39840  0.00000  0.20319
      12     C     3.15367  3.15367  0.00000 -0.30733
      13     H     0.41860  0.41860  0.00000  0.16279
      14     H     0.41747  0.41747  0.00000  0.16507
      15     C     3.23911  3.23911  0.00000 -0.47822
      16     H     0.42269  0.42269  0.00000  0.15462
      17     H     0.42444  0.42444  0.00000  0.15112
      18     H     0.41903  0.41903  0.00000  0.16195
      19     H     0.42069  0.42069  0.00000  0.15862
      20     H     0.42084  0.42084  0.00000  0.15832

   Total alpha = 32.00000, Total beta = 32.00000, Total charge = -0.00000
