                              Psi4 1.0.54 Driver

  ==> Input File <==

--------------------------------------------------------------------------
set {
	reference rhf
	basis cc-pvtz
}

set_num_threads( 4 )
memory 2 gb

molecule MOL {
0 1

O	 -2.071633	 -1.227563	 -0.223463
C	 -1.652164	 -0.152425	 0.058082
C	 -0.327811	 0.006324	 0.778296
C	 -2.402515	 1.108629	 -0.298924
C	 0.843231	 -0.001575	 -0.211665
H	 -0.319484	 0.928173	 1.350354
H	 -0.227804	 -0.823091	 1.466705
C	 2.111694	 -0.608031	 0.381160
H	 1.052726	 1.012737	 -0.541781
H	 0.548562	 -0.560091	 -1.093479
C	 3.275463	 -0.629505	 -0.603900
H	 2.398618	 -0.048574	 1.267279
H	 1.900947	 -1.620284	 0.713527
H	 3.533072	 0.373220	 -0.928266
H	 3.029212	 -1.208874	 -1.487110
H	 4.158858	 -1.068826	 -0.155555
H	 -3.240910	 0.874416	 -0.936711
H	 -1.747554	 1.818823	 -0.790984
H	 -2.760419	 1.579708	 0.610998

	symmetry c1
}
set optking {
	frozen_dihedral = ("
		9 5 3 2
	")
}

ee,wfn = optimize('scf', return_wfn=True)
oeprop( wfn, 'DIPOLE', 'QUADRUPOLE', 'MULLIKEN_CHARGES')
f=open( 'psi4out.xyz', 'w' )
f.write( "19  " )
f.write( str(ee) + "\n" )
f.write( MOL.save_string_xyz() )
f.close()
--------------------------------------------------------------------------

    Molecular point group: c1
  Charge       = 0
  Multiplicity = 1
  Basis Set: CC-PVTZ
  Basis Set:
  @DF-RHF Final Energy:  -309.17435221570315
    Total Energy =                       -309.1743522157026973
    Molecular point group: c1
  Basis Set: CC-PVTZ
  Basis Set:
  Basis Set: CC-PVTZ
  Basis Set:
  @DF-RHF Final Energy:  -309.17456154015309
    Total Energy =                       -309.1745615401531495
  Basis Set: CC-PVTZ
  Basis Set:
  Basis Set: CC-PVTZ
  Basis Set:
  @DF-RHF Final Energy:  -309.17306964912217
    Total Energy =                       -309.1730696491222830
  Basis Set: CC-PVTZ
  Basis Set:
  Basis Set: CC-PVTZ
  Basis Set:
  @DF-RHF Final Energy:  -309.17473225671387
    Total Energy =                       -309.1747322567138099
  Basis Set: CC-PVTZ
  Basis Set:
  @DF-RHF Final Energy:  -309.17479657947848
    Total Energy =                       -309.1747965794786523
  Basis Set: CC-PVTZ
  Basis Set:
  @DF-RHF Final Energy:  -309.17483582080320
    Total Energy =                       -309.1748358208030822
  Basis Set: CC-PVTZ
  Basis Set:
  Basis Set: CC-PVTZ
  Basis Set:
  @DF-RHF Final Energy:  -309.17485832441679
    Total Energy =                       -309.1748583244168458
  Basis Set: CC-PVTZ
  Basis Set:
  Basis Set: CC-PVTZ
  Basis Set:
  @DF-RHF Final Energy:  -309.17486604671819
    Total Energy =                       -309.1748660467179661
  Basis Set: CC-PVTZ
  Basis Set:
  Charge       = 0
  Multiplicity = 1
  Basis Set: CC-PVTZ
  Basis Set:

    Orbital Energies (a.u.)
    -----------------------

    Doubly Occupied:

       1A    -20.537096     2A    -11.319159     3A    -11.230877
       4A    -11.227673     5A    -11.226346     6A    -11.223154
       7A    -11.213470     8A     -1.397040     9A     -1.093018
      10A     -1.030205    11A     -0.982975    12A     -0.892780
      13A     -0.808393    14A     -0.734970    15A     -0.666050
      16A     -0.642922    17A     -0.629104    18A     -0.614623
      19A     -0.581777    20A     -0.576744    21A     -0.555515
      22A     -0.532157    23A     -0.517022    24A     -0.503708
      25A     -0.481195    26A     -0.475222    27A     -0.472320
      28A     -0.399336

  @DF-RHF Final Energy:  -309.17486662564266

   => Energetics <=

    Nuclear Repulsion Energy =            302.0848450469246131
    One-Electron Energy =               -1017.3897258431095452
    Two-Electron Energy =                 406.1300141705423812
    DFT Exchange-Correlation Energy =       0.0000000000000000
    Empirical Dispersion Energy =           0.0000000000000000
    PCM Polarization Energy =               0.0000000000000000
    EFP Energy =                            0.0000000000000000
    Total Energy =                       -309.1748666256426077
    Molecular point group: c1
  Basis Set: CC-PVTZ
  Basis Set:

  -Total Gradient:
     Atom            X                  Y                   Z
    ------   -----------------  -----------------  -----------------
       1        0.000030194490     0.000034157693     0.000014180542
       2        0.000189324650    -0.002794042450     0.000050053770
       3        0.000279084754     0.003785728209     0.000679671809
       4        0.000008395772    -0.000001573526    -0.000018957147
       5       -0.003004418505    -0.001324644338    -0.003445342361
       6       -0.000025183160    -0.000000134784     0.000014067562
       7       -0.000016824394     0.000006730589    -0.000012674456
       8       -0.000007937970     0.000041518281    -0.000010007652
       9        0.002525146862     0.000220291513     0.002762669847
      10        0.000015853980    -0.000014240095    -0.000045648866
      11        0.000003984334    -0.000007949076    -0.000001916572
      12        0.000005444653     0.000009156774     0.000020178262
      13       -0.000018364037    -0.000004687701    -0.000001117379
      14        0.000007435841     0.000013442769     0.000000432718
      15       -0.000002981888    -0.000007541084    -0.000016656216
      16        0.000008518637    -0.000002820245    -0.000000988545
      17        0.000011234800     0.000002704717     0.000006340189
      18        0.000002666092     0.000023115527    -0.000022812053
      19       -0.000011574907     0.000020787226     0.000028526549

  **** Optimization is complete! (in 9 steps) ****
    Final optimized geometry and variables:
    Molecular point group: c1

    Geometry (in Angstrom), charge = 0, multiplicity = 1:

    O           -2.211181173496    -1.001599242095     0.106413975599
    C           -1.640875233017     0.038439868501     0.170242107329
    C           -0.277459969908     0.146885383458     0.821438596603
    C           -2.235290101760     1.301822306360    -0.407581832026
    C            0.856546728515     0.209017716513    -0.221099111260
    H           -0.237157787818     1.018317658277     1.465904769642
    H           -0.161363074619    -0.734198843894     1.437671206822
    C            2.155962945801    -0.400259666139     0.302951888553
    H            1.054169295317     1.242412579386    -0.487388066487
    H            0.561203816003    -0.311225031107    -1.126521293493
    C            3.306450844665    -0.291029855721    -0.691384598362
    H            2.432134039960     0.090964610880     1.232159121734
    H            1.985351472679    -1.444005727463     0.547445805659
    H            3.526922402392     0.745258767190    -0.925177283386
    H            3.068344860796    -0.795896365492    -1.621614962291
    H            4.209623810015    -0.739223915377    -0.294236443625
    H           -3.139177835413     1.071459481435    -0.950198065375
    H           -1.526323973489     1.795334551322    -1.062504305523
    H           -2.462952627193     1.992025610519     0.398418269445

  Mulliken Charges: (a.u.)
   Center  Symbol    Alpha    Beta     Spin     Total
       1     O     4.17553  4.17553  0.00000 -0.35106
       2     C     2.85959  2.85959  0.00000  0.28083
       3     C     3.09792  3.09792  0.00000 -0.19585
       4     C     3.15487  3.15487  0.00000 -0.30975
       5     C     3.09970  3.09970  0.00000 -0.19940
       6     H     0.44703  0.44703  0.00000  0.10594
       7     H     0.44004  0.44004  0.00000  0.11992
       8     C     3.08386  3.08386  0.00000 -0.16773
       9     H     0.45275  0.45275  0.00000  0.09451
      10     H     0.44612  0.44612  0.00000  0.10777
      11     C     3.14999  3.14999  0.00000 -0.29998
      12     H     0.45317  0.45317  0.00000  0.09366
      13     H     0.44932  0.44932  0.00000  0.10136
      14     H     0.45549  0.45549  0.00000  0.08902
      15     H     0.45330  0.45330  0.00000  0.09339
      16     H     0.44686  0.44686  0.00000  0.10628
      17     H     0.43559  0.43559  0.00000  0.12881
      18     H     0.44966  0.44966  0.00000  0.10069
      19     H     0.44921  0.44921  0.00000  0.10158

   Total alpha = 28.00000, Total beta = 28.00000, Total charge = -0.00000

*** Psi4 exiting successfully. Buy a developer a beer!
