  ==> Input File <==

--------------------------------------------------------------------------
set {
	reference rhf
	basis cc-pvtz
}

set_num_threads( 4 )
memory 2 gb

molecule MOL {
0 1

H	 -1.646555	 2.514399	 -0.291816
C	 -0.625053	 2.157480	 -0.302426
C	 -0.600949	 0.658697	 -0.000002
H	 -0.060975	 2.709950	 0.436950
H	 -0.200316	 2.362073	 -1.275989
C	 0.763408	 0.112229	 -0.000006
H	 -1.036877	 0.455015	 0.969232
H	 -1.175434	 0.109096	 -0.734059
N	 1.806008	 -0.317179	 0.000007

	symmetry c1
}
set optking {
	frozen_dihedral = ("
		7 3 6 9
	")
}

ee = optimize('scf')
oeprop('DIPOLE', 'QUADRUPOLE', 'MULLIKEN_CHARGES')
f=open( 'psi4out.xyz', 'w' )
f.write( "9  " )
f.write( str(ee) + "\n" )
f.write( MOL.save_string_xyz() )
f.close()
--------------------------------------------------------------------------

    Molecular point group: c1
  Charge       = 0
  Multiplicity = 1
  Basis Set: CC-PVTZ
  Basis Set:
  @DF-RHF Final Energy:  -171.02344254013258
    Total Energy =                       -171.0234425401325780
    Molecular point group: c1
  Basis Set: CC-PVTZ
  Basis Set:
  Basis Set: CC-PVTZ
  Basis Set:
  @DF-RHF Final Energy:  -170.98980083011202
    Total Energy =                       -170.9898008301120740
  Basis Set: CC-PVTZ
  Basis Set:
  Basis Set: CC-PVTZ
  Basis Set:
  @DF-RHF Final Energy:  -171.01317274542478
    Total Energy =                       -171.0131727454248107
  Basis Set: CC-PVTZ
  Basis Set:
  Basis Set: CC-PVTZ
  Basis Set:
  @DF-RHF Final Energy:  -171.02329611431475
    Total Energy =                       -171.0232961143148316
  Basis Set: CC-PVTZ
  Basis Set:
  @DF-RHF Final Energy:  -171.02333260312321
    Total Energy =                       -171.0233326031232082
  @DF-RHF Final Energy:  -171.02306231761219
    Total Energy =                       -171.0230623176122435
  @DF-RHF Final Energy:  -171.02334002668610
    Total Energy =                       -171.0233400266861281
  @DF-RHF Final Energy:  -171.02126330882635
    Total Energy =                       -171.0212633088262919
  @DF-RHF Final Energy:  -171.02324163824349
    Total Energy =                       -171.0232416382434906
  @DF-RHF Final Energy:  -171.02323730287759
    Total Energy =                       -171.0232373028775328
  @DF-RHF Final Energy:  -171.02336122267417
    Total Energy =                       -171.0233612226739410
  @DF-RHF Final Energy:  -171.02341681129593
    Total Energy =                       -171.0234168112958741
  @DF-RHF Final Energy:  -171.02170544584024
    Total Energy =                       -171.0217054458403254
  @DF-RHF Final Energy:  -171.02208840597865
    Total Energy =                       -171.0220884059786499
  @DF-RHF Final Energy:  -171.02186347179116
    Total Energy =                       -171.0218634717912494
  @DF-RHF Final Energy:  -171.01955438329335
    Total Energy =                       -171.0195543832933538
  @DF-RHF Final Energy:  -171.01948246740790
    Total Energy =                       -171.0194824674078404
  @DF-RHF Final Energy:  -171.00362998702536
    Total Energy =                       -171.0036299870253913
  @DF-RHF Final Energy:  -171.01993952544780
    Total Energy =                       -171.0199395254477963
  @DF-RHF Final Energy:  -171.01860076296271
    Total Energy =                       -171.0186007629627341
  @DF-RHF Final Energy:  -171.01770409285109
    Total Energy =                       -171.0177040928511474
  @DF-RHF Final Energy:  -171.02156166071654
    Total Energy =                       -171.0215616607164577
  @DF-RHF Final Energy:  -171.02125005453195
    Total Energy =                       -171.0212500545319472
  @DF-RHF Final Energy:  -171.02262263193487
    Total Energy =                       -171.0226226319348370
  @DF-RHF Final Energy:  -171.01105039378169
    Total Energy =                       -171.0110503937817725
  @DF-RHF Final Energy:  -171.01729220638683
    Total Energy =                       -171.0172922063867418
  @DF-RHF Final Energy:  -171.02200812832132
    Total Energy =                       -171.0220081283213744
  @DF-RHF Final Energy:  -171.02323207232490
    Total Energy =                       -171.0232320723248165
  @DF-RHF Final Energy:  -171.01975022949725
    Total Energy =                       -171.0197502294971343
  @DF-RHF Final Energy:  -171.02274833558727
    Total Energy =                       -171.0227483355873233
  @DF-RHF Final Energy:  -171.02209591088007
    Total Energy =                       -171.0220959108800400
  @DF-RHF Final Energy:  -171.02285510392764
    Total Energy =                       -171.0228551039276397
  @DF-RHF Final Energy:  -171.02327489977924
    Total Energy =                       -171.0232748997791532
  @DF-RHF Final Energy:  -171.02311823706177
    Total Energy =                       -171.0231182370618228
  @DF-RHF Final Energy:  -171.02332691781243
    Total Energy =                       -171.0233269178124260
  @DF-RHF Final Energy:  -171.02345525072394
    Total Energy =                       -171.0234552507239982
  Basis Set: CC-PVTZ
  Basis Set:
  @DF-RHF Final Energy:  -171.02343683098431
    Total Energy =                       -171.0234368309842807
  Basis Set: CC-PVTZ
  Basis Set:
  Basis Set: CC-PVTZ
  Basis Set:
  @DF-RHF Final Energy:  -171.02345065884651
    Total Energy =                       -171.0234506588465706
  Basis Set: CC-PVTZ
  Basis Set:
  Basis Set: CC-PVTZ
  Basis Set:
  @DF-RHF Final Energy:  -170.87311217518112
    Total Energy =                       -170.8731121751811770
  Basis Set: CC-PVTZ
  Basis Set:
  Charge       = 0
  Multiplicity = 1
  Basis Set: CC-PVTZ
  Basis Set:

    Orbital Energies (a.u.)
    -----------------------

    Doubly Occupied:

       1A    -15.632481     2A    -11.327133     3A    -11.284268
       4A    -11.244215     5A     -1.151800     6A     -1.062685
       7A     -0.912276     8A     -0.709688     9A     -0.656950
      10A     -0.592453    11A     -0.567011    12A     -0.538898
      13A     -0.526806    14A     -0.418425    15A     -0.408059

  @DF-RHF Final Energy:  -170.91008773161514

   => Energetics <=

    Nuclear Repulsion Energy =            100.9326229385381026
    One-Electron Energy =                -429.6191233287951832
    Two-Electron Energy =                 157.7764126586419593
    DFT Exchange-Correlation Energy =       0.0000000000000000
    Empirical Dispersion Energy =           0.0000000000000000
    PCM Polarization Energy =               0.0000000000000000
    EFP Energy =                            0.0000000000000000
    Total Energy =                       -170.9100877316151355
    Molecular point group: c1
  Basis Set: CC-PVTZ
  Basis Set:

  -Total Gradient:
     Atom            X                  Y                   Z
    ------   -----------------  -----------------  -----------------
       1       -0.003268141318     0.000868167349     0.000898949535
       2        0.002397391555    -0.004179531444     0.001393021482
       3        0.015055406955     0.010595333184     0.007678265471
       4        0.004538281506     0.006130391632     0.002802700255
       5        0.000347819514    -0.001169100993     0.000528565325
       6       -0.302788411356    -0.079039632445    -0.096205177617
       7       -0.000713238120     0.003672164906     0.002055345803
       8        0.002430799208    -0.008557629723    -0.004717727871
       9        0.282000092055     0.071679837534     0.085566057618

    Molecular point group: c1

    Geometry (in Angstrom), charge = 0, multiplicity = 1:

    H           -1.845978585105     1.768240748885    -0.089747746791
    C           -0.849424541143     1.351029080990    -0.195359048985
    C           -0.928995144177    -0.152071005029     0.042911890720
    H           -0.178984457065     1.845298444818     0.504028207832
    H           -0.491770300379     1.555886177883    -1.192481689858
    C            0.406403370015    -0.761966084416    -0.079283711183
    H           -1.270081802146    -0.339249270366     1.055383214571
    H           -1.591739076993    -0.677915634283    -0.643657035849
    N            1.562859509073    -0.673327580328     0.224958688458

  Mulliken Charges: (a.u.)
   Center  Symbol    Alpha    Beta     Spin     Total
       1     H     0.44995  0.44995  0.00000  0.10010
       2     C     3.12967  3.12967  0.00000 -0.25934
       3     C     3.06210  3.06210  0.00000 -0.12421
       4     H     0.44323  0.44323  0.00000  0.11355
       5     H     0.44501  0.44501  0.00000  0.10998
       6     C     3.00164  3.00164  0.00000 -0.00328
       7     H     0.43153  0.43153  0.00000  0.13693
       8     H     0.43645  0.43645  0.00000  0.12709
       9     N     3.60042  3.60042  0.00000 -0.20083

   Total alpha = 15.00000, Total beta = 15.00000, Total charge =  0.00000
