                              Psi4 1.0.54 Driver

  ==> Input File <==

--------------------------------------------------------------------------
set {
	reference rhf
	basis cc-pvtz
}

set_num_threads( 4 )
memory 2 gb

molecule MOL {
0 1

H	 2.462485	 -2.216993	 0.000000
O	 2.777472	 -1.330706	 0.000000
C	 1.763288	 -0.447523	 0.000000
C	 2.076676	 0.887099	 0.213760
C	 0.452787	 -0.824596	 -0.201894
H	 3.102083	 1.158615	 0.368604
C	 1.080019	 1.835734	 0.224493
H	 0.182558	 -1.846518	 -0.369075
C	 -0.521428	 0.153859	 -0.184597
H	 1.331622	 2.864762	 0.390462
C	 -0.243726	 1.481492	 0.024101
N	 -1.914048	 -0.254710	 -0.400188
H	 -1.027745	 2.206753	 0.029754
O	 -2.126324	 -1.408116	 -0.578143
O	 -2.742932	 0.591089	 -0.383702

	symmetry c1
}
set optking {
	frozen_dihedral = ("
		4 3 2 1
	")
}

ee,wfn = optimize('scf', return_wfn=True)
oeprop( wfn, 'DIPOLE', 'QUADRUPOLE', 'MULLIKEN_CHARGES')
f=open( 'psi4out.xyz', 'w' )
f.write( "15  " )
f.write( str(ee) + "\n" )
f.write( MOL.save_string_xyz() )
f.close()
--------------------------------------------------------------------------

    Molecular point group: c1
  Charge       = 0
  Multiplicity = 1
  Basis Set: CC-PVTZ
  Basis Set:
  @DF-RHF Final Energy:  -509.21895795051091
    Total Energy =                       -509.2189579505104575
    Molecular point group: c1
  Basis Set: CC-PVTZ
  Basis Set:
  Basis Set: CC-PVTZ
  Basis Set:
  @DF-RHF Final Energy:  -509.21895444355874
    Total Energy =                       -509.2189544435585731
  Basis Set: CC-PVTZ
  Basis Set:
  Basis Set: CC-PVTZ
  Basis Set:
  @DF-RHF Final Energy:  -509.21775448771183
    Total Energy =                       -509.2177544877119999
  Basis Set: CC-PVTZ
  Basis Set:
  Basis Set: CC-PVTZ
  Basis Set:
  @DF-RHF Final Energy:  -509.21895149444310
    Total Energy =                       -509.2189514944432176
  Basis Set: CC-PVTZ
  Basis Set:
  Charge       = 0
  Multiplicity = 1
  Basis Set: CC-PVTZ
  Basis Set:

    Orbital Energies (a.u.)
    -----------------------

    Doubly Occupied:

       1A    -20.607920     2A    -20.595065     3A    -20.594558
       4A    -15.850646     5A    -11.327389     6A    -11.308894
       7A    -11.263109     8A    -11.262789     9A    -11.258638
      10A    -11.256656    11A     -1.644296    12A     -1.440437
      13A     -1.426794    14A     -1.202486    15A     -1.095460
      16A     -1.047893    17A     -0.966774    18A     -0.881063
      19A     -0.832036    20A     -0.795519    21A     -0.755732
      22A     -0.743624    23A     -0.729550    24A     -0.709407
      25A     -0.677246    26A     -0.636221    27A     -0.623256
      28A     -0.595979    29A     -0.560396    30A     -0.546435
      31A     -0.520006    32A     -0.494983    33A     -0.493529
      34A     -0.460361    35A     -0.380174    36A     -0.346519

  @DF-RHF Final Energy:  -509.21896208403700

   => Energetics <=

    Nuclear Repulsion Energy =            504.7236463653198371
    One-Electron Energy =               -1696.0215391390111108
    Two-Electron Energy =                 682.0789306896546123
    DFT Exchange-Correlation Energy =       0.0000000000000000
    Empirical Dispersion Energy =           0.0000000000000000
    PCM Polarization Energy =               0.0000000000000000
    EFP Energy =                            0.0000000000000000
    Total Energy =                       -509.2189620840366615
    Molecular point group: c1
  Basis Set: CC-PVTZ
  Basis Set:

  -Total Gradient:
     Atom            X                  Y                   Z
    ------   -----------------  -----------------  -----------------
       1        0.000016367526    -0.000017716650     0.001022273446
       2       -0.000099646767    -0.000033558010    -0.000936824033
       3        0.000133757170     0.000073434823    -0.000830470716
       4       -0.000080936314     0.000002137156     0.000698497449
       5        0.000010273129    -0.000023526888     0.000010473240
       6       -0.000005927769    -0.000003996727    -0.000009382964
       7        0.000031762587    -0.000046234284     0.000076880796
       8        0.000004291160    -0.000013279377     0.000018033580
       9       -0.000040706375     0.000115066597    -0.000057712536
      10       -0.000006290591     0.000006931851     0.000000060451
      11       -0.000058534540    -0.000041485665    -0.000031078948
      12       -0.000168619038    -0.000121218637     0.000086464637
      13       -0.000006996188     0.000008266553    -0.000011396870
      14        0.000145332013    -0.000093567820    -0.000035655529
      15        0.000125874004     0.000188747078    -0.000000162004

  **** Optimization is complete! (in 5 steps) ****
    Final optimized geometry and variables:
    Molecular point group: c1

    Geometry (in Angstrom), charge = 0, multiplicity = 1:

    H            2.454871527215    -2.226233082893     0.130456486864
    O            2.769919322387    -1.339988367945     0.133231443304
    C            1.755452422464    -0.456300310389     0.138972268476
    C            2.068229931470     0.877574133072     0.357142182687
    C            0.444940145140    -0.833479013610    -0.063126720691
    H            3.093217651515     1.148648297928     0.515355183533
    C            1.071601384467     1.826527151368     0.366661338450
    H            0.175786702054    -1.854886788653    -0.234780064411
    C           -0.529632038017     0.144400307805    -0.042652444501
    H            1.322825586445     2.855248870733     0.535098423776
    C           -0.251932550410     1.472145981341     0.166215929557
    N           -1.922422059985    -0.264368971671    -0.256116264540
    H           -1.036180773167     2.197143161353     0.173042206246
    O           -2.135612347316    -1.418808527317    -0.426076290191
    O           -2.750082343878     0.582795931705    -0.246080532913

  Mulliken Charges: (a.u.)
   Center  Symbol    Alpha    Beta     Spin     Total
       1     H     0.38380  0.38380  0.00000  0.23240
       2     O     4.16948  4.16948  0.00000 -0.33896
       3     C     2.84484  2.84484  0.00000  0.31032
       4     C     3.09735  3.09735  0.00000 -0.19470
       5     C     3.13266  3.13266  0.00000 -0.26531
       6     H     0.41299  0.41299  0.00000  0.17403
       7     C     3.05688  3.05688  0.00000 -0.11376
       8     H     0.40674  0.40674  0.00000  0.18652
       9     C     2.98285  2.98285  0.00000  0.03430
      10     H     0.41595  0.41595  0.00000  0.16810
      11     C     3.09498  3.09498  0.00000 -0.18996
      12     N     3.24899  3.24899  0.00000  0.50201
      13     H     0.39947  0.39947  0.00000  0.20106
      14     O     4.17839  4.17839  0.00000 -0.35677
      15     O     4.17463  4.17463  0.00000 -0.34927

   Total alpha = 36.00000, Total beta = 36.00000, Total charge = -0.00000

*** Psi4 exiting successfully. Buy a developer a beer!
