  ==> Input File <==

--------------------------------------------------------------------------
set {
	reference rhf
	basis 6-31G*
}

set_num_threads( 4 )
memory 2 gb

molecule MOL {
0 1

H	 -4.031818	 -0.453427	 -0.000094
C	 -2.967712	 -0.297022	 -0.000064
C	 -2.458620	 0.992929	 0.000032
C	 -2.109895	 -1.385637	 -0.000122
H	 -3.124998	 1.836319	 0.000077
C	 -1.090278	 1.193236	 0.000070
H	 -2.506361	 -2.384847	 -0.000198
C	 -0.739812	 -1.187531	 -0.000085
H	 -0.678594	 2.184290	 0.000146
C	 -0.226438	 0.104061	 0.000012
H	 -0.072310	 -2.027032	 -0.000131
C	 1.239129	 0.373821	 0.000060
O	 1.891461	 -0.302662	 0.933568
O	 1.778751	 1.118861	 -0.756632
C	 3.292477	 -0.105891	 1.005033
H	 3.763264	 -0.397642	 0.077652
H	 3.636162	 -0.732055	 1.813521
H	 3.519062	 0.930280	 1.209798

	symmetry c1
}
set optking {
	frozen_dihedral = ("
		13 12 10 6
	")
}

ee = optimize('scf')
oeprop('DIPOLE', 'QUADRUPOLE', 'MULLIKEN_CHARGES')
f=open( 'psi4out.xyz', 'w' )
f.write( "18  " )
f.write( str(ee) + "\n" )
f.write( MOL.save_string_xyz() )
f.close()
--------------------------------------------------------------------------

    Molecular point group: c1
  Charge       = 0
  Multiplicity = 1
  Basis Set: 6-31G*
  Basis Set:
  @DF-RHF Final Energy:  -457.34385484510960
    Total Energy =                       -457.3438548451099450
    Molecular point group: c1
  Basis Set: 6-31G*
  Basis Set:
  Basis Set: 6-31G*
  Basis Set:
  @DF-RHF Final Energy:  -457.34157313889875
    Total Energy =                       -457.3415731388988661
  Basis Set: 6-31G*
  Basis Set:
  Basis Set: 6-31G*
  Basis Set:
  @DF-RHF Final Energy:  -457.34434988079607
    Total Energy =                       -457.3443498807960168
  Basis Set: 6-31G*
  Basis Set:
  Basis Set: 6-31G*
  Basis Set:
  @DF-RHF Final Energy:  -457.34443526558198
    Total Energy =                       -457.3444352655820921
  Basis Set: 6-31G*
  Basis Set:
  Basis Set: 6-31G*
  Basis Set:
  @DF-RHF Final Energy:  -457.34443673908658
    Total Energy =                       -457.3444367390864045
  Basis Set: 6-31G*
  Basis Set:
  Charge       = 0
  Multiplicity = 1
  Basis Set: 6-31G*
  Basis Set:

    Orbital Energies (a.u.)
    -----------------------

    Doubly Occupied:

       1A    -20.609220     2A    -20.547563     3A    -11.378933
       4A    -11.283355     5A    -11.248650     6A    -11.244556
       7A    -11.243361     8A    -11.242700     9A    -11.238959
      10A    -11.238382    11A     -1.474019    12A     -1.365931
      13A     -1.166361    14A     -1.048849    15A     -1.025672
      16A     -0.979009    17A     -0.860059    18A     -0.836994
      19A     -0.779175    20A     -0.738287    21A     -0.684291
      22A     -0.678676    23A     -0.674939    24A     -0.630344
      25A     -0.628247    26A     -0.597411    27A     -0.589355
      28A     -0.553172    29A     -0.533789    30A     -0.516243
      31A     -0.506790    32A     -0.501744    33A     -0.458672
      34A     -0.444400    35A     -0.343476    36A     -0.342118

  @DF-RHF Final Energy:  -457.34443714254780

   => Energetics <=

    Nuclear Repulsion Energy =            492.4762446053032363
    One-Electron Energy =               -1599.1739573322988690
    Two-Electron Energy =                 649.3532755844473741
    DFT Exchange-Correlation Energy =       0.0000000000000000
    Empirical Dispersion Energy =           0.0000000000000000
    PCM Polarization Energy =               0.0000000000000000
    EFP Energy =                            0.0000000000000000
    Total Energy =                       -457.3444371425482586
    Molecular point group: c1
  Basis Set: 6-31G*
  Basis Set:

  -Total Gradient:
     Atom            X                  Y                   Z
    ------   -----------------  -----------------  -----------------
       1       -0.000001728377     0.000007072860     0.000006273191
       2        0.000014059580    -0.000074765226    -0.000010541736
       3        0.000061153116     0.000043651135     0.000025107254
       4       -0.000069358091     0.000034870130    -0.000032420129
       5       -0.000005625440    -0.000005272558    -0.000008622513
       6       -0.000131473276    -0.000077746170     0.005565320263
       7        0.000007938189     0.000001270742     0.000006520275
       8        0.000058762128     0.000067987670    -0.000020985088
       9        0.000006793591    -0.000002873135     0.000001111143
      10       -0.000163560809     0.001446482840    -0.006742117219
      11        0.000001143316    -0.000007951855     0.000002107159
      12        0.001052776143    -0.005588870932    -0.002434602270
      13       -0.000819763138     0.004134330385     0.003662429274
      14       -0.000011693271     0.000020838747    -0.000026280061
      15       -0.000004163878     0.000011275512     0.000011497057
      16       -0.000002329992    -0.000001503191    -0.000001440359
      17       -0.000001272657    -0.000003768522    -0.000002193437
      18        0.000008342863    -0.000005028436    -0.000001162804

  **** Optimization is complete! (in 6 steps) ****
    Final optimized geometry and variables:
    Molecular point group: c1

    Geometry (in Angstrom), charge = 0, multiplicity = 1:

    H           -4.011733975100    -0.537154991280    -0.088256022265
    C           -2.949381661256    -0.371943596478    -0.109648918251
    C           -2.450489892857     0.920832347716    -0.126841290754
    C           -2.081263807170    -1.452797839382    -0.113273233727
    H           -3.123039378000     1.759306683067    -0.113355284739
    C           -1.083103030980     1.134034555896    -0.163786591889
    H           -2.468194654655    -2.455587969361    -0.094965105089
    C           -0.713423352910    -1.241637580495    -0.125167554635
    H           -0.686486332003     2.131922081546    -0.194354047812
    C           -0.213546731344     0.052557529484    -0.175790418785
    H           -0.037350748273    -2.076150722968    -0.099412094129
    C            1.255482137355     0.319495935938    -0.155273599781
    O            1.880930221005    -0.383639611047     0.776292921404
    O            1.800140541691     1.118524231667    -0.848243372534
    C            3.282213113033    -0.199957211995     0.883296188229
    H            3.771581748445    -0.455959408271    -0.045367677748
    H            3.605105964482    -0.860405094670     1.672633951471
    H            3.509486449805     0.825658031340     1.134749227631

  Mulliken Charges: (a.u.)
   Center  Symbol    Alpha    Beta     Spin     Total
       1     H     0.39594  0.39594  0.00000  0.20811
       2     C     3.09367  3.09367  0.00000 -0.18733
       3     C     3.10331  3.10331  0.00000 -0.20662
       4     C     3.10405  3.10405  0.00000 -0.20810
       5     H     0.39552  0.39552  0.00000  0.20896
       6     C     3.09525  3.09525  0.00000 -0.19051
       7     H     0.39601  0.39601  0.00000  0.20797
       8     C     3.09103  3.09103  0.00000 -0.18206
       9     H     0.38326  0.38326  0.00000  0.23348
      10     C     3.03093  3.03093  0.00000 -0.06186
      11     H     0.38823  0.38823  0.00000  0.22354
      12     C     2.62171  2.62171  0.00000  0.75659
      13     O     4.29996  4.29996  0.00000 -0.59993
      14     O     4.28437  4.28437  0.00000 -0.56873
      15     C     3.09419  3.09419  0.00000 -0.18837
      16     H     0.40841  0.40841  0.00000  0.18319
      17     H     0.40700  0.40700  0.00000  0.18600
      18     H     0.40716  0.40716  0.00000  0.18568

   Total alpha = 36.00000, Total beta = 36.00000, Total charge =  0.00000
