                              Psi4 1.0.54 Driver

  ==> Input File <==

--------------------------------------------------------------------------
set {
	reference rhf
	basis cc-pvtz
}

set_num_threads( 4 )
memory 2 gb

molecule MOL {
0 1

H	 3.273419	 0.176595	 -0.102789
N	 2.433987	 -0.362316	 -0.080024
C	 1.263552	 0.494993	 0.021953
H	 2.497638	 -0.973615	 0.707122
C	 -0.016533	 -0.325589	 -0.026925
H	 1.280915	 1.180773	 -0.818522
H	 1.263064	 1.106893	 0.925038
C	 -1.280353	 0.525521	 0.047747
H	 -0.016686	 -0.912532	 -0.939714
H	 -0.014099	 -1.037598	 0.796369
C	 -2.484687	 -0.135216	 -0.614822
H	 -1.094117	 1.486612	 -0.424043
H	 -1.514332	 0.737491	 1.087553
H	 -2.294907	 -0.329838	 -1.664981
H	 -3.364391	 0.494618	 -0.548636
H	 -2.720183	 -1.082922	 -0.141984

	symmetry c1
}
set optking {
	frozen_dihedral = ("
		12 8 5 9
	")
}

ee,wfn = optimize('scf', return_wfn=True)
oeprop( wfn, 'DIPOLE', 'QUADRUPOLE', 'MULLIKEN_CHARGES')
f=open( 'psi4out.xyz', 'w' )
f.write( "16  " )
f.write( str(ee) + "\n" )
f.write( MOL.save_string_xyz() )
f.close()
--------------------------------------------------------------------------

    Molecular point group: c1
  Charge       = 0
  Multiplicity = 1
  Basis Set: CC-PVTZ
  Basis Set:
  @DF-RHF Final Energy:  -212.39815767942792
    Total Energy =                       -212.3981576794278112
    Molecular point group: c1
  Basis Set: CC-PVTZ
  Basis Set:
  Basis Set: CC-PVTZ
  Basis Set:
  @DF-RHF Final Energy:  -212.39837259650531
    Total Energy =                       -212.3983725965052258
  Basis Set: CC-PVTZ
  Basis Set:
  Basis Set: CC-PVTZ
  Basis Set:
  @DF-RHF Final Energy:  -212.39842985149147
    Total Energy =                       -212.3984298514917555
  Basis Set: CC-PVTZ
  Basis Set:
  Basis Set: CC-PVTZ
  Basis Set:
  @DF-RHF Final Energy:  -212.39843116306423
    Total Energy =                       -212.3984311630642310
  Basis Set: CC-PVTZ
  Basis Set:
  Charge       = 0
  Multiplicity = 1
  Basis Set: CC-PVTZ
  Basis Set:

    Orbital Energies (a.u.)
    -----------------------

    Doubly Occupied:

       1A    -15.526687     2A    -11.238603     3A    -11.212910
       4A    -11.207810     5A    -11.206106     6A     -1.178559
       7A     -1.059861     8A     -0.960022     9A     -0.845031
      10A     -0.792888    11A     -0.665084    12A     -0.632759
      13A     -0.613223    14A     -0.575392    15A     -0.563483
      16A     -0.529654    17A     -0.498005    18A     -0.473276
      19A     -0.464761    20A     -0.458794    21A     -0.384092

  @DF-RHF Final Energy:  -212.39843128671544

   => Energetics <=

    Nuclear Repulsion Energy =            186.5269896365672366
    One-Electron Energy =                -655.6768449808221249
    Two-Electron Energy =                 256.7514240575393387
    DFT Exchange-Correlation Energy =       0.0000000000000000
    Empirical Dispersion Energy =           0.0000000000000000
    PCM Polarization Energy =               0.0000000000000000
    EFP Energy =                            0.0000000000000000
    Total Energy =                       -212.3984312867155495
    Molecular point group: c1
  Basis Set: CC-PVTZ
  Basis Set:

  -Total Gradient:
     Atom            X                  Y                   Z
    ------   -----------------  -----------------  -----------------
       1        0.000004972502     0.000003626751     0.000003893261
       2        0.000006644959    -0.000010171929    -0.000005906041
       3       -0.000023430324     0.000016926694    -0.000006312404
       4        0.000001320968    -0.000004219960     0.000006559397
       5        0.002517975439     0.003937867037    -0.001453857972
       6       -0.000001152706    -0.000003817277     0.000000331081
       7        0.000003867206    -0.000008627201    -0.000004189342
       8       -0.001898340831    -0.002437434964    -0.003718059299
       9       -0.001786602399    -0.002876504528     0.001801773304
      10       -0.000001870859    -0.000002650617     0.000009204589
      11       -0.000009048475     0.000000339217    -0.000003954160
      12        0.001177332709     0.001380308867     0.003354807081
      13       -0.000005455303    -0.000000764026     0.000007128454
      14        0.000003911708     0.000002484283     0.000008756488
      15        0.000004717506    -0.000000662688     0.000000023962
      16        0.000005157900     0.000003300340    -0.000000198400

  **** Optimization is complete! (in 5 steps) ****
    Final optimized geometry and variables:
    Molecular point group: c1

    Geometry (in Angstrom), charge = 0, multiplicity = 1:

    H            3.266990085597     0.130769005053     0.104020579876
    N            2.424541817890    -0.403909374304     0.097699984940
    C            1.255443220694     0.459167500494     0.144046556931
    H            2.453247622554    -1.008687031860     0.891857668888
    C           -0.025343059973    -0.353437324785     0.048209906546
    H            1.309936193865     1.138547736556    -0.699852969271
    H            1.219031142268     1.078603863462     1.041778724245
    C           -1.295294298671     0.496197957878     0.143561469546
    H           -0.022761894291    -0.931861548625    -0.869812605933
    H           -0.035126627929    -1.091116557682     0.848628105908
    C           -2.518474783671    -0.169759060479    -0.474361822373
    H           -1.123220137955     1.466360200121    -0.315139127283
    H           -1.498045883341     0.712568316318     1.189047163280
    H           -2.377051643105    -0.336684868905    -1.536645727985
    H           -3.405321607131     0.440708213002    -0.348441776630
    H           -2.711807283401    -1.132912120097    -0.013299491411

  Mulliken Charges: (a.u.)
   Center  Symbol    Alpha    Beta     Spin     Total
       1     H     0.43020  0.43020  0.00000  0.13961
       2     N     3.68938  3.68938  0.00000 -0.37877
       3     C     3.02620  3.02620  0.00000 -0.05239
       4     H     0.43079  0.43079  0.00000  0.13841
       5     C     3.08071  3.08071  0.00000 -0.16142
       6     H     0.45677  0.45677  0.00000  0.08647
       7     H     0.46816  0.46816  0.00000  0.06368
       8     C     3.08997  3.08997  0.00000 -0.17995
       9     H     0.45050  0.45050  0.00000  0.09899
      10     H     0.45984  0.45984  0.00000  0.08031
      11     C     3.14769  3.14769  0.00000 -0.29539
      12     H     0.45622  0.45622  0.00000  0.08757
      13     H     0.45522  0.45522  0.00000  0.08957
      14     H     0.45430  0.45430  0.00000  0.09141
      15     H     0.44939  0.44939  0.00000  0.10122
      16     H     0.45466  0.45466  0.00000  0.09068

   Total alpha = 21.00000, Total beta = 21.00000, Total charge = -0.00000

*** Psi4 exiting successfully. Buy a developer a beer!
