                              Psi4 1.0.54 Driver

  ==> Input File <==

--------------------------------------------------------------------------
set {
	reference rhf
	basis cc-pvtz
}

set_num_threads( 4 )
memory 2 gb

molecule MOL {
0 1

O	 1.439020	 0.932665	 0.805140
C	 1.121787	 0.124983	 0.000110
C	 -0.170912	 -0.649867	 -0.000147
O	 1.882480	 -0.208932	 -1.029562
C	 -1.413045	 0.229353	 0.001137
H	 -0.152877	 -1.303435	 -0.866175
H	 -0.152278	 -1.305116	 0.864586
C	 -2.702562	 -0.586401	 0.000228
H	 -1.390744	 0.882001	 -0.864365
H	 -1.390549	 0.879837	 0.868264
C	 -3.953810	 0.284959	 -0.000782
H	 -2.717793	 -1.238567	 -0.869075
H	 -2.719108	 -1.238472	 0.869576
H	 -3.983727	 0.924403	 -0.876454
H	 -4.852989	 -0.320147	 -0.001515
H	 -3.985140	 0.924399	 0.874841
C	 3.129920	 0.443661	 -1.153390
H	 2.993857	 1.509973	 -1.256786
H	 3.590463	 0.039575	 -2.040229
H	 3.749188	 0.249544	 -0.290228

	symmetry c1
}
set optking {
	frozen_dihedral = ("
		1 2 3 6
	")
}

ee,wfn = optimize('scf', return_wfn=True)
oeprop( wfn, 'DIPOLE', 'QUADRUPOLE', 'MULLIKEN_CHARGES')
f=open( 'psi4out.xyz', 'w' )
f.write( "20  " )
f.write( str(ee) + "\n" )
f.write( MOL.save_string_xyz() )
f.close()
--------------------------------------------------------------------------

    Molecular point group: c1
  Charge       = 0
  Multiplicity = 1
  Basis Set: CC-PVTZ
  Basis Set:
  @DF-RHF Final Energy:  -384.08132337357034
    Total Energy =                       -384.0813233735700578
    Molecular point group: c1
  Basis Set: CC-PVTZ
  Basis Set:
  Basis Set: CC-PVTZ
  Basis Set:
  @DF-RHF Final Energy:  -384.07810031321827
    Total Energy =                       -384.0781003132185560
  Basis Set: CC-PVTZ
  Basis Set:
  Basis Set: CC-PVTZ
  Basis Set:
  @DF-RHF Final Energy:  -384.08185496986130
    Total Energy =                       -384.0818549698616380
  Basis Set: CC-PVTZ
  Basis Set:
  Basis Set: CC-PVTZ
  Basis Set:
  @DF-RHF Final Energy:  -384.08121356255384
    Total Energy =                       -384.0812135625538986
  Basis Set: CC-PVTZ
  Basis Set:
  Basis Set: CC-PVTZ
  Basis Set:
  @DF-RHF Final Energy:  -384.08188486895710
    Total Energy =                       -384.0818848689567631
  Basis Set: CC-PVTZ
  Basis Set:
  Basis Set: CC-PVTZ
  Basis Set:
  @DF-RHF Final Energy:  -384.08194416389000
    Total Energy =                       -384.0819441638901708
  Basis Set: CC-PVTZ
  Basis Set:
  Basis Set: CC-PVTZ
  Basis Set:
  @DF-RHF Final Energy:  -384.08194526376093
    Total Energy =                       -384.0819452637613267
  Basis Set: CC-PVTZ
  Basis Set:
  Charge       = 0
  Multiplicity = 1
  Basis Set: CC-PVTZ
  Basis Set:

    Orbital Energies (a.u.)
    -----------------------

    Doubly Occupied:

       1A    -20.598831     2A    -20.531283     3A    -11.364163
       4A    -11.278626     5A    -11.232442     6A    -11.223455
       7A    -11.220262     8A    -11.210573     9A     -1.472682
      10A     -1.364651    11A     -1.091496    12A     -1.025178
      13A     -0.970364    14A     -0.888172    15A     -0.805784
      16A     -0.773774    17A     -0.697689    18A     -0.684153
      19A     -0.676005    20A     -0.648218    21A     -0.599528
      22A     -0.593340    23A     -0.575864    24A     -0.552066
      25A     -0.535269    26A     -0.524303    27A     -0.504676
      28A     -0.479959    29A     -0.478255    30A     -0.473642
      31A     -0.458076    32A     -0.436058

  @DF-RHF Final Energy:  -384.08194540063886

   => Energetics <=

    Nuclear Repulsion Energy =            382.2834131776090203
    One-Electron Energy =               -1280.7930431583868085
    Two-Electron Energy =                 514.4276845801387026
    DFT Exchange-Correlation Energy =       0.0000000000000000
    Empirical Dispersion Energy =           0.0000000000000000
    PCM Polarization Energy =               0.0000000000000000
    EFP Energy =                            0.0000000000000000
    Total Energy =                       -384.0819454006391425
    Molecular point group: c1
  Basis Set: CC-PVTZ
  Basis Set:

  -Total Gradient:
     Atom            X                  Y                   Z
    ------   -----------------  -----------------  -----------------
       1        0.000162768998    -0.000366116089     0.000146745889
       2       -0.000204611448     0.000459891293    -0.000169081266
       3       -0.000115088706     0.000256167634    -0.000135373841
       4        0.000020825568     0.000000694816    -0.000004677600
       5        0.000001117956     0.000002234066     0.000013157105
       6        0.000155390691    -0.000357094203     0.000132881004
       7       -0.000008951068     0.000012094306     0.000000732522
       8        0.000004419214    -0.000001808743     0.000009096834
       9        0.000006664190    -0.000007003780     0.000000296975
      10       -0.000007764491     0.000003802671     0.000008087245
      11        0.000000895086     0.000000747822    -0.000002414845
      12        0.000006657772    -0.000001622678    -0.000001098095
      13       -0.000001791393    -0.000000674983     0.000003993566
      14        0.000000182207     0.000004187715    -0.000001608020
      15       -0.000003702621     0.000000130103    -0.000003503093
      16       -0.000000041940    -0.000000264958     0.000002455047
      17       -0.000016032970    -0.000008285035    -0.000004944705
      18       -0.000000951714     0.000010452371     0.000003824165
      19       -0.000001735362    -0.000003738093    -0.000005268090
      20        0.000001750032    -0.000003794237     0.000006699202

  **** Optimization is complete! (in 8 steps) ****
    Final optimized geometry and variables:
    Molecular point group: c1

    Geometry (in Angstrom), charge = 0, multiplicity = 1:

    O            1.501645942202     0.459736948811     1.112263467286
    C            1.160179823384    -0.107681042539     0.129916431682
    C           -0.182635790914    -0.773482244113    -0.039295024076
    O            1.928819561602    -0.230831456807    -0.937713039939
    C           -1.337667409845     0.198892595650     0.203479637406
    H           -0.245247570395    -1.217872976024    -1.022442952386
    H           -0.222946321328    -1.575192604968     0.690525822112
    C           -2.700699805994    -0.479101318500     0.106358809188
    H           -1.284460158463     1.007000183940    -0.521072698629
    H           -1.217390358338     0.649736841797     1.181050120736
    C           -3.858901729079     0.485011425011     0.338924490767
    H           -2.806761970622    -0.941090427595    -0.871331007699
    H           -2.751479627930    -1.285701688836     0.832551391374
    H           -3.855237168202     1.284986838069    -0.393789163914
    H           -4.812634813438    -0.024644645574     0.267166468584
    H           -3.798238669119     0.938358191196     1.322387236554
    C            3.217985182570     0.346522518839    -0.876608720902
    H            3.150569130202     1.412099213745    -0.715487192965
    H            3.680869796419     0.141595206199    -1.828230221199
    H            3.794961553638    -0.094845061582    -0.077662617205

  Mulliken Charges: (a.u.)
   Center  Symbol    Alpha    Beta     Spin     Total
       1     O     4.20442  4.20442  0.00000 -0.40883
       2     C     2.81351  2.81351  0.00000  0.37298
       3     C     3.08129  3.08129  0.00000 -0.16257
       4     O     4.14379  4.14379  0.00000 -0.28759
       5     C     3.09211  3.09211  0.00000 -0.18422
       6     H     0.43959  0.43959  0.00000  0.12083
       7     H     0.44499  0.44499  0.00000  0.11001
       8     C     3.08828  3.08828  0.00000 -0.17655
       9     H     0.45206  0.45206  0.00000  0.09589
      10     H     0.43939  0.43939  0.00000  0.12122
      11     C     3.14918  3.14918  0.00000 -0.29837
      12     H     0.45439  0.45439  0.00000  0.09121
      13     H     0.45323  0.45323  0.00000  0.09354
      14     H     0.45458  0.45458  0.00000  0.09085
      15     H     0.44796  0.44796  0.00000  0.10409
      16     H     0.45309  0.45309  0.00000  0.09381
      17     C     3.03486  3.03486  0.00000 -0.06971
      18     H     0.45404  0.45404  0.00000  0.09193
      19     H     0.44513  0.44513  0.00000  0.10973
      20     H     0.45413  0.45413  0.00000  0.09174

   Total alpha = 32.00000, Total beta = 32.00000, Total charge = -0.00000

*** Psi4 exiting successfully. Buy a developer a beer!
