  ==> Input File <==

--------------------------------------------------------------------------
set {
	reference rhf
	basis 6-31G*
}

set_num_threads( 1 )
memory 2 gb

molecule MOL {
0 1

O	 0.625848	 1.349995	 -0.000749
C	 0.486307	 0.169203	 0.000779
C	 1.608116	 -0.841643	 0.000302
O	 -0.698257	 -0.426125	 0.001050
C	 2.990107	 -0.200498	 -0.000684
H	 1.468623	 -1.481519	 -0.865924
H	 1.469683	 -1.481289	 0.866878
H	 3.129736	 0.423364	 -0.875135
H	 3.757882	 -0.966877	 -0.001197
H	 3.130964	 0.423383	 0.873533
C	 -0.921839	 -1.446660	 -0.966379
C	 -2.329511	 -1.965273	 -0.761899
H	 -0.185016	 -2.226876	 -0.832444
H	 -0.788940	 -1.030086	 -1.955518
H	 -2.447878	 -2.374095	 0.235102
H	 -2.542821	 -2.748669	 -1.481925
H	 -3.055204	 -1.170834	 -0.894157

	symmetry c1
}
set optking {
	frozen_dihedral = ("
		2 4 11 13,
		4 2 3 6
	")
}

ee = energy('scf')
oeprop('DIPOLE', 'QUADRUPOLE', 'MULLIKEN_CHARGES')
f=open( 'psi4out.xyz', 'w' )
f.write( "17  " )
f.write( str(ee) + "\n" )
f.write( MOL.save_string_xyz() )
f.close()
--------------------------------------------------------------------------

    Molecular point group: c1

    Geometry (in Angstrom), charge = 0, multiplicity = 1:

       Center              X                  Y                   Z               Mass
    ------------   -----------------  -----------------  -----------------  -----------------
           O          0.382796296544     1.833726897086     0.251035183732    15.994914619560
           C          0.243255296544     0.652934897086     0.252563183732    12.000000000000
           C          1.365064296544    -0.357911102914     0.252086183732    12.000000000000
           O         -0.941308703456     0.057606897086     0.252834183732    15.994914619560
           C          2.747055296544     0.283233897086     0.251100183732    12.000000000000
           H          1.225571296544    -0.997787102914    -0.614139816268     1.007825032070
           H          1.226631296544    -0.997557102914     1.118662183732     1.007825032070
           H          2.886684296544     0.907095897086    -0.623350816268     1.007825032070
           H          3.514830296544    -0.483145102914     0.250587183732     1.007825032070
           H          2.887912296544     0.907114897086     1.125317183732     1.007825032070
           C         -1.164890703456    -0.962928102914    -0.714594816268    12.000000000000
           C         -2.572562703456    -1.481541102914    -0.510114816268    12.000000000000
           H         -0.428067703456    -1.743144102914    -0.580659816268     1.007825032070
           H         -1.031991703456    -0.546354102914    -1.703733816268     1.007825032070
           H         -2.690929703456    -1.890363102914     0.486886183732     1.007825032070
           H         -2.785872703456    -2.264937102914    -1.230140816268     1.007825032070
           H         -3.298255703456    -0.687102102914    -0.642372816268     1.007825032070

  Charge       = 0
  Multiplicity = 1
  Basis Set: 6-31G*
  Basis Set:

    Orbital Energies (a.u.)
    -----------------------

    Doubly Occupied:

       1A    -20.592845     2A    -20.550036     3A    -11.373061
       4A    -11.300875     5A    -11.240690     6A    -11.229246
       7A    -11.218132     8A     -1.463631     9A     -1.368319
      10A     -1.064005    11A     -1.046736    12A     -0.902740
      13A     -0.883020    14A     -0.771738    15A     -0.703543
      16A     -0.690641    17A     -0.659750    18A     -0.640665
      19A     -0.600836    20A     -0.568565    21A     -0.558645
      22A     -0.540454    23A     -0.529210    24A     -0.517454
      25A     -0.511754    26A     -0.484706    27A     -0.453312
      28A     -0.431327

  @DF-RHF Final Energy:  -344.88640965753353

   => Energetics <=

    Nuclear Repulsion Energy =            317.4466162499535926
    One-Electron Energy =               -1098.8741437437265631
    Two-Electron Energy =                 436.5411178362392661
    DFT Exchange-Correlation Energy =       0.0000000000000000
    Empirical Dispersion Energy =           0.0000000000000000
    PCM Polarization Energy =               0.0000000000000000
    EFP Energy =                            0.0000000000000000
    Total Energy =                       -344.8864096575336475

  Mulliken Charges: (a.u.)
   Center  Symbol    Alpha    Beta     Spin     Total
       1     O     4.26316  4.26316  0.00000 -0.52632
       2     C     2.60276  2.60276  0.00000  0.79448
       3     C     3.22900  3.22900  0.00000 -0.45800
       4     O     4.30923  4.30923  0.00000 -0.61847
       5     C     3.23637  3.23637  0.00000 -0.47274
       6     H     0.40420  0.40420  0.00000  0.19159
       7     H     0.39921  0.39921  0.00000  0.20157
       8     H     0.41010  0.41010  0.00000  0.17980
       9     H     0.41947  0.41947  0.00000  0.16105
      10     H     0.40817  0.40817  0.00000  0.18366
      11     C     3.01149  3.01149  0.00000 -0.02299
      12     C     3.24569  3.24569  0.00000 -0.49138
      13     H     0.41668  0.41668  0.00000  0.16663
      14     H     0.41304  0.41304  0.00000  0.17391
      15     H     0.40896  0.40896  0.00000  0.18207
      16     H     0.41730  0.41730  0.00000  0.16540
      17     H     0.40515  0.40515  0.00000  0.18970

   Total alpha = 28.00000, Total beta = 28.00000, Total charge =  0.00000
