  ==> Input File <==

--------------------------------------------------------------------------
set {
	reference rhf
	basis cc-pvtz
}

set_num_threads( 4 )
memory 2 gb

molecule MOL {
0 1

H	 -0.615638	 1.419562	 -0.803436
O	 0.057669	 1.301365	 -0.158528
C	 0.004145	 -0.005141	 0.363049
C	 1.199168	 -0.827145	 -0.096690
C	 -1.316386	 -0.602081	 -0.083515
H	 0.012026	 0.043363	 1.450619
H	 1.216685	 -0.896776	 -1.178167
H	 2.129940	 -0.372354	 0.228035
H	 1.160783	 -1.829622	 0.314294
H	 -1.357882	 -0.655920	 -1.165207
H	 -2.140147	 0.011735	 0.257253
H	 -1.440790	 -1.601175	 0.317669

	symmetry c1
}
set optking {
	frozen_dihedral = ("
		1 2 3 4
	")
}

ee = optimize('scf')
oeprop('DIPOLE', 'QUADRUPOLE', 'MULLIKEN_CHARGES')
f=open( 'psi4out.xyz', 'w' )
f.write( "12  " )
f.write( str(ee) + "\n" )
f.write( MOL.save_string_xyz() )
f.close()
--------------------------------------------------------------------------

    Molecular point group: c1
  Charge       = 0
  Multiplicity = 1
  Basis Set: CC-PVTZ
  Basis Set:
  @DF-RHF Final Energy:  -193.19226724189156
    Total Energy =                       -193.1922672418915568
    Molecular point group: c1
  Basis Set: CC-PVTZ
  Basis Set:
  Basis Set: CC-PVTZ
  Basis Set:
  @DF-RHF Final Energy:  -193.19363795305910
    Total Energy =                       -193.1936379530592092
  Basis Set: CC-PVTZ
  Basis Set:
  Basis Set: CC-PVTZ
  Basis Set:
  @DF-RHF Final Energy:  -193.19401361364129
    Total Energy =                       -193.1940136136411468
  Basis Set: CC-PVTZ
  Basis Set:
  Basis Set: CC-PVTZ
  Basis Set:
  @DF-RHF Final Energy:  -193.19401733124596
    Total Energy =                       -193.1940173312459592
  Basis Set: CC-PVTZ
  Basis Set:
  Charge       = 0
  Multiplicity = 1
  Basis Set: CC-PVTZ
  Basis Set:

    Orbital Energies (a.u.)
    -----------------------

    Doubly Occupied:

       1A    -20.542255     2A    -11.274030     3A    -11.217624
       4A    -11.205310     5A     -1.362894     6A     -1.043956
       7A     -0.943497     8A     -0.816143     9A     -0.666450
      10A     -0.651133    11A     -0.607756    12A     -0.561452
      13A     -0.546105    14A     -0.517189    15A     -0.515348
      16A     -0.467570    17A     -0.431490

  @DF-RHF Final Energy:  -193.19401752341389

   => Energetics <=

    Nuclear Repulsion Energy =            135.6075588534581584
    One-Electron Energy =                -530.8627490723577012
    Two-Electron Energy =                 202.0611726954855953
    DFT Exchange-Correlation Energy =       0.0000000000000000
    Empirical Dispersion Energy =           0.0000000000000000
    PCM Polarization Energy =               0.0000000000000000
    EFP Energy =                            0.0000000000000000
    Total Energy =                       -193.1940175234139474
    Molecular point group: c1
  Basis Set: CC-PVTZ
  Basis Set:

  -Total Gradient:
     Atom            X                  Y                   Z
    ------   -----------------  -----------------  -----------------
       1       -0.000600524346     0.000276971384     0.000644577484
       2        0.000832383655    -0.000302438850    -0.000609782678
       3       -0.000496837283    -0.000082922861    -0.000535587880
       4        0.000267302806     0.000130502664     0.000489098260
       5       -0.000020791964     0.000002200085    -0.000006268137
       6       -0.000005727843    -0.000011083097    -0.000001235736
       7       -0.000005712974     0.000003055353     0.000005643112
       8        0.000004954691    -0.000002323353    -0.000003011052
       9        0.000010653401    -0.000008722938    -0.000001473080
      10        0.000007507020     0.000010145599     0.000017349914
      11        0.000005850846    -0.000003607623    -0.000008461691
      12        0.000000941990    -0.000011776364     0.000009151483

  **** Optimization is complete! (in 5 steps) ****
    Final optimized geometry and variables:
    Molecular point group: c1

    Geometry (in Angstrom), charge = 0, multiplicity = 1:

    H           -0.500932281265     1.495890908006    -0.784864121880
    O            0.130598121166     1.322110663773    -0.112499447084
    C            0.006025645863    -0.001936762091     0.357123228967
    C            1.208266486390    -0.816654071324    -0.091929059118
    C           -1.313790034093    -0.621578611037    -0.072653635074
    H            0.018813649696     0.059387191728     1.440445063446
    H            1.223095463559    -0.914895163604    -1.172392312621
    H            2.123425777837    -0.326208876115     0.213937457061
    H            1.188471174396    -1.810262225835     0.342842119963
    H           -1.369203826399    -0.696587516909    -1.155308678051
    H           -2.148818032334    -0.023046896704     0.273640274811
    H           -1.422834409528    -1.619282236147     0.334600899103

  Mulliken Charges: (a.u.)
   Center  Symbol    Alpha    Beta     Spin     Total
       1     H     0.39252  0.39252  0.00000  0.21495
       2     O     4.21090  4.21090  0.00000 -0.42180
       3     C     2.92147  2.92147  0.00000  0.15705
       4     C     3.13741  3.13741  0.00000 -0.27482
       5     C     3.15869  3.15869  0.00000 -0.31739
       6     H     0.45839  0.45839  0.00000  0.08322
       7     H     0.46021  0.46021  0.00000  0.07959
       8     H     0.44654  0.44654  0.00000  0.10691
       9     H     0.45978  0.45978  0.00000  0.08043
      10     H     0.45706  0.45706  0.00000  0.08588
      11     H     0.44573  0.44573  0.00000  0.10853
      12     H     0.45129  0.45129  0.00000  0.09743

   Total alpha = 17.00000, Total beta = 17.00000, Total charge = -0.00000
