                              Psi4 1.0.54 Driver

  ==> Input File <==

--------------------------------------------------------------------------
set {
	reference rhf
	basis cc-pvtz
}

set_num_threads( 4 )
memory 2 gb

molecule MOL {
0 1

O	 3.219313	 0.959291	 -0.614106
C	 2.698710	 0.058177	 -0.050237
C	 1.246364	 -0.005813	 0.348416
O	 3.344101	 -1.038700	 0.312317
C	 0.453207	 1.232821	 -0.049003
H	 0.839270	 -0.907818	 -0.092281
H	 1.216683	 -0.160521	 1.422434
C	 -0.998367	 1.217982	 0.432195
H	 0.481498	 1.345443	 -1.127236
H	 0.951413	 2.105557	 0.354893
C	 -1.882951	 0.151251	 -0.211235
H	 -1.429490	 2.193659	 0.228843
H	 -1.019755	 1.099323	 1.513279
C	 -3.342450	 0.243269	 0.226009
H	 -1.826223	 0.246578	 -1.293162
H	 -1.508033	 -0.839650	 0.027695
C	 -4.234517	 -0.821434	 -0.405970
H	 -3.730149	 1.228245	 -0.022691
H	 -3.398860	 0.159952	 1.308941
C	 -4.472909	 -2.021618	 0.504253
H	 -5.189516	 -0.376938	 -0.672654
H	 -3.786240	 -1.159330	 -1.336417
H	 -5.108897	 -2.757617	 0.025914
H	 -4.952987	 -1.721530	 1.429769
H	 -3.538534	 -2.509429	 0.761530
C	 4.720529	 -1.114346	 0.001449
H	 4.874321	 -1.055557	 -1.065852
H	 5.057824	 -2.067950	 0.373977
H	 5.264321	 -0.313596	 0.480350

	symmetry c1
}
set optking {
	frozen_dihedral = ("
		21 17 14 11
	")
}

ee,wfn = optimize('scf', return_wfn=True)
oeprop( wfn, 'DIPOLE', 'QUADRUPOLE', 'MULLIKEN_CHARGES')
f=open( 'psi4out.xyz', 'w' )
f.write( "29  " )
f.write( str(ee) + "\n" )
f.write( MOL.save_string_xyz() )
f.close()
--------------------------------------------------------------------------

    Molecular point group: c1
  Charge       = 0
  Multiplicity = 1
  Basis Set: CC-PVTZ
  Basis Set:
  @DF-RHF Final Energy:  -501.22054670555178
    Total Energy =                       -501.2205467055516692
    Molecular point group: c1
  Basis Set: CC-PVTZ
  Basis Set:
  Basis Set: CC-PVTZ
  Basis Set:
  @DF-RHF Final Energy:  -501.22052974045573
    Total Energy =                       -501.2205297404558451
  Basis Set: CC-PVTZ
  Basis Set:
  Basis Set: CC-PVTZ
  Basis Set:
  @DF-RHF Final Energy:  -501.22086284581997
    Total Energy =                       -501.2208628458197381
  Basis Set: CC-PVTZ
  Basis Set:
  Basis Set: CC-PVTZ
  Basis Set:
  @DF-RHF Final Energy:  -501.22076044096536
    Total Energy =                       -501.2207604409652504
  Basis Set: CC-PVTZ
  Basis Set:
  Basis Set: CC-PVTZ
  Basis Set:
  @DF-RHF Final Energy:  -501.22087160784213
    Total Energy =                       -501.2208716078419002
  Basis Set: CC-PVTZ
  Basis Set:
  Basis Set: CC-PVTZ
  Basis Set:
  @DF-RHF Final Energy:  -501.22087387599277
    Total Energy =                       -501.2208738759934477
  Basis Set: CC-PVTZ
  Basis Set:
  Charge       = 0
  Multiplicity = 1
  Basis Set: CC-PVTZ
  Basis Set:

    Orbital Energies (a.u.)
    -----------------------

    Doubly Occupied:

       1A    -20.596022     2A    -20.533873     3A    -11.364295
       4A    -11.278268     5A    -11.233018     6A    -11.217121
       7A    -11.215440     8A    -11.214050     9A    -11.213740
      10A    -11.212217    11A    -11.208007    12A     -1.471930
      13A     -1.365499    14A     -1.099069    15A     -1.066924
      16A     -1.019731    17A     -0.977549    18A     -0.928985
      19A     -0.866025    20A     -0.801826    21A     -0.787484
      22A     -0.765873    23A     -0.703002    24A     -0.685524
      25A     -0.676007    26A     -0.644783    27A     -0.627919
      28A     -0.609733    29A     -0.597140    30A     -0.587761
      31A     -0.562261    32A     -0.554568    33A     -0.533966
      34A     -0.528957    35A     -0.520614    36A     -0.509428
      37A     -0.499152    38A     -0.475259    39A     -0.475080
      40A     -0.463830    41A     -0.459593    42A     -0.451904
      43A     -0.443559    44A     -0.437240

  @DF-RHF Final Energy:  -501.22087391123978

   => Energetics <=

    Nuclear Repulsion Energy =            615.5777715101478407
    One-Electron Energy =               -1902.6288347568224708
    Two-Electron Energy =                 785.8301893354343974
    DFT Exchange-Correlation Energy =       0.0000000000000000
    Empirical Dispersion Energy =           0.0000000000000000
    PCM Polarization Energy =               0.0000000000000000
    EFP Energy =                            0.0000000000000000
    Total Energy =                       -501.2208739112402327
    Molecular point group: c1
  Basis Set: CC-PVTZ
  Basis Set:

  -Total Gradient:
     Atom            X                  Y                   Z
    ------   -----------------  -----------------  -----------------
       1        0.000031772083    -0.000036478911     0.000019038717
       2       -0.000016400419    -0.000001064123    -0.000022177085
       3       -0.000018814405     0.000015126977    -0.000013443973
       4        0.000010744929     0.000011001692    -0.000011746179
       5        0.000016769378     0.000013120086     0.000046704126
       6       -0.000030903347    -0.000017009358    -0.000000417910
       7       -0.000007270442     0.000009139939    -0.000002132875
       8       -0.000002655674     0.000009332734    -0.000035818472
       9        0.000003580990     0.000004411359     0.000000623051
      10        0.000020005099    -0.000014736330     0.000007432124
      11       -0.000454280863     0.001306197843    -0.002015215590
      12       -0.000019864876    -0.000006673246    -0.000013963883
      13       -0.000012353188     0.000006516654     0.000002710429
      14        0.000943199495    -0.001755291265     0.002070281151
      15        0.000011663622     0.000021664118     0.000003041627
      16        0.000033425914    -0.000018676506    -0.000001120661
      17       -0.001711957237    -0.000020222286     0.003059384897
      18       -0.000027515829     0.000001921678    -0.000012938678
      19       -0.000001252687    -0.000011425699     0.000006648911
      20        0.000014397525     0.000006925399    -0.000007343255
      21        0.001203142055     0.000475695899    -0.003075360596
      22        0.000012291588    -0.000015696415     0.000012369625
      23        0.000006064417    -0.000006882133    -0.000011145850
      24       -0.000017139811     0.000004504101    -0.000010964461
      25        0.000003704666     0.000005901008     0.000007373754
      26       -0.000010180506     0.000012249536     0.000007553146
      27        0.000003764420     0.000000300316    -0.000006467845
      28        0.000004016397    -0.000002495147    -0.000001124844
      29        0.000012046721     0.000002642078    -0.000001779403

  **** Optimization is complete! (in 7 steps) ****
    Final optimized geometry and variables:
    Molecular point group: c1

    Geometry (in Angstrom), charge = 0, multiplicity = 1:

    O            3.102390986587     1.049443791063    -0.722034046893
    C            2.581602659747     0.181214215408    -0.108907300766
    C            1.128745420489     0.138660460074     0.291018487032
    O            3.227411212201    -0.893104664891     0.315214799019
    C            0.335379330180     1.352999860441    -0.175028267803
    H            0.722472409832    -0.786436262360    -0.099874293392
    H            1.097664669803     0.043267239097     1.371876060074
    C           -1.117248935012     1.362623155004     0.303292585394
    H            0.365797950047     1.406458259348    -1.257753542959
    H            0.831954125776     2.247058438089     0.181486813480
    C           -1.997672573302     0.257948951794    -0.277978597220
    H           -1.550720080815     2.323543908968     0.042064291701
    H           -1.140875475977     1.307717828727     1.389403355859
    C           -3.464016785582     0.385234683027     0.132746064069
    H           -1.933312709641     0.282976177566    -1.362938783988
    H           -1.624961164411    -0.715825721843     0.027254658403
    C           -4.352697532803    -0.754491674415    -0.392219677671
    H           -3.837513936297     1.335285805836    -0.237199093600
    H           -3.537068420002     0.436604873299     1.215674245425
    C           -4.572055986156    -1.878551216795     0.615198033774
    H           -5.308752617357    -0.356863391618    -0.715451534628
    H           -3.901237044417    -1.168087725307    -1.289904267917
    H           -5.158579512272    -2.683004514587     0.186109848293
    H           -5.096617457227    -1.517404778229     1.493307857650
    H           -3.628405474429    -2.299850362931     0.946292298594
    C            4.604220206827    -0.984901729952     0.010349244901
    H            4.759010007062    -0.985768769479    -1.058437292726
    H            4.941961229420    -1.915898457490     0.435913952180
    H            5.146987160876    -0.158169468264     0.444171279940

  Mulliken Charges: (a.u.)
   Center  Symbol    Alpha    Beta     Spin     Total
       1     O     4.19697  4.19697  0.00000 -0.39394
       2     C     2.80484  2.80484  0.00000  0.39033
       3     C     3.10179  3.10179  0.00000 -0.20359
       4     O     4.14721  4.14721  0.00000 -0.29442
       5     C     3.09230  3.09230  0.00000 -0.18460
       6     H     0.43932  0.43932  0.00000  0.12135
       7     H     0.43984  0.43984  0.00000  0.12033
       8     C     3.10454  3.10454  0.00000 -0.20909
       9     H     0.44622  0.44622  0.00000  0.10755
      10     H     0.43957  0.43957  0.00000  0.12086
      11     C     3.09292  3.09292  0.00000 -0.18584
      12     H     0.44538  0.44538  0.00000  0.10925
      13     H     0.45321  0.45321  0.00000  0.09357
      14     C     3.09507  3.09507  0.00000 -0.19013
      15     H     0.45224  0.45224  0.00000  0.09553
      16     H     0.45325  0.45325  0.00000  0.09349
      17     C     3.09130  3.09130  0.00000 -0.18259
      18     H     0.44739  0.44739  0.00000  0.10521
      19     H     0.45504  0.45504  0.00000  0.08992
      20     C     3.14715  3.14715  0.00000 -0.29431
      21     H     0.44755  0.44755  0.00000  0.10490
      22     H     0.45560  0.45560  0.00000  0.08880
      23     H     0.44862  0.44862  0.00000  0.10276
      24     H     0.45473  0.45473  0.00000  0.09054
      25     H     0.45595  0.45595  0.00000  0.08810
      26     C     3.03815  3.03815  0.00000 -0.07630
      27     H     0.45435  0.45435  0.00000  0.09129
      28     H     0.44527  0.44527  0.00000  0.10946
      29     H     0.45422  0.45422  0.00000  0.09157

   Total alpha = 44.00000, Total beta = 44.00000, Total charge =  0.00000

*** Psi4 exiting successfully. Buy a developer a beer!
