                              Psi4 1.0.54 Driver

  ==> Input File <==

--------------------------------------------------------------------------
set {
	reference rhf
	basis cc-pvtz
}

set_num_threads( 4 )
memory 2 gb

molecule MOL {
0 1

H	 -0.033409	 1.278039	 4.614253
C	 -0.671369	 0.416503	 4.374153
C	 -1.480946	 0.559240	 3.113953
O	 -0.691170	 -0.522879	 5.091423
C	 -0.629885	 0.957802	 1.904608
H	 -2.013050	 -0.366944	 2.939645
H	 -2.217198	 1.336980	 3.304633
C	 0.348699	 -0.126935	 1.459746
H	 -1.294616	 1.202356	 1.083227
H	 -0.084637	 1.870265	 2.133320
C	 1.181757	 0.280428	 0.247371
H	 -0.206271	 -1.032522	 1.229472
H	 1.012863	 -0.382882	 2.281211
C	 2.151032	 -0.811012	 -0.202643
H	 0.513150	 0.542840	 -0.566539
H	 1.743372	 1.181376	 0.484392
C	 3.580021	 -0.656538	 0.320835
H	 2.170545	 -0.847575	 -1.289412
H	 1.766632	 -1.772905	 0.124928
C	 4.327657	 0.562694	 -0.213579
H	 4.138806	 -1.549270	 0.057813
H	 3.561991	 -0.620783	 1.406976
H	 4.355973	 0.557257	 -1.298551
H	 3.867136	 1.491650	 0.100501
H	 5.351524	 0.571613	 0.142204

	symmetry c1
}
set optking {
	frozen_dihedral = ("
		8 11 14 18
	")
}

ee,wfn = optimize('scf', return_wfn=True)
oeprop( wfn, 'DIPOLE', 'QUADRUPOLE', 'MULLIKEN_CHARGES')
f=open( 'psi4out.xyz', 'w' )
f.write( "25  " )
f.write( str(ee) + "\n" )
f.write( MOL.save_string_xyz() )
f.close()
--------------------------------------------------------------------------

    Molecular point group: c1
  Charge       = 0
  Multiplicity = 1
  Basis Set: CC-PVTZ
  Basis Set:
  @DF-RHF Final Energy:  -387.25595466248416
    Total Energy =                       -387.2559546624845552
    Molecular point group: c1
  Basis Set: CC-PVTZ
  Basis Set:
  Basis Set: CC-PVTZ
  Basis Set:
  @DF-RHF Final Energy:  -387.25585058325419
    Total Energy =                       -387.2558505832541869
  Basis Set: CC-PVTZ
  Basis Set:
  Basis Set: CC-PVTZ
  Basis Set:
  @DF-RHF Final Energy:  -387.25644445841198
    Total Energy =                       -387.2564444584121475
  Basis Set: CC-PVTZ
  Basis Set:
  Basis Set: CC-PVTZ
  Basis Set:
  @DF-RHF Final Energy:  -387.25630176315775
    Total Energy =                       -387.2563017631571256
  Basis Set: CC-PVTZ
  Basis Set:
  @DF-RHF Final Energy:  -387.25617164903036
    Total Energy =                       -387.2561716490306480
  Basis Set: CC-PVTZ
  Basis Set:
  @DF-RHF Final Energy:  -387.25650479524842
    Total Energy =                       -387.2565047952484747
  Basis Set: CC-PVTZ
  Basis Set:
  Basis Set: CC-PVTZ
  Basis Set:
  @DF-RHF Final Energy:  -387.25652109972924
    Total Energy =                       -387.2565210997294116
  Basis Set: CC-PVTZ
  Basis Set:
  Basis Set: CC-PVTZ
  Basis Set:
  @DF-RHF Final Energy:  -387.25652236381842
    Total Energy =                       -387.2565223638179077
  Basis Set: CC-PVTZ
  Basis Set:
  Charge       = 0
  Multiplicity = 1
  Basis Set: CC-PVTZ
  Basis Set:

    Orbital Energies (a.u.)
    -----------------------

    Doubly Occupied:

       1A    -20.551501     2A    -11.321091     3A    -11.233877
       4A    -11.232784     5A    -11.221880     6A    -11.217747
       7A    -11.216343     8A    -11.214757     9A    -11.208694
      10A     -1.406525    11A     -1.104928    12A     -1.070005
      13A     -1.013642    14A     -0.943295    15A     -0.875158
      16A     -0.826101    17A     -0.788904    18A     -0.778484
      19A     -0.668783    20A     -0.661561    21A     -0.634531
      22A     -0.624789    23A     -0.610012    24A     -0.591832
      25A     -0.571789    26A     -0.558204    27A     -0.535080
      28A     -0.523052    29A     -0.517003    30A     -0.496322
      31A     -0.489989    32A     -0.483792    33A     -0.459482
      34A     -0.454299    35A     -0.445710    36A     -0.412000

  @DF-RHF Final Energy:  -387.25652290853895

   => Energetics <=

    Nuclear Repulsion Energy =            443.9685341311551383
    One-Electron Energy =               -1404.5222178960480051
    Two-Electron Energy =                 573.2971608563543668
    DFT Exchange-Correlation Energy =       0.0000000000000000
    Empirical Dispersion Energy =           0.0000000000000000
    PCM Polarization Energy =               0.0000000000000000
    EFP Energy =                            0.0000000000000000
    Total Energy =                       -387.2565229085384999
    Molecular point group: c1
  Basis Set: CC-PVTZ
  Basis Set:

  -Total Gradient:
     Atom            X                  Y                   Z
    ------   -----------------  -----------------  -----------------
       1       -0.000023933860    -0.000001648136     0.000016946274
       2        0.000060199586    -0.000019034259    -0.000025284170
       3       -0.000028381196    -0.000010667991     0.000007453278
       4       -0.000023529600     0.000041323495    -0.000011361584
       5        0.000039176615     0.000018611635     0.000026553345
       6        0.000007739822    -0.000009312993     0.000002221491
       7       -0.000009084148    -0.000004118745    -0.000018201126
       8       -0.001452197577    -0.000847544297    -0.001264607729
       9       -0.000009725234     0.000005717436     0.000013264773
      10        0.000006050389    -0.000005056325     0.000007655920
      11        0.001492952032     0.000664240408     0.001747689222
      12       -0.000000075946    -0.000007968856     0.000009167820
      13        0.000001590202    -0.000000210320    -0.000009611272
      14        0.002013326966     0.002092939178    -0.000546249811
      15        0.000003703608     0.000000016649    -0.000007323592
      16        0.000007135790    -0.000012812922    -0.000003702262
      17        0.000004053653     0.000024509929     0.000005197822
      18       -0.002098933197    -0.001941484137     0.000051290588
      19       -0.000028568754     0.000003709964     0.000005444393
      20        0.000032011854     0.000004579649     0.000007037785
      21       -0.000014160553     0.000019715793    -0.000002833005
      22        0.000012837915    -0.000008327563    -0.000002186206
      23        0.000007188214     0.000005001782     0.000002367930
      24        0.000009331898    -0.000022957139    -0.000006524639
      25       -0.000008708482     0.000010777767    -0.000004405244

  **** Optimization is complete! (in 9 steps) ****
    Final optimized geometry and variables:
    Molecular point group: c1

    Geometry (in Angstrom), charge = 0, multiplicity = 1:

    H           -0.957951538787     1.178321279449     2.843763089203
    C           -1.610935324746     0.333930640002     2.583953801843
    C           -2.405011262224     0.512874582391     1.318543473111
    O           -1.657184590754    -0.615828448034     3.286163093135
    C           -1.533587910339     0.910857126236     0.123611787119
    H           -2.955148533532    -0.398883859922     1.125202121450
    H           -3.126263844213     1.303365872792     1.513970738942
    C           -0.576740446762    -0.189046921086    -0.330208534778
    H           -2.184694021822     1.183767602673    -0.699914775545
    H           -0.969803967804     1.806775511655     0.371771804719
    C            0.255977288399     0.207824161173    -1.547947803088
    H           -1.147714063252    -1.082692079196    -0.565749888904
    H            0.083704747888    -0.462533085430     0.489119013496
    C            1.257166779725    -0.877891092162    -1.979365565856
    H           -0.422671095075     0.422203891668    -2.368035276489
    H            0.775859585910     1.137947502736    -1.342370954816
    C            2.676399042732    -0.699211260435    -1.435197505787
    H            1.288885054863    -0.941408935911    -3.062676084776
    H            0.879929037706    -1.841689649434    -1.650231735667
    C            3.463027232213     0.428768269477    -2.098101704201
    H            3.221527618734    -1.627726966973    -1.572013582096
    H            2.633960235469    -0.531108970366    -0.362237664474
    H            3.568511932135     0.251482005293    -3.163337652966
    H            2.980702696993     1.391047991598    -1.971820452313
    H            4.458550362679     0.506031604939    -1.676181728826

  Mulliken Charges: (a.u.)
   Center  Symbol    Alpha    Beta     Spin     Total
       1     H     0.46418  0.46418  0.00000  0.07163
       2     C     2.90520  2.90520  0.00000  0.18960
       3     C     3.08849  3.08849  0.00000 -0.17698
       4     O     4.16612  4.16612  0.00000 -0.33224
       5     C     3.11703  3.11703  0.00000 -0.23405
       6     H     0.44293  0.44293  0.00000  0.11413
       7     H     0.44051  0.44051  0.00000  0.11899
       8     C     3.08871  3.08871  0.00000 -0.17743
       9     H     0.44301  0.44301  0.00000  0.11397
      10     H     0.44965  0.44965  0.00000  0.10070
      11     C     3.10197  3.10197  0.00000 -0.20393
      12     H     0.44895  0.44895  0.00000  0.10210
      13     H     0.44743  0.44743  0.00000  0.10513
      14     C     3.10544  3.10544  0.00000 -0.21088
      15     H     0.44617  0.44617  0.00000  0.10766
      16     H     0.45218  0.45218  0.00000  0.09564
      17     C     3.08923  3.08923  0.00000 -0.17846
      18     H     0.44606  0.44606  0.00000  0.10787
      19     H     0.44875  0.44875  0.00000  0.10250
      20     C     3.14914  3.14914  0.00000 -0.29828
      21     H     0.44752  0.44752  0.00000  0.10495
      22     H     0.45404  0.45404  0.00000  0.09192
      23     H     0.45442  0.45442  0.00000  0.09117
      24     H     0.45556  0.45556  0.00000  0.08888
      25     H     0.44729  0.44729  0.00000  0.10542

   Total alpha = 36.00000, Total beta = 36.00000, Total charge = -0.00000

*** Psi4 exiting successfully. Buy a developer a beer!
