  ==> Input File <==

--------------------------------------------------------------------------
set {
	reference rhf
	basis 6-31G*
}

set_num_threads( 1 )
memory 2 gb

molecule MOL {
0 1

H	 -2.748115	 0.412582	 0.512626
O	 -2.035884	 -0.060112	 0.102722
C	 -0.955155	 0.788182	 -0.092531
C	 0.353668	 0.040312	 -0.004810
H	 -0.985057	 1.290372	 -1.054184
H	 -0.974469	 1.533190	 0.688632
F	 0.394464	 -0.937475	 -0.903053
F	 1.368604	 0.853376	 -0.249821
F	 0.546173	 -0.502608	 1.179981

	symmetry c1
}
set optking {
	frozen_dihedral = ("
		7 4 3 5
	")
}

ee = energy('scf')
oeprop('DIPOLE', 'QUADRUPOLE', 'MULLIKEN_CHARGES')
f=open( 'psi4out.xyz', 'w' )
f.write( "9  " )
f.write( str(ee) + "\n" )
f.write( MOL.save_string_xyz() )
f.close()
--------------------------------------------------------------------------

    Molecular point group: c1

    Geometry (in Angstrom), charge = 0, multiplicity = 1:

       Center              X                  Y                   Z               Mass
    ------------   -----------------  -----------------  -----------------  -----------------
           H         -2.741573674203     0.401629364865     0.501246025662     1.007825032070
           O         -2.029342674203    -0.071064635135     0.091342025662    15.994914619560
           C         -0.948613674203     0.777229364865    -0.103910974338    12.000000000000
           C          0.360209325797     0.029359364865    -0.016189974338    12.000000000000
           H         -0.978515674203     1.279419364865    -1.065563974338     1.007825032070
           H         -0.967927674203     1.522237364865     0.677252025662     1.007825032070
           F          0.401005325797    -0.948427635135    -0.914432974338    18.998403224000
           F          1.375145325797     0.842423364865    -0.261200974338    18.998403224000
           F          0.552714325797    -0.513560635135     1.168601025662    18.998403224000

  Charge       = 0
  Multiplicity = 1
  Basis Set: 6-31G*
  Basis Set:

    Orbital Energies (a.u.)
    -----------------------

    Doubly Occupied:

       1A    -26.341148     2A    -26.335536     3A    -26.329528
       4A    -20.588137     5A    -11.498910     6A    -11.310108
       7A     -1.733778     8A     -1.634791     9A     -1.626812
      10A     -1.401300    11A     -1.047622    12A     -0.917326
      13A     -0.825247    14A     -0.823024    15A     -0.785135
      16A     -0.734811    17A     -0.707089    18A     -0.695976
      19A     -0.666618    20A     -0.650286    21A     -0.638276
      22A     -0.634933    23A     -0.597111    24A     -0.526338
      25A     -0.477689

  @DF-RHF Final Energy:  -450.65779446062413

   => Energetics <=

    Nuclear Repulsion Energy =            276.0963279043199918
    One-Electron Energy =               -1174.4533435851208196
    Two-Electron Energy =                 447.6992212201765824
    DFT Exchange-Correlation Energy =       0.0000000000000000
    Empirical Dispersion Energy =           0.0000000000000000
    PCM Polarization Energy =               0.0000000000000000
    EFP Energy =                            0.0000000000000000
    Total Energy =                       -450.6577944606242454

  Mulliken Charges: (a.u.)
   Center  Symbol    Alpha    Beta     Spin     Total
       1     H     0.27090  0.27090  0.00000  0.45821
       2     O     4.36307  4.36307  0.00000 -0.72614
       3     C     3.05193  3.05193  0.00000 -0.10386
       4     C     2.45382  2.45382  0.00000  1.09235
       5     H     0.40828  0.40828  0.00000  0.18345
       6     H     0.41290  0.41290  0.00000  0.17420
       7     F     4.68086  4.68086  0.00000 -0.36173
       8     F     4.68212  4.68212  0.00000 -0.36424
       9     F     4.67612  4.67612  0.00000 -0.35225

   Total alpha = 25.00000, Total beta = 25.00000, Total charge = -0.00000
