                              Psi4 1.0.54 Driver

  ==> Input File <==

--------------------------------------------------------------------------
set {
	reference rhf
	basis cc-pvtz
}

set_num_threads( 4 )
memory 2 gb

molecule MOL {
0 1

H	 -3.144994	 -1.202467	 -0.018751
O	 -2.321472	 -0.864941	 -0.318626
C	 -2.021813	 0.336996	 0.342658
C	 -0.669613	 0.837286	 -0.127252
H	 -2.780861	 1.084746	 0.127159
H	 -2.006390	 0.184138	 1.420053
C	 0.490865	 -0.082543	 0.241244
H	 -0.708709	 0.967192	 -1.204587
H	 -0.507562	 1.822272	 0.303070
C	 1.382985	 0.491635	 1.338080
H	 1.084898	 -0.278856	 -0.643992
H	 0.096128	 -1.042801	 0.567141
C	 2.538585	 -0.430452	 1.712420
H	 1.778942	 1.449629	 1.012243
H	 0.784320	 0.695040	 2.222340
H	 3.176107	 -0.624415	 0.856347
H	 3.153847	 0.005737	 2.491198
H	 2.175013	 -1.386377	 2.075003

	symmetry c1
}
set optking {
	frozen_dihedral = ("
		10 7 4 8
	")
}

ee,wfn = optimize('scf', return_wfn=True)
oeprop( wfn, 'DIPOLE', 'QUADRUPOLE', 'MULLIKEN_CHARGES')
f=open( 'psi4out.xyz', 'w' )
f.write( "18  " )
f.write( str(ee) + "\n" )
f.write( MOL.save_string_xyz() )
f.close()
--------------------------------------------------------------------------

    Molecular point group: c1
  Charge       = 0
  Multiplicity = 1
  Basis Set: CC-PVTZ
  Basis Set:
  @DF-RHF Final Energy:  -271.28205050625286
    Total Energy =                       -271.2820505062529719
    Molecular point group: c1
  Basis Set: CC-PVTZ
  Basis Set:
  Basis Set: CC-PVTZ
  Basis Set:
  @DF-RHF Final Energy:  -271.28229781887615
    Total Energy =                       -271.2822978188760317
  Basis Set: CC-PVTZ
  Basis Set:
  Basis Set: CC-PVTZ
  Basis Set:
  @DF-RHF Final Energy:  -271.28235160285698
    Total Energy =                       -271.2823516028570907
  Basis Set: CC-PVTZ
  Basis Set:
  Charge       = 0
  Multiplicity = 1
  Basis Set: CC-PVTZ
  Basis Set:

    Orbital Energies (a.u.)
    -----------------------

    Doubly Occupied:

       1A    -20.546393     2A    -11.266300     3A    -11.210779
       4A    -11.210125     5A    -11.205266     6A    -11.203661
       7A     -1.364402     8A     -1.075603     9A     -1.009582
      10A     -0.914494    11A     -0.824011    12A     -0.782312
      13A     -0.705496    14A     -0.652577    15A     -0.619425
      16A     -0.581649    17A     -0.571733    18A     -0.559493
      19A     -0.527549    20A     -0.506672    21A     -0.485167
      22A     -0.470196    23A     -0.455691    24A     -0.450569
      25A     -0.430952

  @DF-RHF Final Energy:  -271.28235192724196

   => Energetics <=

    Nuclear Repulsion Energy =            250.3229528562896746
    One-Electron Energy =                -863.9504134264135473
    Two-Electron Energy =                 342.3451086428815415
    DFT Exchange-Correlation Energy =       0.0000000000000000
    Empirical Dispersion Energy =           0.0000000000000000
    PCM Polarization Energy =               0.0000000000000000
    EFP Energy =                            0.0000000000000000
    Total Energy =                       -271.2823519272423027
    Molecular point group: c1
  Basis Set: CC-PVTZ
  Basis Set:

  -Total Gradient:
     Atom            X                  Y                   Z
    ------   -----------------  -----------------  -----------------
       1       -0.000019989271     0.000010752767     0.000008193952
       2        0.000070400064     0.000015296382     0.000013733341
       3       -0.000055287457    -0.000004957611    -0.000001218001
       4       -0.001324166247    -0.001939398244    -0.000612794925
       5        0.000000089425     0.000003456381    -0.000002571803
       6        0.000002334105    -0.000010587387    -0.000010324680
       7       -0.000917771877    -0.000561277796     0.001578835625
       8        0.001323355793     0.001728313878     0.000193887639
       9        0.000013753813    -0.000016833545     0.000008126717
      10        0.000931727749     0.000765068625    -0.001164023597
      11        0.000015515514     0.000019602622    -0.000024233329
      12       -0.000003313879     0.000031157910    -0.000026441945
      13       -0.000047960590    -0.000055856119     0.000041450712
      14        0.000012505214     0.000002381738    -0.000028190174
      15       -0.000007673172     0.000027275662     0.000009202508
      16       -0.000006943601     0.000023191655    -0.000003091741
      17       -0.000006351968    -0.000004098693     0.000017541906
      18        0.000019776389    -0.000033488229     0.000001917794

  **** Optimization is complete! (in 4 steps) ****
    Final optimized geometry and variables:
    Molecular point group: c1

    Geometry (in Angstrom), charge = 0, multiplicity = 1:

    H           -2.988955942767    -1.233301224424    -0.514536557336
    O           -2.180857037629    -0.881524708688    -0.838948562628
    C           -1.873128335389     0.316272599939    -0.174552926011
    C           -0.527967004877     0.817338313133    -0.661590041717
    H           -2.636017443630     1.064775160808    -0.373218978022
    H           -1.841507397034     0.155742034491     0.901681037709
    C            0.653725295589    -0.097795235024    -0.291990032458
    H           -0.579865877444     0.957604464384    -1.734956875759
    H           -0.371628958342     1.805892405204    -0.238843621007
    C            1.546645597568     0.474921801201     0.806735069120
    H            1.263239840395    -0.276602177499    -1.171759186468
    H            0.278822490634    -1.069442599558     0.008741797843
    C            2.689987660629    -0.456140173422     1.194583433146
    H            1.952631981946     1.427032284256     0.475831732970
    H            0.945594097445     0.691482838120     1.686891919405
    H            3.328926711435    -0.665162369577     0.342909150904
    H            3.307295131112    -0.019824744602     1.971717799952
    H            2.314018530383    -1.404668688765     1.563394096349

  Mulliken Charges: (a.u.)
   Center  Symbol    Alpha    Beta     Spin     Total
       1     H     0.39559  0.39559  0.00000  0.20881
       2     O     4.19891  4.19891  0.00000 -0.39782
       3     C     2.97293  2.97293  0.00000  0.05413
       4     C     3.09735  3.09735  0.00000 -0.19470
       5     H     0.46424  0.46424  0.00000  0.07153
       6     H     0.47329  0.47329  0.00000  0.05342
       7     C     3.09541  3.09541  0.00000 -0.19083
       8     H     0.44642  0.44642  0.00000  0.10715
       9     H     0.45533  0.45533  0.00000  0.08933
      10     C     3.08279  3.08279  0.00000 -0.16557
      11     H     0.44947  0.44947  0.00000  0.10105
      12     H     0.44680  0.44680  0.00000  0.10641
      13     C     3.14991  3.14991  0.00000 -0.29983
      14     H     0.45506  0.45506  0.00000  0.08989
      15     H     0.45720  0.45720  0.00000  0.08560
      16     H     0.45484  0.45484  0.00000  0.09032
      17     H     0.44949  0.44949  0.00000  0.10103
      18     H     0.45497  0.45497  0.00000  0.09005

   Total alpha = 25.00000, Total beta = 25.00000, Total charge = -0.00000

*** Psi4 exiting successfully. Buy a developer a beer!
