  ==> Input File <==

--------------------------------------------------------------------------
set {
	reference rhf
	basis cc-pvtz
}

set_num_threads( 4 )
memory 2 gb

molecule MOL {
0 1

H	 2.842020	 -0.521714	 0.816464
N	 2.433987	 -0.362316	 -0.080024
C	 1.263552	 0.494993	 0.021953
H	 2.190247	 -1.254964	 -0.455665
C	 -0.016533	 -0.325589	 -0.026925
H	 1.280915	 1.180773	 -0.818522
H	 1.263064	 1.106893	 0.925038
C	 -1.280353	 0.525521	 0.047747
H	 -0.016686	 -0.912532	 -0.939714
H	 -0.014099	 -1.037598	 0.796369
C	 -2.560681	 -0.301323	 -0.007747
H	 -1.279957	 1.241025	 -0.770189
H	 -1.270445	 1.110526	 0.963468
H	 -2.617064	 -0.872870	 -0.928010
H	 -3.439525	 0.331102	 0.043462
H	 -2.609427	 -1.002736	 0.818585

	symmetry c1
}
set optking {
	frozen_dihedral = ("
		1 2 3 6
	")
}

ee = optimize('scf')
oeprop('DIPOLE', 'QUADRUPOLE', 'MULLIKEN_CHARGES')
f=open( 'psi4out.xyz', 'w' )
f.write( "16  " )
f.write( str(ee) + "\n" )
f.write( MOL.save_string_xyz() )
f.close()
--------------------------------------------------------------------------

    Molecular point group: c1
  Charge       = 0
  Multiplicity = 1
  Basis Set: CC-PVTZ
  Basis Set:
  @DF-RHF Final Energy:  -212.39613060352576
    Total Energy =                       -212.3961306035256484
    Molecular point group: c1
  Basis Set: CC-PVTZ
  Basis Set:
  Basis Set: CC-PVTZ
  Basis Set:
  @DF-RHF Final Energy:  -212.39762235084629
    Total Energy =                       -212.3976223508462908
  Basis Set: CC-PVTZ
  Basis Set:
  Basis Set: CC-PVTZ
  Basis Set:
  @DF-RHF Final Energy:  -212.39783582396868
    Total Energy =                       -212.3978358239688191
  Basis Set: CC-PVTZ
  Basis Set:
  Basis Set: CC-PVTZ
  Basis Set:
  @DF-RHF Final Energy:  -212.39785277559835
    Total Energy =                       -212.3978527755980394
  Basis Set: CC-PVTZ
  Basis Set:
  Basis Set: CC-PVTZ
  Basis Set:
  @DF-RHF Final Energy:  -212.39785529024061
    Total Energy =                       -212.3978552902407273
  Basis Set: CC-PVTZ
  Basis Set:
  Charge       = 0
  Multiplicity = 1
  Basis Set: CC-PVTZ
  Basis Set:

    Orbital Energies (a.u.)
    -----------------------

    Doubly Occupied:

       1A    -15.523322     2A    -11.237846     3A    -11.215444
       4A    -11.212031     5A    -11.208390     6A     -1.175657
       7A     -1.062921     8A     -0.960520     9A     -0.848070
      10A     -0.797340    11A     -0.675077    12A     -0.631146
      13A     -0.597362    14A     -0.588442    15A     -0.560133
      16A     -0.524246    17A     -0.506131    18A     -0.480844
      19A     -0.471986    20A     -0.465327    21A     -0.374957

  @DF-RHF Final Energy:  -212.39785569095704

   => Energetics <=

    Nuclear Repulsion Energy =            186.3840736883423688
    One-Electron Energy =                -655.3294769021845241
    Two-Electron Energy =                 256.5475475228849973
    DFT Exchange-Correlation Energy =       0.0000000000000000
    Empirical Dispersion Energy =           0.0000000000000000
    PCM Polarization Energy =               0.0000000000000000
    EFP Energy =                            0.0000000000000000
    Total Energy =                       -212.3978556909571580
    Molecular point group: c1
  Basis Set: CC-PVTZ
  Basis Set:

  -Total Gradient:
     Atom            X                  Y                   Z
    ------   -----------------  -----------------  -----------------
       1        0.001678352303     0.002606984384    -0.000208413671
       2       -0.001786828401    -0.002838977921     0.000650538485
       3       -0.001215567038    -0.001637340588    -0.002104907148
       4       -0.000013614289     0.000030094452     0.000007532528
       5        0.000043822311     0.000005090354     0.000010352636
       6        0.001315043689     0.001831515339     0.001649759903
       7        0.000010598284     0.000014228030     0.000009955048
       8       -0.000032797249     0.000005648671    -0.000025884241
       9       -0.000019726767     0.000005484704     0.000011595083
      10       -0.000006535527    -0.000011507451    -0.000000367280
      11        0.000005610879    -0.000002032233     0.000006654268
      12        0.000004199345     0.000002752355    -0.000007440403
      13        0.000009681306    -0.000010604836    -0.000000451170
      14       -0.000002598874     0.000001604883    -0.000005991190
      15        0.000011048273     0.000002503815     0.000004281744
      16       -0.000000688246    -0.000005443958     0.000002785409

  **** Optimization is complete! (in 6 steps) ****
    Final optimized geometry and variables:
    Molecular point group: c1

    Geometry (in Angstrom), charge = 0, multiplicity = 1:

    H            2.871341692285    -0.500625881958     0.840624509686
    N            2.486155098327    -0.317645859673    -0.058455596816
    C            1.268291335662     0.475234298877     0.015282175833
    H            2.350749792038    -1.183225227783    -0.532897690259
    C           -0.025188219876    -0.330825134506    -0.015987631339
    H            1.268926257348     1.202799441189    -0.791228684356
    H            1.303826556919     1.059155109768     0.929439899676
    C           -1.278849566998     0.536940025798     0.037449263286
    H           -0.044231413064    -0.932625972985    -0.922782196951
    H           -0.027915108824    -1.030083035838     0.816905640289
    C           -2.570623652513    -0.272582573340    -0.005523975485
    H           -1.265952754121     1.237950737310    -0.792429516565
    H           -1.261250453421     1.137414658966     0.943014184063
    H           -2.636001467757    -0.856540004506    -0.917538036926
    H           -3.440233650419     0.373051853306     0.036312339858
    H           -2.629166897190    -0.960902920083     0.831052894132

  Mulliken Charges: (a.u.)
   Center  Symbol    Alpha    Beta     Spin     Total
       1     H     0.42730  0.42730  0.00000  0.14540
       2     N     3.69917  3.69917  0.00000 -0.39833
       3     C     3.02031  3.02031  0.00000 -0.04062
       4     H     0.42725  0.42725  0.00000  0.14551
       5     C     3.08615  3.08615  0.00000 -0.17230
       6     H     0.45779  0.45779  0.00000  0.08441
       7     H     0.45961  0.45961  0.00000  0.08077
       8     C     3.09011  3.09011  0.00000 -0.18022
       9     H     0.45856  0.45856  0.00000  0.08288
      10     H     0.45821  0.45821  0.00000  0.08357
      11     C     3.14881  3.14881  0.00000 -0.29763
      12     H     0.45390  0.45390  0.00000  0.09220
      13     H     0.45460  0.45460  0.00000  0.09080
      14     H     0.45485  0.45485  0.00000  0.09030
      15     H     0.44825  0.44825  0.00000  0.10350
      16     H     0.45512  0.45512  0.00000  0.08977

   Total alpha = 21.00000, Total beta = 21.00000, Total charge = -0.00000
