  ==> Input File <==

--------------------------------------------------------------------------
set {
	reference rhf
	basis 6-31G*
}

set_num_threads( 4 )
memory 2 gb

molecule MOL {
0 1

H	 -2.798360	 -0.862255	 -0.071053
N	 -1.863561	 -0.715187	 0.256814
C	 -1.344686	 0.554728	 -0.219830
H	 -1.300452	 -1.461917	 -0.101532
C	 -0.873568	 0.415838	 -1.652272
H	 -2.068237	 1.369785	 -0.173361
H	 -0.496711	 0.836492	 0.396877
O	 -1.984187	 0.129990	 -2.453461
H	 -0.400271	 1.339624	 -1.984307
H	 -0.142470	 -0.386697	 -1.720608
C	 -1.681301	 -0.108334	 -3.791008
H	 -2.609766	 -0.314526	 -4.305921
H	 -1.208449	 0.756891	 -4.252288
H	 -1.018508	 -0.963992	 -3.902202

	symmetry c1
}
set optking {
	frozen_dihedral = ("
		6 3 2 4
	")
}

ee = optimize('scf')
oeprop('DIPOLE', 'QUADRUPOLE', 'MULLIKEN_CHARGES')
f=open( 'psi4out.xyz', 'w' )
f.write( "14  " )
f.write( str(ee) + "\n" )
f.write( MOL.save_string_xyz() )
f.close()
--------------------------------------------------------------------------

    Molecular point group: c1
  Charge       = 0
  Multiplicity = 1
  Basis Set: 6-31G*
  Basis Set:
  @DF-RHF Final Energy:  -248.12080229789356
    Total Energy =                       -248.1208022978934764
    Molecular point group: c1
  Basis Set: 6-31G*
  Basis Set:
  Basis Set: 6-31G*
  Basis Set:
  @DF-RHF Final Energy:  -248.12317076995433
    Total Energy =                       -248.1231707699542426
  Basis Set: 6-31G*
  Basis Set:
  Basis Set: 6-31G*
  Basis Set:
  @DF-RHF Final Energy:  -248.12347831742872
    Total Energy =                       -248.1234783174287486
  Basis Set: 6-31G*
  Basis Set:
  Basis Set: 6-31G*
  Basis Set:
  @DF-RHF Final Energy:  -248.12348529589275
    Total Energy =                       -248.1234852958925785
  Basis Set: 6-31G*
  Basis Set:
  Charge       = 0
  Multiplicity = 1
  Basis Set: 6-31G*
  Basis Set:

    Orbital Energies (a.u.)
    -----------------------

    Doubly Occupied:

       1A    -20.561610     2A    -15.530450     3A    -11.270470
       4A    -11.270444     5A    -11.241867     6A     -1.386070
       7A     -1.175368     8A     -1.001010     9A     -0.910545
      10A     -0.824038    11A     -0.686435    12A     -0.669059
      13A     -0.646255    14A     -0.637108    15A     -0.582044
      16A     -0.546810    17A     -0.530505    18A     -0.506819
      19A     -0.476817    20A     -0.422195    21A     -0.382347

  @DF-RHF Final Energy:  -248.12348559649126

   => Energetics <=

    Nuclear Repulsion Energy =            194.2690112341136341
    One-Electron Energy =                -722.2684708961847946
    Two-Electron Energy =                 279.8759740655798396
    DFT Exchange-Correlation Energy =       0.0000000000000000
    Empirical Dispersion Energy =           0.0000000000000000
    PCM Polarization Energy =               0.0000000000000000
    EFP Energy =                            0.0000000000000000
    Total Energy =                       -248.1234855964912640
    Molecular point group: c1
  Basis Set: 6-31G*
  Basis Set:

  -Total Gradient:
     Atom            X                  Y                   Z
    ------   -----------------  -----------------  -----------------
       1       -0.000024400001    -0.000028276287     0.000007855548
       2        0.002390912435     0.000225751962     0.002793926075
       3        0.000796867997     0.000939865521     0.002947195345
       4       -0.002110283205    -0.000305832649    -0.002821040541
       5        0.000039357319    -0.000017808503     0.000027135395
       6       -0.001042216271    -0.000853603907    -0.002943035658
       7        0.000005746014     0.000011464495     0.000000006249
       8       -0.000040303218    -0.000001935689    -0.000048246917
       9       -0.000005297300     0.000007545029    -0.000000383763
      10        0.000002352382     0.000015976304     0.000022176284
      11       -0.000015039158     0.000011903716     0.000010303065
      12       -0.000000158256    -0.000002849187    -0.000002180838
      13        0.000000939609     0.000000296082    -0.000001841748
      14        0.000001521652    -0.000002496889     0.000008131507

  **** Optimization is complete! (in 5 steps) ****
    Final optimized geometry and variables:
    Molecular point group: c1

    Geometry (in Angstrom), charge = 0, multiplicity = 1:

    H           -1.267384659242    -0.836101282373     1.560988587969
    N           -0.345584982644    -0.709524402825     1.932457847564
    C            0.231324222095     0.498041906003     1.363695206492
    H            0.170307536579    -1.516773268597     1.634209239611
    C            0.690813518784     0.370336788543    -0.080696129980
    H           -0.520802231701     1.278003131777     1.399699967484
    H            1.072641756434     0.817640479748     1.971281526003
    O           -0.412932743300     0.045685689691    -0.872281250956
    H            1.136889766492     1.307082269320    -0.416183605122
    H            1.455695178536    -0.403886882184    -0.168095255230
    C           -0.125294601135    -0.115028557901    -2.224860284224
    H           -1.049228115840    -0.362519644617    -2.729383571712
    H            0.278325780208     0.798396803129    -2.657481238349
    H            0.590901326226    -0.918537093976    -2.386965367876

  Mulliken Charges: (a.u.)
   Center  Symbol    Alpha    Beta     Spin     Total
       1     H     0.32718  0.32718  0.00000  0.34565
       2     N     3.91594  3.91594  0.00000 -0.83188
       3     C     3.06988  3.06988  0.00000 -0.13976
       4     H     0.33629  0.33629  0.00000  0.32742
       5     C     2.99893  2.99893  0.00000  0.00214
       6     H     0.41308  0.41308  0.00000  0.17384
       7     H     0.41826  0.41826  0.00000  0.16347
       8     O     4.30596  4.30596  0.00000 -0.61193
       9     H     0.43053  0.43053  0.00000  0.13895
      10     H     0.43496  0.43496  0.00000  0.13008
      11     C     3.07935  3.07935  0.00000 -0.15869
      12     H     0.41145  0.41145  0.00000  0.17711
      13     H     0.42864  0.42864  0.00000  0.14273
      14     H     0.42957  0.42957  0.00000  0.14086

   Total alpha = 21.00000, Total beta = 21.00000, Total charge = -0.00000
