  ==> Input File <==

--------------------------------------------------------------------------
set {
	reference rhf
	basis 6-31G*
}

set_num_threads( 4 )
memory 2 gb

molecule MOL {
0 1

H	 1.967872	 -3.019500	 -1.019851
O	 2.763546	 -2.691355	 -1.412655
C	 2.493610	 -2.224580	 -2.710080
C	 1.720751	 -0.910383	 -2.727443
H	 3.458905	 -2.087159	 -3.180182
H	 1.959575	 -2.981156	 -3.283821
C	 0.316489	 -1.006214	 -2.125999
H	 2.298275	 -0.163563	 -2.188841
H	 1.649648	 -0.572491	 -3.759984
C	 -0.453100	 0.315119	 -2.207430
H	 0.393090	 -1.318110	 -1.088108
H	 -0.247831	 -1.780802	 -2.645515
C	 -1.896998	 0.251891	 -1.696059
H	 0.090528	 1.080559	 -1.656596
H	 -0.469355	 0.642782	 -3.244769
C	 -2.037799	 -0.007733	 -0.193645
H	 -2.384676	 1.195465	 -1.931970
H	 -2.440175	 -0.514410	 -2.247040
C	 -3.489788	 0.042957	 0.286558
H	 -1.453238	 0.729815	 0.354462
H	 -1.618064	 -0.978346	 0.059408
C	 -4.216917	 1.317354	 -0.141063
H	 -4.025645	 -0.823308	 -0.095450
H	 -3.513059	 -0.038752	 1.371301
H	 -4.239342	 1.411634	 -1.223113
H	 -5.243387	 1.322503	 0.212445
H	 -3.726170	 2.201406	 0.256408

	symmetry c1
}
set optking {
	frozen_dihedral = ("
		20 16 19 22
	")
}

ee = optimize('scf')
oeprop('DIPOLE', 'QUADRUPOLE', 'MULLIKEN_CHARGES')
f=open( 'psi4out.xyz', 'w' )
f.write( "27  " )
f.write( str(ee) + "\n" )
f.write( MOL.save_string_xyz() )
f.close()
--------------------------------------------------------------------------

    Molecular point group: c1
  Charge       = 0
  Multiplicity = 1
  Basis Set: 6-31G*
  Basis Set:
  @DF-RHF Final Energy:  -388.27757960992437
    Total Energy =                       -388.2775796099241461
    Molecular point group: c1
  Basis Set: 6-31G*
  Basis Set:
  Basis Set: 6-31G*
  Basis Set:
  @DF-RHF Final Energy:  -388.27818866315766
    Total Energy =                       -388.2781886631573798
  Basis Set: 6-31G*
  Basis Set:
  Basis Set: 6-31G*
  Basis Set:
  @DF-RHF Final Energy:  -388.27928534160850
    Total Energy =                       -388.2792853416087837
  Basis Set: 6-31G*
  Basis Set:
  Basis Set: 6-31G*
  Basis Set:
  @DF-RHF Final Energy:  -388.27937565284429
    Total Energy =                       -388.2793756528444646
  Basis Set: 6-31G*
  Basis Set:
  @DF-RHF Final Energy:  -388.27936697875475
    Total Energy =                       -388.2793669787540694
  Basis Set: 6-31G*
  Basis Set:
  @DF-RHF Final Energy:  -388.27937615978971
    Total Energy =                       -388.2793761597903313
  Basis Set: 6-31G*
  Basis Set:
  Basis Set: 6-31G*
  Basis Set:
  @DF-RHF Final Energy:  -388.27938418687540
    Total Energy =                       -388.2793841868748359
  Basis Set: 6-31G*
  Basis Set:
  Basis Set: 6-31G*
  Basis Set:
  @DF-RHF Final Energy:  -388.27938635992655
    Total Energy =                       -388.2793863599264341
  Basis Set: 6-31G*
  Basis Set:
  Charge       = 0
  Multiplicity = 1
  Basis Set: 6-31G*
  Basis Set:

    Orbital Energies (a.u.)
    -----------------------

    Doubly Occupied:

       1A    -20.552334     2A    -11.267071     3A    -11.219758
       4A    -11.217439     5A    -11.216611     6A    -11.215471
       7A    -11.215226     8A    -11.214439     9A    -11.208803
      10A     -1.359081    11A     -1.094999    12A     -1.060774
      13A     -1.009395    14A     -0.946518    15A     -0.894342
      16A     -0.828726    17A     -0.797681    18A     -0.769196
      19A     -0.693794    20A     -0.645666    21A     -0.634528
      22A     -0.616845    23A     -0.608335    24A     -0.587825
      25A     -0.579938    26A     -0.554241    27A     -0.538498
      28A     -0.528032    29A     -0.504681    30A     -0.499219
      31A     -0.486097    32A     -0.474587    33A     -0.468592
      34A     -0.457261    35A     -0.448297    36A     -0.441930
      37A     -0.423265

  @DF-RHF Final Energy:  -388.27938645468612

   => Energetics <=

    Nuclear Repulsion Energy =            461.8098020626005109
    One-Electron Energy =               -1441.6193928580373722
    Two-Electron Energy =                 591.5302043407511974
    DFT Exchange-Correlation Energy =       0.0000000000000000
    Empirical Dispersion Energy =           0.0000000000000000
    PCM Polarization Energy =               0.0000000000000000
    EFP Energy =                            0.0000000000000000
    Total Energy =                       -388.2793864546856639
    Molecular point group: c1
  Basis Set: 6-31G*
  Basis Set:

  -Total Gradient:
     Atom            X                  Y                   Z
    ------   -----------------  -----------------  -----------------
       1       -0.000001159079     0.000001350319    -0.000001780820
       2        0.000010037938    -0.000001057230     0.000002086544
       3       -0.000013465949    -0.000004010666     0.000004055051
       4        0.000009565151     0.000004440851     0.000009898048
       5       -0.000001601700     0.000000489617     0.000001935575
       6        0.000000156064    -0.000000525240    -0.000002171924
       7        0.000000148029    -0.000011912852     0.000001384016
       8       -0.000000499211     0.000006585925    -0.000001287349
       9       -0.000000553084    -0.000002370499     0.000000451862
      10       -0.000001455709     0.000007007131     0.000000419402
      11        0.000005601734    -0.000003949068    -0.000007628222
      12       -0.000006885356     0.000000721443    -0.000005927528
      13        0.000001485723     0.000005361658    -0.000009437252
      14       -0.000002076839     0.000003638179    -0.000001536902
      15       -0.000004701547    -0.000000390977     0.000002143748
      16       -0.001142941542     0.001737986915    -0.003000610381
      17       -0.000003661707     0.000002111663    -0.000002011019
      18        0.000006660140    -0.000000458699    -0.000002329903
      19        0.000912989910     0.000966436570     0.002809543644
      20        0.000745970850    -0.001757554354     0.001863818320
      21        0.000000040521     0.000005129116     0.000005722579
      22       -0.000517305960    -0.000959986452    -0.001665282331
      23        0.000008043258     0.000006270505    -0.000005741861
      24       -0.000000728056    -0.000007391959     0.000004990908
      25       -0.000007981542     0.000003318649    -0.000001002787
      26       -0.000000219662     0.000002462049     0.000002672077
      27        0.000004537619    -0.000003702591    -0.000002373496

  **** Optimization is complete! (in 9 steps) ****
    Final optimized geometry and variables:
    Molecular point group: c1

    Geometry (in Angstrom), charge = 0, multiplicity = 1:

    H            2.373191362331    -2.509746907506     0.390691760790
    O            3.187965245039    -2.203826908384     0.019698900473
    C            2.961155105562    -1.704960317411    -1.274023768263
    C            2.239103183139    -0.362095351907    -1.282371232926
    H            3.940001472110    -1.596364194396    -1.723139857235
    H            2.410328227028    -2.430687341931    -1.871245758745
    C            0.821348086026    -0.414532153790    -0.707748945918
    H            2.834309583857     0.353140145104    -0.720666738002
    H            2.200045642628    -0.004632600422    -2.310016653190
    C            0.103687133206     0.936280264722    -0.782259720220
    H            0.867988213962    -0.747092753938     0.325289033078
    H            0.238025381019    -1.158285628898    -1.250706479241
    C           -1.348596622019     0.927199949723    -0.287940272677
    H            0.670544106428     1.675614786165    -0.219206654275
    H            0.112085163896     1.273016486031    -1.816729929331
    C           -1.502222930470     0.719166899364     1.221059677070
    H           -1.803579293986     1.872733757389    -0.567534243694
    H           -1.903911099427     0.154250696022    -0.818298702172
    C           -2.950687472646     0.631557728495     1.720902502574
    H           -0.983561356580     1.513218536141     1.756634290624
    H           -1.001080764995    -0.200176969095     1.512813167990
    C           -3.848577580408     1.804448859322     1.322499008808
    H           -3.396743454012    -0.290312084328     1.352290804612
    H           -2.934235477466     0.546512361320     2.804386450651
    H           -4.013395361217     1.842020698471     0.251310947817
    H           -4.820808101060     1.720279519046     1.798306194830
    H           -3.415442387624     2.754435033908     1.625268470529

  Mulliken Charges: (a.u.)
   Center  Symbol    Alpha    Beta     Spin     Total
       1     H     0.27988  0.27988  0.00000  0.44023
       2     O     4.37093  4.37093  0.00000 -0.74185
       3     C     2.99742  2.99742  0.00000  0.00517
       4     C     3.16087  3.16087  0.00000 -0.32174
       5     H     0.41443  0.41443  0.00000  0.17114
       6     H     0.43203  0.43203  0.00000  0.13594
       7     C     3.16316  3.16316  0.00000 -0.32632
       8     H     0.41494  0.41494  0.00000  0.17011
       9     H     0.42435  0.42435  0.00000  0.15129
      10     C     3.15214  3.15214  0.00000 -0.30429
      11     H     0.42314  0.42314  0.00000  0.15373
      12     H     0.42542  0.42542  0.00000  0.14915
      13     C     3.15602  3.15602  0.00000 -0.31204
      14     H     0.42149  0.42149  0.00000  0.15702
      15     H     0.42141  0.42141  0.00000  0.15719
      16     C     3.15416  3.15416  0.00000 -0.30832
      17     H     0.41807  0.41807  0.00000  0.16387
      18     H     0.42502  0.42502  0.00000  0.14996
      19     C     3.15112  3.15112  0.00000 -0.30224
      20     H     0.42360  0.42360  0.00000  0.15279
      21     H     0.42237  0.42237  0.00000  0.15526
      22     C     3.24239  3.24239  0.00000 -0.48478
      23     H     0.42401  0.42401  0.00000  0.15197
      24     H     0.42070  0.42070  0.00000  0.15860
      25     H     0.41950  0.41950  0.00000  0.16100
      26     H     0.41912  0.41912  0.00000  0.16176
      27     H     0.42230  0.42230  0.00000  0.15541

   Total alpha = 37.00000, Total beta = 37.00000, Total charge = -0.00000
