  ==> Input File <==

--------------------------------------------------------------------------
set {
	reference rhf
	basis 6-31G*
}

set_num_threads( 4 )
memory 2 gb

molecule MOL {
0 1

O	 -2.042549	 -1.228399	 -0.269030
C	 -1.653912	 -0.146171	 0.050137
C	 -0.332303	 0.024011	 0.778412
C	 -2.438579	 1.106236	 -0.272369
C	 0.845713	 -0.001731	 -0.208243
H	 -0.323783	 0.953829	 1.340327
H	 -0.235459	 -0.796807	 1.480410
C	 2.200309	 0.136118	 0.488247
H	 0.733710	 0.800019	 -0.936072
H	 0.811185	 -0.933796	 -0.764304
C	 2.786582	 1.542171	 0.367805
H	 2.094498	 -0.123196	 1.539430
H	 2.895899	 -0.583710	 0.063311
H	 2.128456	 2.281779	 0.814911
H	 2.934261	 1.817031	 -0.672428
H	 3.747570	 1.609591	 0.867787
H	 -3.277823	 0.863061	 -0.908988
H	 -1.806773	 1.843019	 -0.759671
H	 -2.802853	 1.554979	 0.648059

	symmetry c1
}
set optking {
	frozen_dihedral = ("
		11 8 5 9
	")
}

ee = optimize('scf')
oeprop('DIPOLE', 'QUADRUPOLE', 'MULLIKEN_CHARGES')
f=open( 'psi4out.xyz', 'w' )
f.write( "19  " )
f.write( str(ee) + "\n" )
f.write( MOL.save_string_xyz() )
f.close()
--------------------------------------------------------------------------

    Molecular point group: c1
  Charge       = 0
  Multiplicity = 1
  Basis Set: 6-31G*
  Basis Set:
  @DF-RHF Final Energy:  -309.06019452719755
    Total Energy =                       -309.0601945271976092
    Molecular point group: c1
  Basis Set: 6-31G*
  Basis Set:
  Basis Set: 6-31G*
  Basis Set:
  @DF-RHF Final Energy:  -309.06036425596051
    Total Energy =                       -309.0603642559604509
  Basis Set: 6-31G*
  Basis Set:
  Basis Set: 6-31G*
  Basis Set:
  @DF-RHF Final Energy:  -309.06052315050874
    Total Energy =                       -309.0605231505086294
  Basis Set: 6-31G*
  Basis Set:
  Basis Set: 6-31G*
  Basis Set:
  @DF-RHF Final Energy:  -309.06054048389262
    Total Energy =                       -309.0605404838928507
  Basis Set: 6-31G*
  Basis Set:
  @DF-RHF Final Energy:  -309.06056302356376
    Total Energy =                       -309.0605630235636454
  Basis Set: 6-31G*
  Basis Set:
  @DF-RHF Final Energy:  -309.06055622645619
    Total Energy =                       -309.0605562264560717
  Basis Set: 6-31G*
  Basis Set:
  Basis Set: 6-31G*
  Basis Set:
  @DF-RHF Final Energy:  -309.06056800077221
    Total Energy =                       -309.0605680007726050
  Basis Set: 6-31G*
  Basis Set:
  Basis Set: 6-31G*
  Basis Set:
  @DF-RHF Final Energy:  -309.06057152180398
    Total Energy =                       -309.0605715218038085
  Basis Set: 6-31G*
  Basis Set:
  Charge       = 0
  Multiplicity = 1
  Basis Set: 6-31G*
  Basis Set:

    Orbital Energies (a.u.)
    -----------------------

    Doubly Occupied:

       1A    -20.547534     2A    -11.324349     3A    -11.230630
       4A    -11.229487     5A    -11.228296     6A    -11.224859
       7A    -11.217181     8A     -1.393171     9A     -1.090038
      10A     -1.028309    11A     -0.983377    12A     -0.892961
      13A     -0.805240    14A     -0.735108    15A     -0.659875
      16A     -0.645784    17A     -0.617897    18A     -0.611090
      19A     -0.595995    20A     -0.569168    21A     -0.554714
      22A     -0.531783    23A     -0.521210    24A     -0.500066
      25A     -0.483285    26A     -0.469596    27A     -0.466022
      28A     -0.396675

  @DF-RHF Final Energy:  -309.06057169527844

   => Energetics <=

    Nuclear Repulsion Energy =            303.0577310667504207
    One-Electron Energy =               -1019.1292036714257847
    Two-Electron Energy =                 407.0109009093969235
    DFT Exchange-Correlation Energy =       0.0000000000000000
    Empirical Dispersion Energy =           0.0000000000000000
    PCM Polarization Energy =               0.0000000000000000
    EFP Energy =                            0.0000000000000000
    Total Energy =                       -309.0605716952784405
    Molecular point group: c1
  Basis Set: 6-31G*
  Basis Set:

  -Total Gradient:
     Atom            X                  Y                   Z
    ------   -----------------  -----------------  -----------------
       1        0.000003026903    -0.000001147733     0.000006097568
       2        0.000002508308    -0.000009998100     0.000002631788
       3       -0.000002606628     0.000001305629    -0.000001930723
       4        0.000011241590     0.000007408021    -0.000004836669
       5        0.002241079717    -0.002633621031    -0.003729251047
       6       -0.000012027282     0.000004699828     0.000002509336
       7       -0.000000032431     0.000003801267     0.000002478983
       8       -0.001932785120     0.001325146965     0.003472663004
       9       -0.001455498626     0.001921045136     0.002344578552
      10       -0.000008029985     0.000006807178    -0.000010458885
      11        0.001159020352    -0.000628596873    -0.002089364446
      12        0.000014387995    -0.000014849438     0.000003229395
      13       -0.000013967161     0.000008669164    -0.000002240649
      14       -0.000006184389     0.000003237279    -0.000005538610
      15        0.000010580611     0.000006714410    -0.000002347081
      16       -0.000007989314    -0.000000405544     0.000004598147
      17        0.000004091426    -0.000003485574     0.000001519560
      18       -0.000001410212    -0.000000643331     0.000002945501
      19       -0.000005405757     0.000003912750     0.000002716277

  **** Optimization is complete! (in 9 steps) ****
    Final optimized geometry and variables:
    Molecular point group: c1

    Geometry (in Angstrom), charge = 0, multiplicity = 1:

    O           -1.973219769420    -1.430679428320    -0.406877707156
    C           -1.566432530885    -0.357504796779    -0.079446983860
    C           -0.243096213103    -0.216084921521     0.651131981121
    C           -2.329059927159     0.910457984466    -0.394304965239
    C            0.937176125721    -0.258612815280    -0.336635168653
    H           -0.217943143314     0.710584316007     1.218320172754
    H           -0.161253688908    -1.042201230069     1.348470742629
    C            2.299724339543    -0.075700119097     0.361869147262
    H            0.799843508557     0.533307142371    -1.069601928944
    H            0.898761678745    -1.200895897269    -0.870457251056
    C            2.858412906391     1.342509300392     0.238592512917
    H            2.216220144813    -0.348377178755     1.410264832281
    H            3.019098601841    -0.765691264455    -0.069580467664
    H            2.172966732842     2.078536684666     0.651077128238
    H            3.032243770847     1.600471841258    -0.801738344179
    H            3.801502344087     1.440025127237     0.767069362546
    H           -3.168102170375     0.687012575096    -1.038384217523
    H           -1.683054717008     1.642521889616    -0.869924962474
    H           -2.692239181229     1.355172596344     0.528558919809

  Mulliken Charges: (a.u.)
   Center  Symbol    Alpha    Beta     Spin     Total
       1     O     4.26226  4.26226  0.00000 -0.52451
       2     C     2.73731  2.73731  0.00000  0.52539
       3     C     3.20192  3.20192  0.00000 -0.40385
       4     C     3.28963  3.28963  0.00000 -0.57926
       5     C     3.16423  3.16423  0.00000 -0.32846
       6     H     0.41683  0.41683  0.00000  0.16633
       7     H     0.40077  0.40077  0.00000  0.19845
       8     C     3.15528  3.15528  0.00000 -0.31055
       9     H     0.41924  0.41924  0.00000  0.16153
      10     H     0.40321  0.40321  0.00000  0.19357
      11     C     3.24089  3.24089  0.00000 -0.48178
      12     H     0.41851  0.41851  0.00000  0.16297
      13     H     0.41604  0.41604  0.00000  0.16793
      14     H     0.42325  0.42325  0.00000  0.15350
      15     H     0.41957  0.41957  0.00000  0.16085
      16     H     0.41739  0.41739  0.00000  0.16521
      17     H     0.39699  0.39699  0.00000  0.20602
      18     H     0.40996  0.40996  0.00000  0.18008
      19     H     0.40672  0.40672  0.00000  0.18657

   Total alpha = 28.00000, Total beta = 28.00000, Total charge =  0.00000
