                              Psi4 1.0.54 Driver

  ==> Input File <==

--------------------------------------------------------------------------
set {
	reference rhf
	basis cc-pvtz
}

set_num_threads( 4 )
memory 2 gb

molecule MOL {
0 1

O	 0.749630	 1.305591	 -0.000460
C	 0.576499	 0.134701	 -0.003900
C	 -0.765656	 -0.550508	 -0.002152
O	 1.564816	 -0.744612	 -0.000631
C	 -1.945526	 0.411052	 0.000603
H	 -0.794329	 -1.203792	 -0.868145
H	 -0.791555	 -1.205429	 0.862701
C	 -2.598858	 0.522024	 -1.372629
H	 -1.610375	 1.386910	 0.330402
H	 -2.674156	 0.080395	 0.730769
H	 -1.895767	 0.882439	 -2.116320
H	 -3.434708	 1.210662	 -1.348235
H	 -2.972507	 -0.438840	 -1.710941
C	 2.884339	 -0.237801	 0.002883
H	 3.064150	 0.362814	 -0.876312
H	 3.533055	 -1.098529	 0.004958
H	 3.059365	 0.363432	 0.882614

	symmetry c1
}
set optking {
	frozen_dihedral = ("
		9 5 3 6
	")
}

ee,wfn = optimize('scf', return_wfn=True)
oeprop( wfn, 'DIPOLE', 'QUADRUPOLE', 'MULLIKEN_CHARGES')
f=open( 'psi4out.xyz', 'w' )
f.write( "17  " )
f.write( str(ee) + "\n" )
f.write( MOL.save_string_xyz() )
f.close()
--------------------------------------------------------------------------

    Molecular point group: c1
  Charge       = 0
  Multiplicity = 1
  Basis Set: CC-PVTZ
  Basis Set:
  @DF-RHF Final Energy:  -345.03136079879488
    Total Energy =                       -345.0313607987947080
    Molecular point group: c1
  Basis Set: CC-PVTZ
  Basis Set:
  Basis Set: CC-PVTZ
  Basis Set:
  @DF-RHF Final Energy:  -345.03151744213113
    Total Energy =                       -345.0315174421313600
  Basis Set: CC-PVTZ
  Basis Set:
  Basis Set: CC-PVTZ
  Basis Set:
  @DF-RHF Final Energy:  -345.03172693642767
    Total Energy =                       -345.0317269364276171
  Basis Set: CC-PVTZ
  Basis Set:
  Basis Set: CC-PVTZ
  Basis Set:
  @DF-RHF Final Energy:  -345.03184566311785
    Total Energy =                       -345.0318456631176218
  Basis Set: CC-PVTZ
  Basis Set:
  Basis Set: CC-PVTZ
  Basis Set:
  @DF-RHF Final Energy:  -345.03185086472672
    Total Energy =                       -345.0318508647267208
  Basis Set: CC-PVTZ
  Basis Set:
  Basis Set: CC-PVTZ
  Basis Set:
  @DF-RHF Final Energy:  -345.03185483218465
    Total Energy =                       -345.0318548321846492
  Basis Set: CC-PVTZ
  Basis Set:
  Basis Set: CC-PVTZ
  Basis Set:
  @DF-RHF Final Energy:  -345.03185610869338
    Total Energy =                       -345.0318561086933187
  Basis Set: CC-PVTZ
  Basis Set:
  Charge       = 0
  Multiplicity = 1
  Basis Set: CC-PVTZ
  Basis Set:

    Orbital Energies (a.u.)
    -----------------------

    Doubly Occupied:

       1A    -20.597110     2A    -20.535336     3A    -11.365709
       4A    -11.279100     5A    -11.234410     6A    -11.218755
       7A    -11.209189     8A     -1.473303     9A     -1.366836
      10A     -1.079032    11A     -1.001686    12A     -0.938915
      13A     -0.829067    14A     -0.768573    15A     -0.704235
      16A     -0.685280    17A     -0.676360    18A     -0.623956
      19A     -0.609829    20A     -0.571200    21A     -0.569251
      22A     -0.534431    23A     -0.525821    24A     -0.488133
      25A     -0.483463    26A     -0.479962    27A     -0.461463
      28A     -0.442668

  @DF-RHF Final Energy:  -345.03185625192594

   => Energetics <=

    Nuclear Repulsion Energy =            315.8579292083455243
    One-Electron Energy =               -1096.2734233999372009
    Two-Electron Energy =                 435.3836379396654479
    DFT Exchange-Correlation Energy =       0.0000000000000000
    Empirical Dispersion Energy =           0.0000000000000000
    PCM Polarization Energy =               0.0000000000000000
    EFP Energy =                            0.0000000000000000
    Total Energy =                       -345.0318562519262855
    Molecular point group: c1
  Basis Set: CC-PVTZ
  Basis Set:

  -Total Gradient:
     Atom            X                  Y                   Z
    ------   -----------------  -----------------  -----------------
       1       -0.000004040949    -0.000039449340     0.000004574886
       2       -0.000034976536     0.000065554421    -0.000006373151
       3       -0.002156935589    -0.002723934473     0.001443458925
       4        0.000042398313    -0.000024209250     0.000004241863
       5       -0.000416384898    -0.000472300009     0.003484163845
       6        0.001841911079     0.002316121707    -0.001730735242
       7        0.000010326865     0.000004450969    -0.000002070326
       8       -0.000011880267     0.000003130606    -0.000013190456
       9        0.000735975295     0.000871208101    -0.003190736581
      10       -0.000006813324     0.000004478789     0.000000077097
      11        0.000001272665     0.000003401988     0.000004032058
      12        0.000000121235    -0.000002338377     0.000000089544
      13        0.000004780808    -0.000002241139     0.000003219869
      14       -0.000015967776    -0.000006368392    -0.000001523180
      15        0.000005167868    -0.000001072743     0.000004890280
      16        0.000000814001     0.000005243494    -0.000000384978
      17        0.000004231212    -0.000001676355    -0.000003734453

  **** Optimization is complete! (in 8 steps) ****
    Final optimized geometry and variables:
    Molecular point group: c1

    Geometry (in Angstrom), charge = 0, multiplicity = 1:

    O            0.636867762970     1.183290146823     0.099457424263
    C            0.472962053761     0.014846568650     0.194735913025
    C           -0.861080602139    -0.693864521499     0.224495048277
    O            1.470516917388    -0.850004842785     0.277124642086
    C           -2.069433446655     0.247928809311     0.200087166821
    H           -0.853645046339    -1.347796668433    -0.641438286407
    H           -0.858429864051    -1.337552691776     1.094968090506
    C           -2.679166150283     0.394800536323    -1.192090868299
    H           -1.758598312323     1.226413291636     0.537845163802
    H           -2.823035315073    -0.116899997762     0.887506077646
    H           -1.948289172366     0.779163618143    -1.895043042294
    H           -3.516382616151     1.082659275647    -1.177959732509
    H           -3.038112428062    -0.557433465436    -1.569012789954
    C            2.784749465260    -0.331179504758     0.243402354488
    H            2.963636498857     0.194251177361    -0.682958796317
    H            3.442405590598    -1.181579184456     0.321809011393
    H            2.949214639076     0.344674866789     1.069410388159

  Mulliken Charges: (a.u.)
   Center  Symbol    Alpha    Beta     Spin     Total
       1     O     4.19770  4.19770  0.00000 -0.39540
       2     C     2.80354  2.80354  0.00000  0.39293
       3     C     3.10487  3.10487  0.00000 -0.20975
       4     O     4.14708  4.14708  0.00000 -0.29417
       5     C     3.08867  3.08867  0.00000 -0.17734
       6     H     0.44111  0.44111  0.00000  0.11778
       7     H     0.43188  0.43188  0.00000  0.13625
       8     C     3.14874  3.14874  0.00000 -0.29748
       9     H     0.44063  0.44063  0.00000  0.11874
      10     H     0.44840  0.44840  0.00000  0.10321
      11     H     0.45075  0.45075  0.00000  0.09851
      12     H     0.44854  0.44854  0.00000  0.10293
      13     H     0.45762  0.45762  0.00000  0.08475
      14     C     3.03639  3.03639  0.00000 -0.07277
      15     H     0.45447  0.45447  0.00000  0.09105
      16     H     0.44541  0.44541  0.00000  0.10917
      17     H     0.45420  0.45420  0.00000  0.09160

   Total alpha = 28.00000, Total beta = 28.00000, Total charge =  0.00000

*** Psi4 exiting successfully. Buy a developer a beer!
