  ==> Input File <==

--------------------------------------------------------------------------
set {
	reference rhf
	basis cc-pvtz
}

set_num_threads( 4 )
memory 2 gb

molecule MOL {
0 1

H	 -2.761569	 -0.652433	 1.144073
C	 -2.713957	 -0.472132	 0.072574
O	 -1.403028	 -0.325740	 -0.360524
H	 -3.139339	 -1.321335	 -0.442006
H	 -3.311111	 0.409154	 -0.154641
C	 -0.725167	 0.743127	 0.213639
C	 0.710939	 0.743291	 -0.246733
H	 -1.189453	 1.685034	 -0.078287
H	 -0.752637	 0.677953	 1.299193
O	 1.401606	 -0.295166	 0.366636
H	 0.739445	 0.638121	 -1.329118
H	 1.163681	 1.700977	 0.009851
C	 2.714315	 -0.441627	 -0.061017
H	 2.765292	 -0.641548	 -1.128869
H	 3.305661	 0.447341	 0.150952
H	 3.143725	 -1.278506	 0.470147

	symmetry c1
}
set optking {
	frozen_dihedral = ("
		7 10 13 14
	")
}

ee = optimize('scf')
oeprop('DIPOLE', 'QUADRUPOLE', 'MULLIKEN_CHARGES')
f=open( 'psi4out.xyz', 'w' )
f.write( "16  " )
f.write( str(ee) + "\n" )
f.write( MOL.save_string_xyz() )
f.close()
--------------------------------------------------------------------------

    Molecular point group: c1
  Charge       = 0
  Multiplicity = 1
  Basis Set: CC-PVTZ
  Basis Set:
  @DF-RHF Final Energy:  -307.09795221069749
    Total Energy =                       -307.0979522106971444
    Molecular point group: c1
  Basis Set: CC-PVTZ
  Basis Set:
  Charge       = 0
  Multiplicity = 1
  Basis Set: CC-PVTZ
  Basis Set:

    Orbital Energies (a.u.)
    -----------------------

    Doubly Occupied:

       1A    -20.547856     2A    -20.547852     3A    -11.267609
       4A    -11.266931     5A    -11.261645     6A    -11.261639
       7A     -1.391830     8A     -1.374623     9A     -1.032117
      10A     -0.937235    11A     -0.892239    12A     -0.824460
      13A     -0.686516    14A     -0.682875    15A     -0.659557
      16A     -0.638233    17A     -0.632310    18A     -0.598677
      19A     -0.550719    20A     -0.536073    21A     -0.510003
      22A     -0.479844    23A     -0.464832    24A     -0.423344
      25A     -0.413761

  @DF-RHF Final Energy:  -307.09795235033368

   => Energetics <=

    Nuclear Repulsion Energy =            258.9166531118934245
    One-Electron Energy =                -932.2636487402849070
    Two-Electron Energy =                 366.2490432780577976
    DFT Exchange-Correlation Energy =       0.0000000000000000
    Empirical Dispersion Energy =           0.0000000000000000
    PCM Polarization Energy =               0.0000000000000000
    EFP Energy =                            0.0000000000000000
    Total Energy =                       -307.0979523503336850
    Molecular point group: c1
  Basis Set: CC-PVTZ
  Basis Set:

  -Total Gradient:
     Atom            X                  Y                   Z
    ------   -----------------  -----------------  -----------------
       1        0.000000084089     0.000000020424     0.000000473311
       2        0.000003873190    -0.000000073174    -0.000001703725
       3       -0.000001180784    -0.000004012262     0.000000232412
       4       -0.000001411582    -0.000000581289    -0.000000030890
       5        0.000000979588    -0.000000063770     0.000000197963
       6        0.000000796367     0.000013021842    -0.000003931043
       7       -0.000055300586    -0.000051460611    -0.000080290199
       8       -0.000002402580    -0.000001099542     0.000001007042
       9       -0.000000176047    -0.000002235053    -0.000002031285
      10        0.000071561394     0.000172559309     0.000108560745
      11        0.000003436829    -0.000010638729     0.000007021925
      12       -0.000007398761     0.000006055495    -0.000007118322
      13       -0.000019561049    -0.000262647634    -0.000001875758
      14        0.000008277969     0.000162192057    -0.000024630799
      15       -0.000032146794    -0.000006012252     0.000003940572
      16        0.000030568758    -0.000015024811     0.000000178051

  **** Optimization is complete! (in 2 steps) ****
    Final optimized geometry and variables:
    Molecular point group: c1

    Geometry (in Angstrom), charge = 0, multiplicity = 1:

    H           -2.759174663405    -0.636548039099     1.146659166532
    C           -2.711490431453    -0.456519320874     0.075129091998
    O           -1.400513879938    -0.310277641615    -0.357902050518
    H           -3.136886861954    -1.305800677550    -0.439298448611
    H           -3.308556210975     0.424767185993    -0.152343903031
    C           -0.722597002788     0.758542011503     0.216227370975
    C            0.713464056508     0.758617499276    -0.244286477113
    H           -1.186878663781     1.700496080371    -0.075619063350
    H           -0.749970110873     0.693294150406     1.301752180147
    O            1.403964305667    -0.280240322916     0.368551239184
    H            0.741862532774     0.653562538683    -1.326630995132
    H            1.166278440337     1.716293588975     0.012391161533
    C            2.716914913631    -0.426446279065    -0.058488694600
    H            2.768574456333    -0.625591626831    -1.126428404881
    H            3.307369264229     0.463133881552     0.153504858852
    H            3.146777103830    -1.262896705690     0.472963704650

  Mulliken Charges: (a.u.)
   Center  Symbol    Alpha    Beta     Spin     Total
       1     H     0.47019  0.47019  0.00000  0.05963
       2     C     3.03198  3.03198  0.00000 -0.06397
       3     O     4.17047  4.17047  0.00000 -0.34094
       4     H     0.44634  0.44634  0.00000  0.10732
       5     H     0.47368  0.47368  0.00000  0.05263
       6     C     2.96053  2.96053  0.00000  0.07894
       7     C     2.96053  2.96053  0.00000  0.07894
       8     H     0.47609  0.47609  0.00000  0.04781
       9     H     0.47071  0.47071  0.00000  0.05859
      10     O     4.17048  4.17048  0.00000 -0.34097
      11     H     0.47062  0.47062  0.00000  0.05876
      12     H     0.47618  0.47618  0.00000  0.04763
      13     C     3.03196  3.03196  0.00000 -0.06392
      14     H     0.47044  0.47044  0.00000  0.05912
      15     H     0.47350  0.47350  0.00000  0.05300
      16     H     0.44629  0.44629  0.00000  0.10742

   Total alpha = 25.00000, Total beta = 25.00000, Total charge =  0.00000
