  ==> Input File <==

--------------------------------------------------------------------------
set {
	reference rhf
	basis 6-31G*
}

set_num_threads( 4 )
memory 2 gb

molecule MOL {
0 1

H	 2.182651	 -0.674103	 -4.870547
C	 2.492439	 0.020406	 -4.095815
C	 1.334153	 0.351807	 -3.155748
H	 3.315892	 -0.434810	 -3.553556
H	 2.871247	 0.913905	 -4.584653
C	 1.735451	 1.335292	 -2.054144
H	 0.964421	 -0.563964	 -2.706011
H	 0.512423	 0.773459	 -3.732515
C	 0.591420	 1.700110	 -1.107907
H	 2.552407	 0.919341	 -1.475169
H	 2.105172	 2.250026	 -2.511976
C	 0.169600	 0.576866	 -0.172154
H	 0.889760	 2.534763	 -0.475358
H	 -0.276537	 2.048133	 -1.663522
C	 -1.181045	 0.701995	 0.511084
O	 0.876998	 -0.362511	 0.036566
C	 -2.285934	 -0.139295	 -0.145128
H	 -1.449051	 1.751551	 0.493206
H	 -1.071135	 0.403303	 1.551943
C	 -3.651768	 0.085446	 0.506485
H	 -2.346596	 0.110469	 -1.202272
H	 -2.034737	 -1.195320	 -0.088721
C	 -4.759797	 -0.746382	 -0.137905
H	 -3.908762	 1.140117	 0.445781
H	 -3.588286	 -0.154158	 1.565709
H	 -4.868882	 -0.505166	 -1.191300
H	 -4.548009	 -1.809175	 -0.062213
H	 -5.715422	 -0.564821	 0.343442

	symmetry c1
}
set optking {
	frozen_dihedral = ("
		16 12 15 17
	")
}

ee = optimize('scf')
oeprop('DIPOLE', 'QUADRUPOLE', 'MULLIKEN_CHARGES')
f=open( 'psi4out.xyz', 'w' )
f.write( "28  " )
f.write( str(ee) + "\n" )
f.write( MOL.save_string_xyz() )
f.close()
--------------------------------------------------------------------------

    Molecular point group: c1
  Charge       = 0
  Multiplicity = 1
  Basis Set: 6-31G*
  Basis Set:
  @DF-RHF Final Energy:  -426.16904557043165
    Total Energy =                       -426.1690455704317628
    Molecular point group: c1
  Basis Set: 6-31G*
  Basis Set:
  Basis Set: 6-31G*
  Basis Set:
  @DF-RHF Final Energy:  -426.16985990074272
    Total Energy =                       -426.1698599007428356
  Basis Set: 6-31G*
  Basis Set:
  Basis Set: 6-31G*
  Basis Set:
  @DF-RHF Final Energy:  -426.16853751863778
    Total Energy =                       -426.1685375186378906
  Basis Set: 6-31G*
  Basis Set:
  Basis Set: 6-31G*
  Basis Set:
  @DF-RHF Final Energy:  -426.17000392740579
    Total Energy =                       -426.1700039274052187
  Basis Set: 6-31G*
  Basis Set:
  Basis Set: 6-31G*
  Basis Set:
  @DF-RHF Final Energy:  -426.16973194134562
    Total Energy =                       -426.1697319413453897
  Basis Set: 6-31G*
  Basis Set:
  Basis Set: 6-31G*
  Basis Set:
  @DF-RHF Final Energy:  -426.17002232486334
    Total Energy =                       -426.1700223248632255
  Basis Set: 6-31G*
  Basis Set:
  Basis Set: 6-31G*
  Basis Set:
  @DF-RHF Final Energy:  -426.17003325323856
    Total Energy =                       -426.1700332532386710
  Basis Set: 6-31G*
  Basis Set:
  Charge       = 0
  Multiplicity = 1
  Basis Set: 6-31G*
  Basis Set:

    Orbital Energies (a.u.)
    -----------------------

    Doubly Occupied:

       1A    -20.547544     2A    -11.322434     3A    -11.230956
       4A    -11.229597     5A    -11.228479     6A    -11.224223
       7A    -11.216346     8A    -11.214432     9A    -11.211783
      10A    -11.205449    11A     -1.393250    12A     -1.092742
      13A     -1.077747    14A     -1.022511    15A     -0.991236
      16A     -0.908850    17A     -0.869247    18A     -0.806614
      19A     -0.798535    20A     -0.724224    21A     -0.669929
      22A     -0.651983    23A     -0.624354    24A     -0.620231
      25A     -0.608889    26A     -0.589112    27A     -0.574864
      28A     -0.573062    29A     -0.544304    30A     -0.529581
      31A     -0.517217    32A     -0.510538    33A     -0.502418
      34A     -0.481670    35A     -0.477449    36A     -0.473455
      37A     -0.468004    38A     -0.465164    39A     -0.455850
      40A     -0.391864

  @DF-RHF Final Energy:  -426.17003301014620

   => Energetics <=

    Nuclear Repulsion Energy =            534.7402416315414939
    One-Electron Energy =               -1637.7282741690914918
    Two-Electron Energy =                 676.8179995274039129
    DFT Exchange-Correlation Energy =       0.0000000000000000
    Empirical Dispersion Energy =           0.0000000000000000
    PCM Polarization Energy =               0.0000000000000000
    EFP Energy =                            0.0000000000000000
    Total Energy =                       -426.1700330101460850
    Molecular point group: c1
  Basis Set: 6-31G*
  Basis Set:

  -Total Gradient:
     Atom            X                  Y                   Z
    ------   -----------------  -----------------  -----------------
       1       -0.000002622378     0.000005984541    -0.000002240560
       2       -0.000001983954     0.000009123751    -0.000007601160
       3        0.000006384756    -0.000006822942    -0.000000531019
       4       -0.000007532534    -0.000003377642     0.000000522394
       5        0.000005500427     0.000002111407     0.000001112468
       6        0.000008433660     0.000008813594    -0.000002174142
       7        0.000001403114    -0.000014268074     0.000001317234
       8        0.000000392411    -0.000003432368     0.000007691388
       9       -0.000018501274     0.000004627794    -0.000021486948
      10       -0.000009517657    -0.000001097609     0.000001106488
      11        0.000005911855     0.000000862096     0.000002590815
      12        0.000040207508     0.000021369858     0.000078481996
      13       -0.000000247297    -0.000009274236     0.000001637280
      14        0.000003327469     0.000009487087    -0.000006676249
      15       -0.000036388557     0.000049416885    -0.000069538395
      16       -0.000018313191    -0.000029465072    -0.000026067593
      17        0.000014702217    -0.000048687442     0.000045848264
      18        0.000001103098     0.000017796497     0.000006188955
      19       -0.000003929233    -0.000003535173    -0.000016481498
      20        0.000002567531    -0.000005589829     0.000009855344
      21       -0.000008139376    -0.000014069196     0.000006226927
      22        0.000016253109    -0.000003974911     0.000000490092
      23       -0.000001760837     0.000020277434    -0.000019721769
      24        0.000009511360     0.000001463486     0.000016488386
      25       -0.000004446693    -0.000017465262    -0.000001792352
      26       -0.000004028439    -0.000005517381    -0.000007518097
      27        0.000002929737     0.000008133751     0.000005157031
      28       -0.000001216834     0.000007108954    -0.000002885279

  **** Optimization is complete! (in 8 steps) ****
    Final optimized geometry and variables:
    Molecular point group: c1

    Geometry (in Angstrom), charge = 0, multiplicity = 1:

    H            2.784294695227    -1.018324122836    -3.856442099722
    C            3.055439905510    -0.316683494561    -3.073685097490
    C            1.860312377004    -0.003796280296    -2.174360216603
    H            3.867874040090    -0.756237169085    -2.502615733777
    H            3.435014959061     0.582183292835    -3.552084787530
    C            2.205724455227     0.991938861017    -1.064681952163
    H            1.492472145053    -0.923692874166    -1.732403001742
    H            1.050977701630     0.400731114954    -2.780266510492
    C            1.025361872354     1.335094645987    -0.157826509298
    H            3.012544689534     0.594619570698    -0.458324942988
    H            2.571851015233     1.912096379970    -1.514443372947
    C            0.609558449811     0.228312093316     0.794489084850
    H            1.264784340926     2.196144473377     0.466205213162
    H            0.157674344792     1.635976570288    -0.742350371476
    C           -0.707592832152     0.408357513793     1.529066729929
    O            1.274190583004    -0.748617736934     0.968514424867
    C           -1.826617001809    -0.396256549429     0.849728013694
    H           -0.980488986575     1.459060247510     1.571998428565
    H           -0.569979074073     0.052748303465     2.544349360523
    C           -3.168467571624    -0.265812889481     1.571850745310
    H           -1.940969133940    -0.067181458007    -0.181683505366
    H           -1.528908704212    -1.439831157409     0.812077999062
    C           -4.282233128863    -1.066931278749     0.898822253955
    H           -3.453982809052     0.782899940663     1.617839422560
    H           -3.054791407413    -0.598084006392     2.601084930538
    H           -4.442520156454    -0.734813701082    -0.122981059402
    H           -4.039750980444    -2.125099364692     0.868158551890
    H           -5.220726411998    -0.957581430563     1.433002971020

  Mulliken Charges: (a.u.)
   Center  Symbol    Alpha    Beta     Spin     Total
       1     H     0.41943  0.41943  0.00000  0.16114
       2     C     3.24016  3.24016  0.00000 -0.48031
       3     C     3.15620  3.15620  0.00000 -0.31240
       4     H     0.41841  0.41841  0.00000  0.16319
       5     H     0.42378  0.42378  0.00000  0.15245
       6     C     3.14952  3.14952  0.00000 -0.29904
       7     H     0.40902  0.40902  0.00000  0.18196
       8     H     0.42805  0.42805  0.00000  0.14391
       9     C     3.21338  3.21338  0.00000 -0.42675
      10     H     0.40758  0.40758  0.00000  0.18483
      11     H     0.42182  0.42182  0.00000  0.15636
      12     C     2.73278  2.73278  0.00000  0.53445
      13     H     0.40472  0.40472  0.00000  0.19057
      14     H     0.41092  0.41092  0.00000  0.17816
      15     C     3.19795  3.19795  0.00000 -0.39590
      16     O     4.26868  4.26868  0.00000 -0.53736
      17     C     3.16130  3.16130  0.00000 -0.32261
      18     H     0.41598  0.41598  0.00000  0.16805
      19     H     0.40164  0.40164  0.00000  0.19671
      20     C     3.15180  3.15180  0.00000 -0.30360
      21     H     0.42052  0.42052  0.00000  0.15895
      22     H     0.40661  0.40661  0.00000  0.18678
      23     C     3.24030  3.24030  0.00000 -0.48060
      24     H     0.42243  0.42243  0.00000  0.15515
      25     H     0.41938  0.41938  0.00000  0.16124
      26     H     0.42115  0.42115  0.00000  0.15770
      27     H     0.41894  0.41894  0.00000  0.16212
      28     H     0.41757  0.41757  0.00000  0.16487

   Total alpha = 40.00000, Total beta = 40.00000, Total charge = -0.00000
