                              Psi4 1.0.54 Driver

  ==> Input File <==

--------------------------------------------------------------------------
set {
	reference rhf
	basis cc-pvtz
}

set_num_threads( 4 )
memory 2 gb

molecule MOL {
0 1

H	 -2.688888	 -1.237448	 0.207105
C	 -2.945932	 -0.527153	 -0.590576
C	 -2.653809	 0.914422	 -0.273689
O	 -3.423827	 -0.917606	 -1.598778
C	 -1.216901	 1.136108	 0.207794
H	 -2.878353	 1.511597	 -1.147929
H	 -3.343868	 1.204551	 0.515582
C	 -0.247837	 0.040196	 -0.230469
H	 -0.872882	 2.093195	 -0.169002
H	 -1.209325	 1.218376	 1.291938
C	 1.181757	 0.280428	 0.247371
H	 -0.259600	 -0.030819	 -1.314870
H	 -0.591284	 -0.923375	 0.136958
C	 2.151032	 -0.811012	 -0.202643
H	 1.515939	 1.247397	 -0.115449
H	 1.191514	 0.341223	 1.333422
C	 3.580021	 -0.656538	 0.320835
H	 2.170545	 -0.847575	 -1.289412
H	 1.766632	 -1.772905	 0.124928
C	 4.327657	 0.562694	 -0.213579
H	 4.138806	 -1.549270	 0.057813
H	 3.561991	 -0.620783	 1.406976
H	 4.355973	 0.557257	 -1.298551
H	 3.867136	 1.491650	 0.100501
H	 5.351524	 0.571613	 0.142204

	symmetry c1
}
set optking {
	frozen_dihedral = ("
		6 3 5 8
	")
}

ee,wfn = optimize('scf', return_wfn=True)
oeprop( wfn, 'DIPOLE', 'QUADRUPOLE', 'MULLIKEN_CHARGES')
f=open( 'psi4out.xyz', 'w' )
f.write( "25  " )
f.write( str(ee) + "\n" )
f.write( MOL.save_string_xyz() )
f.close()
--------------------------------------------------------------------------

    Molecular point group: c1
  Charge       = 0
  Multiplicity = 1
  Basis Set: CC-PVTZ
  Basis Set:
  @DF-RHF Final Energy:  -387.25227704643834
    Total Energy =                       -387.2522770464385076
    Molecular point group: c1
  Basis Set: CC-PVTZ
  Basis Set:
  Basis Set: CC-PVTZ
  Basis Set:
  @DF-RHF Final Energy:  -387.24936941084218
    Total Energy =                       -387.2493694108425188
  Basis Set: CC-PVTZ
  Basis Set:
  Basis Set: CC-PVTZ
  Basis Set:
  @DF-RHF Final Energy:  -387.25387092370914
    Total Energy =                       -387.2538709237095418
  Basis Set: CC-PVTZ
  Basis Set:
  Basis Set: CC-PVTZ
  Basis Set:
  @DF-RHF Final Energy:  -387.25177518061975
    Total Energy =                       -387.2517751806198021
  Basis Set: CC-PVTZ
  Basis Set:
  @DF-RHF Final Energy:  -387.25416315830546
    Total Energy =                       -387.2541631583055732
  Basis Set: CC-PVTZ
  Basis Set:
  @DF-RHF Final Energy:  -387.25423330371069
    Total Energy =                       -387.2542333037101798
  Basis Set: CC-PVTZ
  Basis Set:
  Basis Set: CC-PVTZ
  Basis Set:
  @DF-RHF Final Energy:  -387.25423471471242
    Total Energy =                       -387.2542347147123110
  Basis Set: CC-PVTZ
  Basis Set:
  Basis Set: CC-PVTZ
  Basis Set:
  @DF-RHF Final Energy:  -387.25424018698766
    Total Energy =                       -387.2542401869876585
  Basis Set: CC-PVTZ
  Basis Set:
  Charge       = 0
  Multiplicity = 1
  Basis Set: CC-PVTZ
  Basis Set:

    Orbital Energies (a.u.)
    -----------------------

    Doubly Occupied:

       1A    -20.550375     2A    -11.320652     3A    -11.233505
       4A    -11.232948     5A    -11.223002     6A    -11.218243
       7A    -11.216557     8A    -11.215467     9A    -11.208828
      10A     -1.405283    11A     -1.103928    12A     -1.069000
      13A     -1.014004    14A     -0.943976    15A     -0.877775
      16A     -0.829388    17A     -0.782968    18A     -0.777420
      19A     -0.674571    20A     -0.656351    21A     -0.634434
      22A     -0.627127    23A     -0.606874    24A     -0.593425
      25A     -0.576936    26A     -0.549991    27A     -0.541536
      28A     -0.525451    29A     -0.503027    30A     -0.499046
      31A     -0.495738    32A     -0.473493    33A     -0.465168
      34A     -0.460136    35A     -0.443511    36A     -0.410826

  @DF-RHF Final Energy:  -387.25424027172545

   => Energetics <=

    Nuclear Repulsion Energy =            440.9725338159143462
    One-Electron Energy =               -1398.5316254865897463
    Two-Electron Energy =                 570.3048513989497224
    DFT Exchange-Correlation Energy =       0.0000000000000000
    Empirical Dispersion Energy =           0.0000000000000000
    PCM Polarization Energy =               0.0000000000000000
    EFP Energy =                            0.0000000000000000
    Total Energy =                       -387.2542402717256209
    Molecular point group: c1
  Basis Set: CC-PVTZ
  Basis Set:

  -Total Gradient:
     Atom            X                  Y                   Z
    ------   -----------------  -----------------  -----------------
       1       -0.000000699129    -0.000010304559     0.000004990699
       2        0.000024566941     0.000007292628     0.000019082761
       3        0.002162496694    -0.005508043612    -0.003642567609
       4       -0.000025441872    -0.000006860997    -0.000026319067
       5        0.000690343093     0.004724345380    -0.003242660546
       6       -0.001979005072     0.003480943039     0.003924815297
       7       -0.000008954842     0.000001737006    -0.000004325531
       8       -0.000853939046    -0.002689496737     0.002971743060
       9       -0.000002121611    -0.000004253935     0.000002599091
      10        0.000001083308    -0.000000130035    -0.000013197806
      11       -0.000008214373    -0.000009237351     0.000016051612
      12       -0.000000538163    -0.000000519205     0.000001551155
      13       -0.000001031902     0.000008385510     0.000000989933
      14        0.000004518349     0.000011342153    -0.000017630471
      15       -0.000012169859    -0.000013565571     0.000000753246
      16       -0.000001524686     0.000002432243     0.000005623927
      17       -0.000005863997     0.000012095948     0.000008549300
      18        0.000001976027     0.000000360155    -0.000003976043
      19        0.000007279318     0.000002416443    -0.000001343583
      20        0.000007580745    -0.000003902475    -0.000003102445
      21       -0.000003080282    -0.000004035704     0.000003247085
      22       -0.000006269860     0.000004498775     0.000000089608
      23       -0.000001923101     0.000003601428    -0.000002160727
      24        0.000010191364    -0.000006443330     0.000002708962
      25        0.000000741952    -0.000002657198    -0.000005511904

  **** Optimization is complete! (in 9 steps) ****
    Final optimized geometry and variables:
    Molecular point group: c1

    Geometry (in Angstrom), charge = 0, multiplicity = 1:

    H           -3.020299232569    -1.451622353070     0.247616426920
    C           -3.116033614329    -0.633770361587    -0.476865658264
    C           -2.794056118552     0.736371974431     0.050184111004
    O           -3.476835249000    -0.862640960993    -1.579551649686
    C           -1.364676060163     0.911590330213     0.616894971922
    H           -3.007676520541     1.472057636167    -0.712971225774
    H           -3.506297897922     0.923191542788     0.851171077034
    C           -0.310090069662    -0.044518267061     0.056839424238
    H           -1.057536884357     1.934940979167     0.438191045414
    H           -1.390731097769     0.790304892296     1.694824152664
    C            1.091391371507     0.256901157951     0.581304130623
    H           -0.306472768193     0.008317989183    -1.028843461500
    H           -0.568474374526    -1.068097583447     0.310527774867
    C            2.148755681603    -0.703651908030     0.040421030151
    H            1.350015982216     1.278773220211     0.322988588241
    H            1.086087684809     0.207877995556     1.668062497111
    C            3.556452981771    -0.489168321891     0.599242088312
    H            2.179483075667    -0.629688448460    -1.044063893541
    H            1.841036884138    -1.721197491498     0.265091281433
    C            4.208418196534     0.831728462879     0.197687185751
    H            4.186908877293    -1.304942581179     0.259485875819
    H            3.526775752859    -0.561756301424     1.683310903500
    H            4.244125465958     0.935741193392    -0.882032811516
    H            3.673679537852     1.686191157903     0.594677488081
    H            5.225986599249     0.885487600237     0.567303949498

  Mulliken Charges: (a.u.)
   Center  Symbol    Alpha    Beta     Spin     Total
       1     H     0.46216  0.46216  0.00000  0.07568
       2     C     2.90194  2.90194  0.00000  0.19611
       3     C     3.08945  3.08945  0.00000 -0.17890
       4     O     4.16918  4.16918  0.00000 -0.33837
       5     C     3.10671  3.10671  0.00000 -0.21342
       6     H     0.44126  0.44126  0.00000  0.11748
       7     H     0.44597  0.44597  0.00000  0.10806
       8     C     3.09727  3.09727  0.00000 -0.19454
       9     H     0.44472  0.44472  0.00000  0.11056
      10     H     0.44914  0.44914  0.00000  0.10172
      11     C     3.09462  3.09462  0.00000 -0.18923
      12     H     0.44301  0.44301  0.00000  0.11397
      13     H     0.45256  0.45256  0.00000  0.09489
      14     C     3.09516  3.09516  0.00000 -0.19032
      15     H     0.45076  0.45076  0.00000  0.09848
      16     H     0.45432  0.45432  0.00000  0.09136
      17     C     3.09101  3.09101  0.00000 -0.18202
      18     H     0.45198  0.45198  0.00000  0.09605
      19     H     0.44914  0.44914  0.00000  0.10172
      20     C     3.15266  3.15266  0.00000 -0.30532
      21     H     0.44770  0.44770  0.00000  0.10460
      22     H     0.45489  0.45489  0.00000  0.09022
      23     H     0.45413  0.45413  0.00000  0.09174
      24     H     0.45431  0.45431  0.00000  0.09139
      25     H     0.44595  0.44595  0.00000  0.10810

   Total alpha = 36.00000, Total beta = 36.00000, Total charge = -0.00000

*** Psi4 exiting successfully. Buy a developer a beer!
