  ==> Input File <==

--------------------------------------------------------------------------
set {
	reference rhf
	basis 6-31G*
}

set_num_threads( 1 )
memory 2 gb

molecule MOL {
0 1

H	 -1.827376	 -0.928193	 -0.216177
O	 -2.035884	 -0.060112	 0.102722
C	 -0.955155	 0.788182	 -0.092531
C	 0.353668	 0.040312	 -0.004810
H	 -0.985057	 1.290372	 -1.054184
H	 -0.974469	 1.533190	 0.688632
F	 0.394464	 -0.937475	 -0.903053
F	 1.368604	 0.853376	 -0.249821
F	 0.546173	 -0.502608	 1.179981

	symmetry c1
}
set optking {
	frozen_dihedral = ("
		7 4 3 5
	")
}

ee = energy('scf')
oeprop('DIPOLE', 'QUADRUPOLE', 'MULLIKEN_CHARGES')
f=open( 'psi4out.xyz', 'w' )
f.write( "9  " )
f.write( str(ee) + "\n" )
f.write( MOL.save_string_xyz() )
f.close()
--------------------------------------------------------------------------

    Molecular point group: c1

    Geometry (in Angstrom), charge = 0, multiplicity = 1:

       Center              X                  Y                   Z               Mass
    ------------   -----------------  -----------------  -----------------  -----------------
           H         -1.830112850550    -0.925634806451    -0.220212914017     1.007825032070
           O         -2.038620850550    -0.057553806451     0.098686085983    15.994914619560
           C         -0.957891850550     0.790740193549    -0.096566914017    12.000000000000
           C          0.350931149450     0.042870193549    -0.008845914017    12.000000000000
           H         -0.987793850550     1.292930193549    -1.058219914017     1.007825032070
           H         -0.977205850550     1.535748193549     0.684596085983     1.007825032070
           F          0.391727149450    -0.934916806451    -0.907088914017    18.998403224000
           F          1.365867149450     0.855934193549    -0.253856914017    18.998403224000
           F          0.543436149450    -0.500049806451     1.175945085983    18.998403224000

  Charge       = 0
  Multiplicity = 1
  Basis Set: 6-31G*
  Basis Set:

    Orbital Energies (a.u.)
    -----------------------

    Doubly Occupied:

       1A    -26.351829     2A    -26.347733     3A    -26.346977
       4A    -20.588036     5A    -11.507157     6A    -11.309294
       7A     -1.747089     8A     -1.645630     9A     -1.643754
      10A     -1.401830    11A     -1.050197    12A     -0.928555
      13A     -0.837054    14A     -0.835177    15A     -0.815225
      16A     -0.723471    17A     -0.718057    18A     -0.688602
      19A     -0.669792    20A     -0.667688    21A     -0.649293
      22A     -0.637319    23A     -0.623353    24A     -0.527350
      25A     -0.477909

  @DF-RHF Final Energy:  -450.66030983009580

   => Energetics <=

    Nuclear Repulsion Energy =            277.6331043952369555
    One-Electron Energy =               -1177.1100903314018069
    Two-Electron Energy =                 448.8166761060688259
    DFT Exchange-Correlation Energy =       0.0000000000000000
    Empirical Dispersion Energy =           0.0000000000000000
    PCM Polarization Energy =               0.0000000000000000
    EFP Energy =                            0.0000000000000000
    Total Energy =                       -450.6603098300960255

  Mulliken Charges: (a.u.)
   Center  Symbol    Alpha    Beta     Spin     Total
       1     H     0.27159  0.27159  0.00000  0.45682
       2     O     4.36746  4.36746  0.00000 -0.73493
       3     C     3.03233  3.03233  0.00000 -0.06466
       4     C     2.48159  2.48159  0.00000  1.03683
       5     H     0.40887  0.40887  0.00000  0.18225
       6     H     0.39881  0.39881  0.00000  0.20238
       7     F     4.68462  4.68462  0.00000 -0.36925
       8     F     4.68034  4.68034  0.00000 -0.36068
       9     F     4.67439  4.67439  0.00000 -0.34877

   Total alpha = 25.00000, Total beta = 25.00000, Total charge =  0.00000
