  ==> Input File <==

--------------------------------------------------------------------------
set {
	reference rhf
	basis 6-31G*
}

set_num_threads( 4 )
memory 2 gb

molecule MOL {
0 1

H	 3.276176	 0.174363	 -0.109463
N	 2.434251	 -0.367735	 -0.081097
C	 1.267428	 0.496480	 0.024474
H	 2.501951	 -0.965776	 0.720575
C	 -0.016086	 -0.325158	 -0.029487
H	 1.288818	 1.183521	 -0.816092
H	 1.267576	 1.109062	 0.929528
C	 -1.282277	 0.529072	 0.046735
H	 -0.012495	 -0.908639	 -0.945788
H	 -0.015903	 -1.041248	 0.791956
C	 -1.833318	 0.899287	 -1.329854
H	 -1.070288	 1.438546	 0.605220
H	 -2.047083	 -0.002780	 0.609016
H	 -1.104200	 1.463177	 -1.904427
H	 -2.729362	 1.506271	 -1.245020
H	 -2.088045	 0.011357	 -1.901619

	symmetry c1
}
set optking {
	frozen_dihedral = ("
		12 8 5 9
	")
}

ee = optimize('scf')
oeprop('DIPOLE', 'QUADRUPOLE', 'MULLIKEN_CHARGES')
f=open( 'psi4out.xyz', 'w' )
f.write( "16  " )
f.write( str(ee) + "\n" )
f.write( MOL.save_string_xyz() )
f.close()
--------------------------------------------------------------------------

    Molecular point group: c1
  Charge       = 0
  Multiplicity = 1
  Basis Set: 6-31G*
  Basis Set:
  @DF-RHF Final Energy:  -212.31336391766186
    Total Energy =                       -212.3133639176618317
    Molecular point group: c1
  Basis Set: 6-31G*
  Basis Set:
  Basis Set: 6-31G*
  Basis Set:
  @DF-RHF Final Energy:  -212.31360214123308
    Total Energy =                       -212.3136021412331615
  Basis Set: 6-31G*
  Basis Set:
  Basis Set: 6-31G*
  Basis Set:
  @DF-RHF Final Energy:  -212.31367113696120
    Total Energy =                       -212.3136711369610907
  Basis Set: 6-31G*
  Basis Set:
  Charge       = 0
  Multiplicity = 1
  Basis Set: 6-31G*
  Basis Set:

    Orbital Energies (a.u.)
    -----------------------

    Doubly Occupied:

       1A    -15.532657     2A    -11.240011     3A    -11.215019
       4A    -11.209586     5A    -11.207247     6A     -1.176863
       7A     -1.057693     8A     -0.955737     9A     -0.850481
      10A     -0.786512    11A     -0.662463    12A     -0.624741
      13A     -0.618105    14A     -0.589116    15A     -0.547450
      16A     -0.522784    17A     -0.510767    18A     -0.469162
      19A     -0.463586    20A     -0.455534    21A     -0.381369

  @DF-RHF Final Energy:  -212.31367158378183

   => Energetics <=

    Nuclear Repulsion Energy =            187.9421205474796750
    One-Electron Energy =                -658.3578180276724652
    Two-Electron Energy =                 258.1020258964110212
    DFT Exchange-Correlation Energy =       0.0000000000000000
    Empirical Dispersion Energy =           0.0000000000000000
    PCM Polarization Energy =               0.0000000000000000
    EFP Energy =                            0.0000000000000000
    Total Energy =                       -212.3136715837817405
    Molecular point group: c1
  Basis Set: 6-31G*
  Basis Set:

  -Total Gradient:
     Atom            X                  Y                   Z
    ------   -----------------  -----------------  -----------------
       1        0.000029491626    -0.000016489627     0.000000516361
       2        0.000072726888     0.000008552493    -0.000023244808
       3       -0.000050270028    -0.000062385637     0.000043145209
       4       -0.000006040356     0.000013943560    -0.000002906339
       5       -0.001604286670    -0.002432243258     0.001149607471
       6        0.000006094055    -0.000018823595     0.000004684042
       7       -0.000010891781     0.000033938610    -0.000002976806
       8       -0.000718512847    -0.001185469846     0.002787716838
       9        0.001443392153     0.002248949408    -0.001420144727
      10        0.000012662545     0.000018964594    -0.000005981215
      11        0.000009286958     0.000008095247     0.000031053673
      12        0.000829066396     0.001359584009    -0.002556565853
      13       -0.000006150066     0.000007827000    -0.000005373179
      14        0.000002433427    -0.000008861014    -0.000003948317
      15       -0.000008602958     0.000019070767    -0.000008079097
      16       -0.000000399343     0.000005347289     0.000012496746

  **** Optimization is complete! (in 4 steps) ****
    Final optimized geometry and variables:
    Molecular point group: c1

    Geometry (in Angstrom), charge = 0, multiplicity = 1:

    H            3.118362813289    -0.051820050448     0.119612831553
    N            2.280896770446    -0.600530506311     0.152930128356
    C            1.110833412376     0.250351456142     0.311238075986
    H            2.372159444660    -1.221180881220     0.934874958684
    C           -0.168725146017    -0.583387002683     0.277894423999
    H            1.104907715189     0.957428917777    -0.512721967338
    H            1.130393645810     0.841282102156     1.230255658977
    C           -1.445556455448     0.273955687259     0.323099372106
    H           -0.145020329329    -1.175891225810    -0.631586158661
    H           -0.153028677655    -1.279514259245     1.113636220021
    C           -1.962024992256     0.654023500938    -1.066981694775
    H           -1.248855508250     1.189885336470     0.876395220387
    H           -2.229655626860    -0.251885705650     0.859301607033
    H           -1.206863431003     1.184147408157    -1.640204978886
    H           -2.834535454804     1.296914388309    -0.999232424289
    H           -2.243476451013    -0.229276846648    -1.632616109913

  Mulliken Charges: (a.u.)
   Center  Symbol    Alpha    Beta     Spin     Total
       1     H     0.33245  0.33245  0.00000  0.33510
       2     N     3.92182  3.92182  0.00000 -0.84364
       3     C     3.06192  3.06192  0.00000 -0.12384
       4     H     0.33536  0.33536  0.00000  0.32929
       5     C     3.15445  3.15445  0.00000 -0.30890
       6     H     0.42070  0.42070  0.00000  0.15859
       7     H     0.43441  0.43441  0.00000  0.13118
       8     C     3.15871  3.15871  0.00000 -0.31743
       9     H     0.41140  0.41140  0.00000  0.17720
      10     H     0.42505  0.42505  0.00000  0.14990
      11     C     3.23949  3.23949  0.00000 -0.47899
      12     H     0.42297  0.42297  0.00000  0.15406
      13     H     0.41919  0.41919  0.00000  0.16162
      14     H     0.42135  0.42135  0.00000  0.15729
      15     H     0.42046  0.42046  0.00000  0.15908
      16     H     0.42026  0.42026  0.00000  0.15947

   Total alpha = 21.00000, Total beta = 21.00000, Total charge = -0.00000
