  ==> Input File <==

--------------------------------------------------------------------------
set {
	reference rhf
	basis 6-31G*
}

set_num_threads( 4 )
memory 2 gb

molecule MOL {
0 1

O	 -2.821601	 1.309235	 -0.001213
C	 -2.668563	 0.129746	 -0.000350
C	 -3.801572	 -0.864014	 -0.000442
O	 -1.481751	 -0.454642	 0.000584
H	 -4.417280	 -0.689587	 -0.874708
H	 -3.443784	 -1.883046	 -0.000565
H	 -4.417179	 -0.689832	 0.873954
C	 -0.334255	 0.388708	 0.000906
C	 0.891947	 -0.504646	 0.000751
H	 -0.365390	 1.025305	 -0.873475
H	 -0.365484	 1.024911	 0.875569
C	 2.175135	 0.278593	 0.284361
H	 0.964346	 -1.001384	 -0.962810
H	 0.758895	 -1.283733	 0.746259
C	 3.424068	 -0.604855	 0.287926
H	 2.294320	 1.063590	 -0.460395
H	 2.089559	 0.781041	 1.246289
C	 4.705846	 0.177715	 0.569872
H	 3.511315	 -1.107439	 -0.672737
H	 3.307649	 -1.388480	 1.033210
H	 4.867919	 0.947904	 -0.178830
H	 5.573076	 -0.475071	 0.565679
H	 4.662872	 0.664459	 1.540049

	symmetry c1
}
set optking {
	frozen_dihedral = ("
		13 9 8 10
	")
}

ee = optimize('scf')
oeprop('DIPOLE', 'QUADRUPOLE', 'MULLIKEN_CHARGES')
f=open( 'psi4out.xyz', 'w' )
f.write( "23  " )
f.write( str(ee) + "\n" )
f.write( MOL.save_string_xyz() )
f.close()
--------------------------------------------------------------------------

    Molecular point group: c1
  Charge       = 0
  Multiplicity = 1
  Basis Set: 6-31G*
  Basis Set:
  @DF-RHF Final Energy:  -422.97899129634482
    Total Energy =                       -422.9789912963447023
    Molecular point group: c1
  Basis Set: 6-31G*
  Basis Set:
  Basis Set: 6-31G*
  Basis Set:
  @DF-RHF Final Energy:  -422.97902595553734
    Total Energy =                       -422.9790259555375087
  Basis Set: 6-31G*
  Basis Set:
  Basis Set: 6-31G*
  Basis Set:
  @DF-RHF Final Energy:  -422.97902956074773
    Total Energy =                       -422.9790295607481312
  Basis Set: 6-31G*
  Basis Set:
  Basis Set: 6-31G*
  Basis Set:
  @DF-RHF Final Energy:  -422.97905755673668
    Total Energy =                       -422.9790575567368478
  Basis Set: 6-31G*
  Basis Set:
  Basis Set: 6-31G*
  Basis Set:
  @DF-RHF Final Energy:  -422.97906909711992
    Total Energy =                       -422.9790690971199183
  Basis Set: 6-31G*
  Basis Set:
  Basis Set: 6-31G*
  Basis Set:
  @DF-RHF Final Energy:  -422.97907208564038
    Total Energy =                       -422.9790720856409507
  Basis Set: 6-31G*
  Basis Set:
  Charge       = 0
  Multiplicity = 1
  Basis Set: 6-31G*
  Basis Set:

    Orbital Energies (a.u.)
    -----------------------

    Doubly Occupied:

       1A    -20.602572     2A    -20.540280     3A    -11.373816
       4A    -11.281721     5A    -11.232233     6A    -11.224493
       7A    -11.223788     8A    -11.221676     9A    -11.212978
      10A     -1.467533    11A     -1.360321    12A     -1.094183
      13A     -1.042094    14A     -1.003303    15A     -0.930815
      16A     -0.841667    17A     -0.802446    18A     -0.774113
      19A     -0.692361    20A     -0.684677    21A     -0.667498
      22A     -0.646788    23A     -0.606397    24A     -0.588041
      25A     -0.582011    26A     -0.567156    27A     -0.558541
      28A     -0.536633    29A     -0.523577    30A     -0.504593
      31A     -0.492045    32A     -0.477403    33A     -0.471375
      34A     -0.465572    35A     -0.451072    36A     -0.435030

  @DF-RHF Final Energy:  -422.97907215776547

   => Energetics <=

    Nuclear Repulsion Energy =            449.6294274183003381
    One-Electron Energy =               -1466.8553868000885814
    Two-Electron Energy =                 594.2468872240223163
    DFT Exchange-Correlation Energy =       0.0000000000000000
    Empirical Dispersion Energy =           0.0000000000000000
    PCM Polarization Energy =               0.0000000000000000
    EFP Energy =                            0.0000000000000000
    Total Energy =                       -422.9790721577659269
    Molecular point group: c1
  Basis Set: 6-31G*
  Basis Set:

  -Total Gradient:
     Atom            X                  Y                   Z
    ------   -----------------  -----------------  -----------------
       1        0.000002738534    -0.000006884864     0.000004533164
       2       -0.000015506503     0.000007478799     0.000009460801
       3        0.000000191960    -0.000001053816    -0.000001825754
       4        0.000012509975    -0.000007373675     0.000011784161
       5       -0.000001320036    -0.000002732207    -0.000001998213
       6        0.000000444969     0.000000838812    -0.000000612783
       7        0.000000032482     0.000002221637    -0.000002084061
       8        0.001820573387     0.002499894378     0.001194699936
       9       -0.001903011427    -0.002562325040     0.000711932488
      10       -0.001192633968    -0.001661683366    -0.001135428739
      11        0.000001416691     0.000000116241     0.000011725512
      12       -0.000001642725     0.000003012151     0.000000256700
      13        0.001278472930     0.001725769341    -0.000824769654
      14       -0.000001222250     0.000006978839     0.000006847054
      15       -0.000004780778    -0.000005586730     0.000022420865
      16       -0.000012222796     0.000000293625     0.000003107209
      17        0.000015961201    -0.000003169656     0.000004782742
      18        0.000001247470     0.000004931407    -0.000020440384
      19        0.000005884540     0.000003130533     0.000003640112
      20       -0.000006992274    -0.000003461317     0.000001693399
      21        0.000002139792     0.000006603955     0.000003907928
      22        0.000000194737     0.000000439826    -0.000004440887
      23       -0.000002475915    -0.000007438875     0.000000808406

  **** Optimization is complete! (in 7 steps) ****
    Final optimized geometry and variables:
    Molecular point group: c1

    Geometry (in Angstrom), charge = 0, multiplicity = 1:

    O           -2.811847610209     1.322090813817    -0.157919442336
    C           -2.662135830604     0.142146809955    -0.142304487922
    C           -3.798076329320    -0.848230944279    -0.157315834281
    O           -1.477640325163    -0.445385623980    -0.109220791143
    H           -4.394682966441    -0.679958101301    -1.045912921815
    H           -3.443581351897    -1.868284721015    -0.140641017878
    H           -4.431451609268    -0.664272050380     0.702270813188
    C           -0.326593775141     0.395992050767    -0.093857523724
    C            0.895916474075    -0.503986387219    -0.077785027362
    H           -0.350424488228     1.020759417911    -0.976398307583
    H           -0.370575365913     1.034521113678     0.778275600075
    C            2.182783201744     0.284812793721     0.177669936518
    H            0.971663353814    -1.014717411081    -1.033754539343
    H            0.765799940070    -1.263249702561     0.687270477008
    C            3.435502069315    -0.592603350795     0.148871843410
    H            2.281351722655     1.072986666787    -0.567137832012
    H            2.116836473748     0.783777644224     1.142749490819
    C            4.719113238915     0.193557176791     0.411973487272
    H            3.506185956877    -1.086784324874    -0.817494473680
    H            3.337235604682    -1.383076472605     0.889631842862
    H            4.861968112055     0.971855860977    -0.332257428325
    H            5.589171531923    -0.454828479209     0.383397287990
    H            4.693967938222     0.670573163055     1.387581903300

  Mulliken Charges: (a.u.)
   Center  Symbol    Alpha    Beta     Spin     Total
       1     O     4.28418  4.28418  0.00000 -0.56835
       2     C     2.61540  2.61540  0.00000  0.76921
       3     C     3.28769  3.28769  0.00000 -0.57539
       4     O     4.31312  4.31312  0.00000 -0.62624
       5     H     0.39755  0.39755  0.00000  0.20489
       6     H     0.39992  0.39992  0.00000  0.20016
       7     H     0.39756  0.39756  0.00000  0.20487
       8     C     2.99578  2.99578  0.00000  0.00844
       9     C     3.16494  3.16494  0.00000 -0.32988
      10     H     0.40987  0.40987  0.00000  0.18025
      11     H     0.41047  0.41047  0.00000  0.17906
      12     C     3.16028  3.16028  0.00000 -0.32055
      13     H     0.41511  0.41511  0.00000  0.16978
      14     H     0.41252  0.41252  0.00000  0.17497
      15     C     3.15147  3.15147  0.00000 -0.30294
      16     H     0.42111  0.42111  0.00000  0.15778
      17     H     0.42058  0.42058  0.00000  0.15885
      18     C     3.23983  3.23983  0.00000 -0.47967
      19     H     0.42153  0.42153  0.00000  0.15694
      20     H     0.42140  0.42140  0.00000  0.15721
      21     H     0.42085  0.42085  0.00000  0.15831
      22     H     0.41801  0.41801  0.00000  0.16398
      23     H     0.42083  0.42083  0.00000  0.15833

   Total alpha = 36.00000, Total beta = 36.00000, Total charge =  0.00000
