                              Psi4 1.0.54 Driver

  ==> Input File <==

--------------------------------------------------------------------------
set {
	reference rhf
	basis cc-pvtz
}

set_num_threads( 4 )
memory 2 gb

molecule MOL {
0 1

O	 1.933549	 0.107614	 0.861390
C	 1.121787	 0.124983	 0.000110
C	 -0.170912	 -0.649867	 -0.000147
O	 1.249845	 0.846530	 -1.101411
C	 -1.413045	 0.229353	 0.001137
H	 -0.152877	 -1.303435	 -0.866175
H	 -0.152278	 -1.305116	 0.864586
C	 -2.702562	 -0.586401	 0.000228
H	 -1.390744	 0.882001	 -0.864365
H	 -1.390549	 0.879837	 0.868264
C	 -3.953810	 0.284959	 -0.000782
H	 -2.717793	 -1.238567	 -0.869075
H	 -2.719108	 -1.238472	 0.869576
H	 -3.983727	 0.924403	 -0.876454
H	 -4.852989	 -0.320147	 -0.001515
H	 -3.985140	 0.924399	 0.874841
C	 2.421072	 1.626274	 -1.233867
H	 2.491896	 2.347133	 -0.432884
H	 2.336792	 2.131148	 -2.182480
H	 3.300105	 0.999068	 -1.222164

	symmetry c1
}
set optking {
	frozen_dihedral = ("
		1 2 3 6
	")
}

ee,wfn = optimize('scf', return_wfn=True)
oeprop( wfn, 'DIPOLE', 'QUADRUPOLE', 'MULLIKEN_CHARGES')
f=open( 'psi4out.xyz', 'w' )
f.write( "20  " )
f.write( str(ee) + "\n" )
f.write( MOL.save_string_xyz() )
f.close()
--------------------------------------------------------------------------

    Molecular point group: c1
  Charge       = 0
  Multiplicity = 1
  Basis Set: CC-PVTZ
  Basis Set:
  @DF-RHF Final Energy:  -384.08171655754302
    Total Energy =                       -384.0817165575426770
    Molecular point group: c1
  Basis Set: CC-PVTZ
  Basis Set:
  Basis Set: CC-PVTZ
  Basis Set:
  @DF-RHF Final Energy:  -384.08188275334396
    Total Energy =                       -384.0818827533436206
  Basis Set: CC-PVTZ
  Basis Set:
  Basis Set: CC-PVTZ
  Basis Set:
  @DF-RHF Final Energy:  -384.08197884192316
    Total Energy =                       -384.0819788419232736
  Basis Set: CC-PVTZ
  Basis Set:
  Basis Set: CC-PVTZ
  Basis Set:
  @DF-RHF Final Energy:  -384.08202744571730
    Total Energy =                       -384.0820274457170171
  Basis Set: CC-PVTZ
  Basis Set:
  Charge       = 0
  Multiplicity = 1
  Basis Set: CC-PVTZ
  Basis Set:

    Orbital Energies (a.u.)
    -----------------------

    Doubly Occupied:

       1A    -20.596948     2A    -20.532797     3A    -11.363569
       4A    -11.278647     5A    -11.232718     6A    -11.226502
       7A    -11.222089     8A    -11.212471     9A     -1.471890
      10A     -1.364603    11A     -1.093974    12A     -1.026196
      13A     -0.967553    14A     -0.891937    15A     -0.807673
      16A     -0.776030    17A     -0.695941    18A     -0.683581
      19A     -0.676665    20A     -0.649173    21A     -0.597521
      22A     -0.593409    23A     -0.577811    24A     -0.552139
      25A     -0.534179    26A     -0.522428    27A     -0.510805
      28A     -0.487642    29A     -0.481482    30A     -0.475481
      31A     -0.458533    32A     -0.432038

  @DF-RHF Final Energy:  -384.08202821210386

   => Energetics <=

    Nuclear Repulsion Energy =            384.0952057328332785
    One-Electron Energy =               -1284.3656172282067018
    Two-Electron Energy =                 516.1883832832695589
    DFT Exchange-Correlation Energy =       0.0000000000000000
    Empirical Dispersion Energy =           0.0000000000000000
    PCM Polarization Energy =               0.0000000000000000
    EFP Energy =                            0.0000000000000000
    Total Energy =                       -384.0820282121038645
    Molecular point group: c1
  Basis Set: CC-PVTZ
  Basis Set:

  -Total Gradient:
     Atom            X                  Y                   Z
    ------   -----------------  -----------------  -----------------
       1        0.000175868186    -0.000340382380    -0.000271829138
       2       -0.000183368582     0.000317313219     0.000535251077
       3       -0.000192792850     0.000296141632    -0.000449387861
       4        0.000022137061     0.000040052355    -0.000077585017
       5        0.000019520222    -0.000002843652     0.000029530669
       6        0.000228878903    -0.000338026868     0.000282224327
       7        0.000001150718    -0.000022760440    -0.000017128927
       8       -0.000001670834     0.000009371618    -0.000027196522
       9        0.000002155776    -0.000012029104     0.000022784737
      10       -0.000024010744     0.000023951362    -0.000030229851
      11       -0.000010941386     0.000002739289     0.000026854078
      12       -0.000000564927    -0.000004493386    -0.000007923322
      13       -0.000003306401    -0.000013125621    -0.000003373634
      14        0.000002393983    -0.000009624052     0.000003142220
      15       -0.000011497134     0.000003345964     0.000006426143
      16       -0.000004118231     0.000009361554    -0.000004114720
      17       -0.000068288620     0.000042303152     0.000003845722
      18        0.000019602317     0.000001533513    -0.000008008692
      19        0.000030026439     0.000015814883    -0.000016289328
      20       -0.000001173904    -0.000018643040     0.000003008039

  **** Optimization is complete! (in 5 steps) ****
    Final optimized geometry and variables:
    Molecular point group: c1

    Geometry (in Angstrom), charge = 0, multiplicity = 1:

    O            2.090998223094    -0.188778379858     1.048234642043
    C            1.280604496839    -0.151678029016     0.185717608570
    C           -0.009207924865    -0.930290813027     0.184403440227
    O            1.418365720960     0.586299952002    -0.903961156332
    C           -1.253282080735    -0.038702683964     0.167042985352
    H           -0.005988677577    -1.574987318991    -0.688150160427
    H            0.000478607896    -1.556911121298     1.064573563217
    C           -2.546143307514    -0.848029801384     0.207428783513
    H           -1.239194388251     0.582613528273    -0.720562173107
    H           -1.222950485021     0.633334567599     1.020202424810
    C           -3.793903380703     0.028350079869     0.200700228145
    H           -2.573498215809    -1.521763070941    -0.644576494020
    H           -2.550795967646    -1.475842017856     1.093806916082
    H           -3.834968022539     0.643703529309    -0.691693675605
    H           -4.694629368832    -0.573524477003     0.229338653003
    H           -3.811251064137     0.690845478270     1.059484287099
    C            2.592285504981     1.365097842885    -1.016150452830
    H            2.660221509590     2.071703899869    -0.202385292807
    H            2.515487391185     1.886403330004    -1.956564835617
    H            3.469200418686     0.734911587270    -1.009511121173

  Mulliken Charges: (a.u.)
   Center  Symbol    Alpha    Beta     Spin     Total
       1     O     4.19994  4.19994  0.00000 -0.39988
       2     C     2.80959  2.80959  0.00000  0.38082
       3     C     3.07730  3.07730  0.00000 -0.15459
       4     O     4.14960  4.14960  0.00000 -0.29920
       5     C     3.09760  3.09760  0.00000 -0.19519
       6     H     0.44698  0.44698  0.00000  0.10603
       7     H     0.43726  0.43726  0.00000  0.12548
       8     C     3.08867  3.08867  0.00000 -0.17734
       9     H     0.44350  0.44350  0.00000  0.11301
      10     H     0.44893  0.44893  0.00000  0.10214
      11     C     3.14914  3.14914  0.00000 -0.29828
      12     H     0.45362  0.45362  0.00000  0.09277
      13     H     0.45221  0.45221  0.00000  0.09558
      14     H     0.45437  0.45437  0.00000  0.09126
      15     H     0.44737  0.44737  0.00000  0.10525
      16     H     0.45388  0.45388  0.00000  0.09224
      17     C     3.03733  3.03733  0.00000 -0.07465
      18     H     0.45431  0.45431  0.00000  0.09137
      19     H     0.44568  0.44568  0.00000  0.10865
      20     H     0.45273  0.45273  0.00000  0.09454

   Total alpha = 32.00000, Total beta = 32.00000, Total charge = -0.00000

*** Psi4 exiting successfully. Buy a developer a beer!
