  ==> Input File <==

--------------------------------------------------------------------------
set {
	reference rhf
	basis 6-31G*
}

set_num_threads( 4 )
memory 2 gb

molecule MOL {
0 1

H	 -2.798360	 -0.862255	 -0.071053
N	 -1.863561	 -0.715187	 0.256814
C	 -1.344686	 0.554728	 -0.219830
H	 -1.300452	 -1.461917	 -0.101532
C	 0.081427	 0.741154	 0.254071
H	 -1.362155	 0.656231	 -1.305829
H	 -1.952773	 1.354456	 0.191809
O	 0.874168	 -0.245412	 -0.342030
H	 0.444037	 1.730782	 -0.023037
H	 0.121165	 0.653424	 1.337565
C	 2.243408	 -0.063603	 -0.169701
H	 2.748126	 -0.878870	 -0.669997
H	 2.577944	 0.876489	 -0.604781
H	 2.516243	 -0.072832	 0.883525

	symmetry c1
}
set optking {
	frozen_dihedral = ("
		11 8 5 3
	")
}

ee = optimize('scf')
oeprop('DIPOLE', 'QUADRUPOLE', 'MULLIKEN_CHARGES')
f=open( 'psi4out.xyz', 'w' )
f.write( "14  " )
f.write( str(ee) + "\n" )
f.write( MOL.save_string_xyz() )
f.close()
--------------------------------------------------------------------------

    Molecular point group: c1
  Charge       = 0
  Multiplicity = 1
  Basis Set: 6-31G*
  Basis Set:
  @DF-RHF Final Energy:  -248.12476954712210
    Total Energy =                       -248.1247695471223551
    Molecular point group: c1
  Basis Set: 6-31G*
  Basis Set:
  Basis Set: 6-31G*
  Basis Set:
  @DF-RHF Final Energy:  -248.12478915920539
    Total Energy =                       -248.1247891592054202
  Basis Set: 6-31G*
  Basis Set:
  Charge       = 0
  Multiplicity = 1
  Basis Set: 6-31G*
  Basis Set:

    Orbital Energies (a.u.)
    -----------------------

    Doubly Occupied:

       1A    -20.557274     2A    -15.528157     3A    -11.266708
       4A    -11.265759     5A    -11.240782     6A     -1.381352
       7A     -1.173260     8A     -0.999065     9A     -0.907875
      10A     -0.814941    11A     -0.682719    12A     -0.675304
      13A     -0.645009    14A     -0.608298    15A     -0.607147
      16A     -0.540894    17A     -0.530877    18A     -0.496821
      19A     -0.472733    20A     -0.417153    21A     -0.379749

  @DF-RHF Final Energy:  -248.12479055164371

   => Energetics <=

    Nuclear Repulsion Energy =            194.4623505015144076
    One-Electron Energy =                -722.7905272613810439
    Two-Electron Energy =                 280.2033862082228097
    DFT Exchange-Correlation Energy =       0.0000000000000000
    Empirical Dispersion Energy =           0.0000000000000000
    PCM Polarization Energy =               0.0000000000000000
    EFP Energy =                            0.0000000000000000
    Total Energy =                       -248.1247905516438550
    Molecular point group: c1
  Basis Set: 6-31G*
  Basis Set:

  -Total Gradient:
     Atom            X                  Y                   Z
    ------   -----------------  -----------------  -----------------
       1       -0.000017626932    -0.000028306276     0.000010145092
       2       -0.000067688783    -0.000054757813     0.000016094676
       3        0.000343176289     0.000889248967    -0.001165990854
       4       -0.000002094229     0.000012568331     0.000000758714
       5       -0.000270667605    -0.000719885316     0.000940598375
       6       -0.000000548344     0.000011524873     0.000009999859
       7        0.000012368526    -0.000025054433     0.000013574813
       8       -0.000024975749    -0.000971048436     0.001556305478
       9       -0.000010645464     0.000005620197    -0.000007597563
      10        0.000016968101    -0.000022124449    -0.000026539691
      11        0.000053909698     0.000920831837    -0.001342964131
      12       -0.000036398418    -0.000010408972     0.000007512220
      13        0.000012085436     0.000006896930    -0.000001046805
      14       -0.000007862530    -0.000015105441    -0.000010850183

  **** Optimization is complete! (in 3 steps) ****
    Final optimized geometry and variables:
    Molecular point group: c1

    Geometry (in Angstrom), charge = 0, multiplicity = 1:

    H           -2.805794202225    -0.903450567360    -0.030677001991
    N           -1.873470756476    -0.755044515673     0.303506093873
    C           -1.353668740346     0.517457805617    -0.165935459041
    H           -1.306766456117    -1.500583759513    -0.051766224965
    C            0.072695684632     0.704143901799     0.307386414958
    H           -1.369383727429     0.624750835235    -1.251321914708
    H           -1.962644588549     1.314377409343     0.249832397332
    O            0.865827675968    -0.282587810626    -0.288592131451
    H            0.427807834562     1.693600885074     0.020274394353
    H            0.121909788047     0.624284101040     1.390881493559
    C            2.235481172680    -0.103051736096    -0.118332106099
    H            2.737611179337    -0.921792399998    -0.615420138393
    H            2.569537970588     0.834740490353    -0.558167779170
    H            2.511902950580    -0.108583284331     0.934239165252

  Mulliken Charges: (a.u.)
   Center  Symbol    Alpha    Beta     Spin     Total
       1     H     0.33292  0.33292  0.00000  0.33415
       2     N     3.92530  3.92530  0.00000 -0.85060
       3     C     3.06802  3.06802  0.00000 -0.13604
       4     H     0.32332  0.32332  0.00000  0.35336
       5     C     2.98996  2.98996  0.00000  0.02009
       6     H     0.42741  0.42741  0.00000  0.14518
       7     H     0.42071  0.42071  0.00000  0.15858
       8     O     4.30990  4.30990  0.00000 -0.61980
       9     H     0.43206  0.43206  0.00000  0.13587
      10     H     0.42137  0.42137  0.00000  0.15726
      11     C     3.07872  3.07872  0.00000 -0.15745
      12     H     0.41243  0.41243  0.00000  0.17514
      13     H     0.42963  0.42963  0.00000  0.14074
      14     H     0.42824  0.42824  0.00000  0.14351

   Total alpha = 21.00000, Total beta = 21.00000, Total charge = -0.00000
