  ==> Input File <==

--------------------------------------------------------------------------
set {
	reference rhf
	basis cc-pvtz
}

set_num_threads( 4 )
memory 2 gb

molecule MOL {
0 1

H	 -3.436473	 1.252944	 -1.023892
O	 -3.458596	 0.315260	 -0.960865
C	 -3.176635	 -0.080824	 0.355601
C	 -1.763371	 0.265266	 0.799691
H	 -3.321825	 -1.153438	 0.379502
H	 -3.895468	 0.357385	 1.043382
C	 -0.673390	 -0.426948	 -0.013392
H	 -1.631049	 1.344913	 0.747560
H	 -1.664587	 -0.001624	 1.849167
C	 0.737842	 -0.043159	 0.423759
H	 -0.806103	 -0.190518	 -1.063345
H	 -0.797221	 -1.503753	 0.074146
C	 1.824000	 -0.743224	 -0.390623
H	 0.850588	 1.033777	 0.343840
H	 0.868587	 -0.286314	 1.476203
C	 3.255957	 -0.453067	 0.062319
H	 1.718250	 -0.470599	 -1.438164
H	 1.658105	 -1.815850	 -0.339904
C	 4.265903	 -0.300483	 -1.072525
H	 3.581168	 -1.261587	 0.709860
H	 3.263308	 0.445360	 0.674034
H	 4.276397	 -1.182365	 -1.705179
H	 5.267374	 -0.164935	 -0.680195
H	 4.044856	 0.554148	 -1.700497

	symmetry c1
}
set optking {
	frozen_dihedral = ("
		20 16 13 17
	")
}

ee = optimize('scf')
oeprop('DIPOLE', 'QUADRUPOLE', 'MULLIKEN_CHARGES')
f=open( 'psi4out.xyz', 'w' )
f.write( "24  " )
f.write( str(ee) + "\n" )
f.write( MOL.save_string_xyz() )
f.close()
--------------------------------------------------------------------------

    Molecular point group: c1
  Charge       = 0
  Multiplicity = 1
  Basis Set: CC-PVTZ
  Basis Set:
  @DF-RHF Final Energy:  -349.37770812406575
    Total Energy =                       -349.3777081240655207
    Molecular point group: c1
  Basis Set: CC-PVTZ
  Basis Set:
  Basis Set: CC-PVTZ
  Basis Set:
  @DF-RHF Final Energy:  -349.37812376620110
    Total Energy =                       -349.3781237662004742
  Basis Set: CC-PVTZ
  Basis Set:
  Basis Set: CC-PVTZ
  Basis Set:
  @DF-RHF Final Energy:  -349.37815987749735
    Total Energy =                       -349.3781598774967279
  Basis Set: CC-PVTZ
  Basis Set:
  Charge       = 0
  Multiplicity = 1
  Basis Set: CC-PVTZ
  Basis Set:

    Orbital Energies (a.u.)
    -----------------------

    Doubly Occupied:

       1A    -20.546346     2A    -11.265588     3A    -11.215297
       4A    -11.211541     5A    -11.211126     6A    -11.209026
       7A    -11.208863     8A    -11.205422     9A     -1.364200
      10A     -1.089085    11A     -1.049269    12A     -0.989107
      13A     -0.914348    14A     -0.843252    15A     -0.798678
      16A     -0.788524    17A     -0.681855    18A     -0.656173
      19A     -0.629726    20A     -0.616269    21A     -0.596625
      22A     -0.585494    23A     -0.551213    24A     -0.539374
      25A     -0.532232    26A     -0.503263    27A     -0.494570
      28A     -0.471778    29A     -0.469661    30A     -0.459807
      31A     -0.457054    32A     -0.454086    33A     -0.420565

  @DF-RHF Final Energy:  -349.37816002261201

   => Energetics <=

    Nuclear Repulsion Energy =            381.1800734824598180
    One-Electron Energy =               -1229.0576209292437397
    Two-Electron Energy =                 498.4993874241723120
    DFT Exchange-Correlation Energy =       0.0000000000000000
    Empirical Dispersion Energy =           0.0000000000000000
    PCM Polarization Energy =               0.0000000000000000
    EFP Energy =                            0.0000000000000000
    Total Energy =                       -349.3781600226115529
    Molecular point group: c1
  Basis Set: CC-PVTZ
  Basis Set:

  -Total Gradient:
     Atom            X                  Y                   Z
    ------   -----------------  -----------------  -----------------
       1        0.000001067450    -0.000002465045     0.000001556480
       2       -0.000003231537    -0.000002827056    -0.000012326704
       3        0.000001368846     0.000024037725    -0.000002202349
       4       -0.000014783249     0.000025269938    -0.000041486554
       5        0.000003747331    -0.000000276874     0.000000897585
       6       -0.000000443087    -0.000002145127     0.000004271129
       7       -0.000035975919     0.000057523417     0.000013501916
       8       -0.000005243317     0.000009970146     0.000012110789
       9        0.000011228656    -0.000014087079    -0.000012881630
      10       -0.000061971309    -0.000053526747     0.000098309082
      11       -0.000011765648    -0.000017755881    -0.000012581437
      12        0.000035434345     0.000015721364     0.000031618810
      13       -0.001039021019     0.004187219369     0.000582360170
      14        0.000017585863     0.000018381982     0.000039751566
      15        0.000003573834    -0.000036483133    -0.000032512888
      16       -0.001709863123     0.001620734884     0.003726422644
      17        0.001263252776    -0.003765638533    -0.001025138276
      18        0.000083587940    -0.000026309463     0.000007612775
      19        0.000072316697     0.000013000556    -0.000039861550
      20        0.001405252533    -0.002050166741    -0.003178520109
      21       -0.000066793132    -0.000027325191    -0.000046749171
      22        0.000015213810     0.000018244253    -0.000008478313
      23        0.000035705945     0.000000982171    -0.000049916442
      24       -0.000000244685     0.000007921065    -0.000055757522

  **** Optimization is complete! (in 4 steps) ****
    Final optimized geometry and variables:
    Molecular point group: c1

    Geometry (in Angstrom), charge = 0, multiplicity = 1:

    H           -3.490326650241     1.447907435516    -0.895134045377
    O           -3.521077454880     0.509700614827    -0.845125760701
    C           -3.248967689138     0.093276390187     0.467038488255
    C           -1.834687577797     0.420322920812     0.922199703532
    H           -3.403995918985    -0.978200438713     0.475293183155
    H           -3.967092790828     0.528433452238     1.157497556529
    C           -0.747145951173    -0.268530532697     0.102975362049
    H           -1.692874370036     1.499460234806     0.887348849741
    H           -1.742524197179     0.136405359243     1.967785187395
    C            0.664812734399     0.095564502310     0.551663756057
    H           -0.873155330983    -0.014925732923    -0.943829500869
    H           -0.880203460113    -1.345494541990     0.173490069587
    C            1.756209496240    -0.583428494201    -0.269332579650
    H            0.794654881087     1.173865192117     0.492683757494
    H            0.791464094270    -0.166958329122     1.599828277551
    C            3.184025922455    -0.260104749934     0.199978742135
    H            1.648618741363    -0.326490568576    -1.319469529465
    H            1.607867469731    -1.659613682155    -0.231061046976
    C            4.178922961842    -0.140872790461    -0.952763398662
    H            3.533265699051    -1.046441486397     0.861316857183
    H            3.188909558316     0.662572409471     0.771022718554
    H            4.206459239266    -1.053256923706    -1.539752973095
    H            5.183004846537     0.048241745355    -0.589803447918
    H            3.908265861558     0.670469129819    -1.620378952095

  Mulliken Charges: (a.u.)
   Center  Symbol    Alpha    Beta     Spin     Total
       1     H     0.39530  0.39530  0.00000  0.20940
       2     O     4.20367  4.20367  0.00000 -0.40733
       3     C     2.97773  2.97773  0.00000  0.04455
       4     C     3.10216  3.10216  0.00000 -0.20431
       5     H     0.45889  0.45889  0.00000  0.08221
       6     H     0.46028  0.46028  0.00000  0.07945
       7     C     3.08843  3.08843  0.00000 -0.17685
       8     H     0.45909  0.45909  0.00000  0.08183
       9     H     0.45329  0.45329  0.00000  0.09341
      10     C     3.08915  3.08915  0.00000 -0.17829
      11     H     0.44616  0.44616  0.00000  0.10768
      12     H     0.45527  0.45527  0.00000  0.08946
      13     C     3.09052  3.09052  0.00000 -0.18105
      14     H     0.45535  0.45535  0.00000  0.08930
      15     H     0.45471  0.45471  0.00000  0.09058
      16     C     3.08577  3.08577  0.00000 -0.17155
      17     H     0.45388  0.45388  0.00000  0.09224
      18     H     0.45357  0.45357  0.00000  0.09287
      19     C     3.14861  3.14861  0.00000 -0.29722
      20     H     0.45290  0.45290  0.00000  0.09419
      21     H     0.45501  0.45501  0.00000  0.08997
      22     H     0.45444  0.45444  0.00000  0.09113
      23     H     0.44991  0.44991  0.00000  0.10018
      24     H     0.45591  0.45591  0.00000  0.08818

   Total alpha = 33.00000, Total beta = 33.00000, Total charge = -0.00000
