  ==> Input File <==

--------------------------------------------------------------------------
set {
	reference rhf
	basis 6-31G*
}

set_num_threads( 4 )
memory 2 gb

molecule MOL {
0 1

H	 -2.212285	 -1.613118	 -1.937202
N	 -1.311338	 -1.643622	 -1.500924
C	 -1.352440	 -1.018575	 -0.190683
H	 -0.676654	 -1.141473	 -2.090951
C	 0.025911	 -1.040477	 0.436057
H	 -1.706144	 0.013226	 -0.207467
H	 -2.028851	 -1.584441	 0.442599
O	 0.874168	 -0.245412	 -0.342030
H	 -0.017456	 -0.655892	 1.454807
H	 0.395091	 -2.063047	 0.472002
C	 2.202317	 -0.244239	 0.074611
H	 2.711377	 -1.041390	 -0.449894
H	 2.692099	 0.699270	 -0.159667
H	 2.283185	 -0.418429	 1.145558

	symmetry c1
}
set optking {
	frozen_dihedral = ("
		5 8 11 13
	")
}

ee = optimize('scf')
oeprop('DIPOLE', 'QUADRUPOLE', 'MULLIKEN_CHARGES')
f=open( 'psi4out.xyz', 'w' )
f.write( "14  " )
f.write( str(ee) + "\n" )
f.write( MOL.save_string_xyz() )
f.close()
--------------------------------------------------------------------------

    Molecular point group: c1
  Charge       = 0
  Multiplicity = 1
  Basis Set: 6-31G*
  Basis Set:
  @DF-RHF Final Energy:  -248.12234032010693
    Total Energy =                       -248.1223403201070710
    Molecular point group: c1
  Basis Set: 6-31G*
  Basis Set:
  Basis Set: 6-31G*
  Basis Set:
  @DF-RHF Final Energy:  -248.12315905632286
    Total Energy =                       -248.1231590563228337
  Basis Set: 6-31G*
  Basis Set:
  Basis Set: 6-31G*
  Basis Set:
  @DF-RHF Final Energy:  -248.12334912200964
    Total Energy =                       -248.1233491220095857
  Basis Set: 6-31G*
  Basis Set:
  Charge       = 0
  Multiplicity = 1
  Basis Set: 6-31G*
  Basis Set:

    Orbital Energies (a.u.)
    -----------------------

    Doubly Occupied:

       1A    -20.555507     2A    -15.528212     3A    -11.265953
       4A    -11.265829     5A    -11.240487     6A     -1.378898
       7A     -1.173309     8A     -0.998888     9A     -0.907340
      10A     -0.814971    11A     -0.683331    12A     -0.672780
      13A     -0.643580    14A     -0.609525    15A     -0.605239
      16A     -0.540167    17A     -0.533409    18A     -0.495634
      19A     -0.472060    20A     -0.415082    21A     -0.379884

  @DF-RHF Final Energy:  -248.12334962129361

   => Energetics <=

    Nuclear Repulsion Energy =            194.5381402049927431
    One-Electron Energy =                -722.9628061413424120
    Two-Electron Energy =                 280.3013163150561127
    DFT Exchange-Correlation Energy =       0.0000000000000000
    Empirical Dispersion Energy =           0.0000000000000000
    PCM Polarization Energy =               0.0000000000000000
    EFP Energy =                            0.0000000000000000
    Total Energy =                       -248.1233496212935847
    Molecular point group: c1
  Basis Set: 6-31G*
  Basis Set:

  -Total Gradient:
     Atom            X                  Y                   Z
    ------   -----------------  -----------------  -----------------
       1        0.000008643169     0.000002455515    -0.000022111674
       2       -0.000013411433    -0.000000919077    -0.000016769821
       3        0.000046048872    -0.000036326604    -0.000011459321
       4       -0.000001488107     0.000014611375    -0.000022954370
       5       -0.000461280535     0.002018177312     0.001624011472
       6        0.000024898797    -0.000009714622     0.000009598231
       7        0.000014356342    -0.000003501383     0.000016827006
       8        0.000504003394    -0.002485277625    -0.001550939623
       9       -0.000007998010    -0.000025702713     0.000033862194
      10        0.000001721826     0.000035779190    -0.000047812370
      11        0.000821262365    -0.000603014756    -0.002673334186
      12       -0.000017896077    -0.000002436877    -0.000018372892
      13       -0.000887612269     0.001098855500     0.002666941642
      14       -0.000031248338    -0.000002985237     0.000012513710

  **** Optimization is complete! (in 4 steps) ****
    Final optimized geometry and variables:
    Molecular point group: c1

    Geometry (in Angstrom), charge = 0, multiplicity = 1:

    H           -2.317937173669    -0.759501229715    -1.621715746066
    N           -1.417564495336    -0.798201158757    -1.184969911052
    C           -1.455348347339    -0.180536555550     0.128955858028
    H           -0.779508889123    -0.296307464580    -1.771581066281
    C           -0.078633093664    -0.217030485339     0.758215669002
    H           -1.799998053604     0.854393091328     0.117467430285
    H           -2.137440769603    -0.744200032112     0.758116382990
    O            0.775063734135     0.576797474115    -0.016270105260
    H           -0.119636351067     0.164631450258     1.777578082367
    H            0.279054332210    -1.243675885070     0.790386690560
    C            2.110312545941     0.580346450315     0.387445216684
    H            2.671000488380    -0.215254349196    -0.095589565239
    H            2.538150210367     1.539763182365     0.126684925428
    H            2.199354190070     0.460120120331     1.464615040174

  Mulliken Charges: (a.u.)
   Center  Symbol    Alpha    Beta     Spin     Total
       1     H     0.33289  0.33289  0.00000  0.33423
       2     N     3.92526  3.92526  0.00000 -0.85053
       3     C     3.06896  3.06896  0.00000 -0.13791
       4     H     0.32367  0.32367  0.00000  0.35267
       5     C     2.99009  2.99009  0.00000  0.01982
       6     H     0.42671  0.42671  0.00000  0.14659
       7     H     0.42060  0.42060  0.00000  0.15881
       8     O     4.31204  4.31204  0.00000 -0.62408
       9     H     0.43049  0.43049  0.00000  0.13903
      10     H     0.42275  0.42275  0.00000  0.15451
      11     C     3.07704  3.07704  0.00000 -0.15407
      12     H     0.42399  0.42399  0.00000  0.15202
      13     H     0.41506  0.41506  0.00000  0.16989
      14     H     0.43047  0.43047  0.00000  0.13905

   Total alpha = 21.00000, Total beta = 21.00000, Total charge =  0.00000
