  ==> Input File <==

--------------------------------------------------------------------------
set {
	reference rhf
	basis cc-pvtz
}

set_num_threads( 4 )
memory 2 gb

molecule MOL {
0 1

H	 -1.088256	 -1.364742	 0.152233
O	 -1.432053	 -0.565244	 -0.200812
C	 -0.727158	 0.534527	 0.310686
C	 0.680222	 0.664433	 -0.252229
H	 -1.306802	 1.408001	 0.044211
H	 -0.690821	 0.490158	 1.397609
C	 0.989225	 2.040910	 -0.833499
H	 1.390563	 0.430597	 0.533881
H	 0.802905	 -0.089688	 -1.024822
H	 0.935517	 2.814573	 -0.075420
H	 1.988839	 2.070878	 -1.249942
H	 0.294154	 2.298027	 -1.627051

	symmetry c1
}
set optking {
	frozen_dihedral = ("
		8 4 3 2
	")
}

ee = optimize('scf')
oeprop('DIPOLE', 'QUADRUPOLE', 'MULLIKEN_CHARGES')
f=open( 'psi4out.xyz', 'w' )
f.write( "12  " )
f.write( str(ee) + "\n" )
f.write( MOL.save_string_xyz() )
f.close()
--------------------------------------------------------------------------

    Molecular point group: c1
  Charge       = 0
  Multiplicity = 1
  Basis Set: CC-PVTZ
  Basis Set:
  @DF-RHF Final Energy:  -193.18478748387395
    Total Energy =                       -193.1847874838739472
    Molecular point group: c1
  Basis Set: CC-PVTZ
  Basis Set:
  Basis Set: CC-PVTZ
  Basis Set:
  @DF-RHF Final Energy:  -193.18520162575683
    Total Energy =                       -193.1852016257568323
  Basis Set: CC-PVTZ
  Basis Set:
  Basis Set: CC-PVTZ
  Basis Set:
  @DF-RHF Final Energy:  -193.18527315944135
    Total Energy =                       -193.1852731594412944
  Basis Set: CC-PVTZ
  Basis Set:
  Basis Set: CC-PVTZ
  Basis Set:
  @DF-RHF Final Energy:  -193.18527697517357
    Total Energy =                       -193.1852769751736218
  Basis Set: CC-PVTZ
  Basis Set:
  Charge       = 0
  Multiplicity = 1
  Basis Set: CC-PVTZ
  Basis Set:

    Orbital Energies (a.u.)
    -----------------------

    Doubly Occupied:

       1A    -20.545807     2A    -11.265685     3A    -11.216590
       4A    -11.211975     5A     -1.363228     6A     -1.050353
       7A     -0.918041     8A     -0.819876     9A     -0.691306
      10A     -0.629745    11A     -0.614141    12A     -0.582730
      13A     -0.535431    14A     -0.514274    15A     -0.490611
      16A     -0.465713    17A     -0.430808

  @DF-RHF Final Energy:  -193.18527781267912

   => Energetics <=

    Nuclear Repulsion Energy =            131.0536806110311829
    One-Electron Energy =                -521.7852928960907093
    Two-Electron Energy =                 197.5463344723805790
    DFT Exchange-Correlation Energy =       0.0000000000000000
    Empirical Dispersion Energy =           0.0000000000000000
    PCM Polarization Energy =               0.0000000000000000
    EFP Energy =                            0.0000000000000000
    Total Energy =                       -193.1852778126789758
    Molecular point group: c1
  Basis Set: CC-PVTZ
  Basis Set:

  -Total Gradient:
     Atom            X                  Y                   Z
    ------   -----------------  -----------------  -----------------
       1        0.000011697432     0.000011455350     0.000013253249
       2       -0.000784719954     0.001278370332    -0.001615298190
       3        0.001095468617    -0.001033811730     0.002425738215
       4       -0.000383413905    -0.002913723190    -0.001505257516
       5        0.000015308779    -0.000035858729    -0.000022831321
       6       -0.000009463507    -0.000048127884    -0.000002622308
       7        0.000041342832     0.000008482145    -0.000017778534
       8        0.000045517227     0.002706281232     0.000719240172
       9       -0.000028610010     0.000017392574     0.000005844807
      10       -0.000004646992    -0.000017114213     0.000011773886
      11       -0.000003971012     0.000029178368     0.000003908723
      12        0.000005490491    -0.000002524257    -0.000015971184

  **** Optimization is complete! (in 5 steps) ****
    Final optimized geometry and variables:
    Molecular point group: c1

    Geometry (in Angstrom), charge = 0, multiplicity = 1:

    H           -0.902072960507    -1.990507650708     0.357624010622
    O           -1.296798645138    -1.189079626434     0.065407337207
    C           -0.572346072504    -0.089815289436     0.552028286798
    C            0.844825982264     0.018669795811    -0.033701573881
    H           -1.154249813875     0.777199777843     0.270154444963
    H           -0.537518861264    -0.110304900997     1.637641390441
    C            1.151747689400     1.402693928758    -0.600929320744
    H            1.581548904092    -0.207445240266     0.730813317220
    H            0.947020080567    -0.723763776462    -0.816150005998
    H            1.047236130263     2.169552062615     0.159868577034
    H            2.165040741324     1.454151765808    -0.981684429161
    H            0.476097311556     1.648155426326    -1.412794111307

  Mulliken Charges: (a.u.)
   Center  Symbol    Alpha    Beta     Spin     Total
       1     H     0.39490  0.39490  0.00000  0.21019
       2     O     4.20106  4.20106  0.00000 -0.40211
       3     C     2.96670  2.96670  0.00000  0.06660
       4     C     3.09368  3.09368  0.00000 -0.18735
       5     H     0.45949  0.45949  0.00000  0.08103
       6     H     0.46904  0.46904  0.00000  0.06193
       7     C     3.15125  3.15125  0.00000 -0.30250
       8     H     0.45595  0.45595  0.00000  0.08810
       9     H     0.45134  0.45134  0.00000  0.09732
      10     H     0.45520  0.45520  0.00000  0.08959
      11     H     0.44961  0.44961  0.00000  0.10079
      12     H     0.45180  0.45180  0.00000  0.09641

   Total alpha = 17.00000, Total beta = 17.00000, Total charge =  0.00000
