  ==> Input File <==

--------------------------------------------------------------------------
set {
	reference rhf
	basis 6-31G*
}

set_num_threads( 4 )
memory 2 gb

molecule MOL {
0 1

H	 -0.175602	 -0.883865	 -2.514582
C	 -0.680688	 -0.001187	 -2.133887
O	 -0.774054	 0.001095	 -0.743181
H	 -1.694875	 -0.002189	 -2.510390
H	 -0.176250	 0.880665	 -2.517389
C	 0.406953	 0.000033	 0.038965
C	 1.527284	 -0.003667	 -0.998752
C	 0.498933	 1.262172	 0.902524
C	 0.494271	 -1.259566	 0.906664
H	 1.452513	 0.873252	 -1.631882
H	 1.448863	 -0.881882	 -1.629595
H	 2.502020	 -0.005104	 -0.521731
H	 0.364280	 2.147110	 0.289513
H	 1.472180	 1.321775	 1.378800
H	 -0.247853	 1.275162	 1.689097
H	 0.356778	 -2.146106	 0.296587
H	 1.467182	 -1.320941	 1.383330
H	 -0.252763	 -1.267328	 1.693119

	symmetry c1
}
set optking {
	frozen_dihedral = ("
		2 3 6 7
	")
}

ee = optimize('scf')
oeprop('DIPOLE', 'QUADRUPOLE', 'MULLIKEN_CHARGES')
f=open( 'psi4out.xyz', 'w' )
f.write( "18  " )
f.write( str(ee) + "\n" )
f.write( MOL.save_string_xyz() )
f.close()
--------------------------------------------------------------------------

    Molecular point group: c1
  Charge       = 0
  Multiplicity = 1
  Basis Set: 6-31G*
  Basis Set:
  @DF-RHF Final Energy:  -271.15362259031423
    Total Energy =                       -271.1536225903143986
    Molecular point group: c1
  Basis Set: 6-31G*
  Basis Set:
  Basis Set: 6-31G*
  Basis Set:
  @DF-RHF Final Energy:  -271.16061434852156
    Total Energy =                       -271.1606143485217899
  Basis Set: 6-31G*
  Basis Set:
  Basis Set: 6-31G*
  Basis Set:
  @DF-RHF Final Energy:  -271.16711323657375
    Total Energy =                       -271.1671132365736980
  Basis Set: 6-31G*
  Basis Set:
  Basis Set: 6-31G*
  Basis Set:
  @DF-RHF Final Energy:  -271.17029448201288
    Total Energy =                       -271.1702944820127641
  Basis Set: 6-31G*
  Basis Set:
  @DF-RHF Final Energy:  -271.17089519880807
    Total Energy =                       -271.1708951988078411
  @DF-RHF Final Energy:  -271.17088857706335
    Total Energy =                       -271.1708885770634652
  Basis Set: 6-31G*
  Basis Set:
  @DF-RHF Final Energy:  -271.17106989335099
    Total Energy =                       -271.1710698933510457
  Basis Set: 6-31G*
  Basis Set:
  Basis Set: 6-31G*
  Basis Set:
  @DF-RHF Final Energy:  -271.17108087639502
    Total Energy =                       -271.1710808763948535
  Basis Set: 6-31G*
  Basis Set:
  Basis Set: 6-31G*
  Basis Set:
  @DF-RHF Final Energy:  -271.17108224890154
    Total Energy =                       -271.1710822489018256
  Basis Set: 6-31G*
  Basis Set:
  Charge       = 0
  Multiplicity = 1
  Basis Set: 6-31G*
  Basis Set:

    Orbital Energies (a.u.)
    -----------------------

    Doubly Occupied:

       1A    -20.543314     2A    -11.281847     3A    -11.262239
       4A    -11.213894     5A    -11.203343     6A    -11.203325
       7A     -1.365778     8A     -1.074020     9A     -0.950815
      10A     -0.934227    11A     -0.911586    12A     -0.751149
      13A     -0.656291    14A     -0.645975    15A     -0.636401
      16A     -0.581059    17A     -0.577630    18A     -0.546728
      19A     -0.544071    20A     -0.525939    21A     -0.514826
      22A     -0.490449    23A     -0.482374    24A     -0.441532
      25A     -0.395469

  @DF-RHF Final Energy:  -271.17108200038513

   => Energetics <=

    Nuclear Repulsion Energy =            271.6369254677662184
    One-Electron Energy =                -906.1474519876005616
    Two-Electron Energy =                 363.3394445194492164
    DFT Exchange-Correlation Energy =       0.0000000000000000
    Empirical Dispersion Energy =           0.0000000000000000
    PCM Polarization Energy =               0.0000000000000000
    EFP Energy =                            0.0000000000000000
    Total Energy =                       -271.1710820003851268
    Molecular point group: c1
  Basis Set: 6-31G*
  Basis Set:

  -Total Gradient:
     Atom            X                  Y                   Z
    ------   -----------------  -----------------  -----------------
       1        0.000000503206     0.000002644399    -0.000000736140
       2        0.000000200620    -0.000004084934     0.000010921436
       3        0.000012878795    -0.000020595018     0.000028335215
       4       -0.000000160726     0.000000506793    -0.000006193189
       5        0.000007251520     0.000004128906    -0.000000517085
       6        0.000002213491     0.000015428100    -0.000038333058
       7        0.000001450114     0.000002858508    -0.000001179555
       8       -0.000019192742    -0.000002485492     0.000011413452
       9       -0.000001894717    -0.000003308194    -0.000001987116
      10        0.000004812289     0.000010565618    -0.000003900145
      11        0.000003448876     0.000002847294    -0.000002583684
      12       -0.000013533021    -0.000006370848    -0.000002461436
      13        0.000010380604    -0.000017187001    -0.000009058676
      14       -0.000011062036    -0.000008409300     0.000015094820
      15       -0.000011292516     0.000031381347     0.000003986040
      16       -0.000012642927    -0.000016435213     0.000008870067
      17        0.000014103971    -0.000010048064    -0.000012439979
      18        0.000012535200     0.000018563098     0.000000769035

  **** Optimization is complete! (in 10 steps) ****
    Final optimized geometry and variables:
    Molecular point group: c1

    Geometry (in Angstrom), charge = 0, multiplicity = 1:

    H           -0.656443779549    -0.884750327726    -2.170977362380
    C           -1.103056992136    -0.000971596624    -1.724287866493
    O           -1.016100537887     0.000964940174    -0.334747474919
    H           -2.158707611399     0.000445566041    -1.961747298789
    H           -0.653474900582     0.879973736017    -2.173600355918
    C            0.235395247850     0.000162258852     0.343337953540
    C            1.453386295032    -0.002964938109    -0.585674839210
    C            0.247401855306     1.258813005314     1.211213315343
    C            0.243788544342    -1.255920461859     1.214963998493
    H            1.484249110940     0.876138179206    -1.219491539575
    H            1.481822176757    -0.884102660672    -1.216762717510
    H            2.355815198007    -0.003287732352     0.015914711020
    H            0.219009755119     2.147527513989     0.588833970631
    H            1.137135501418     1.303576444671     1.832123261586
    H           -0.624148780851     1.273384198357     1.855682165644
    H            0.206227948451    -2.146364541914     0.595537899432
    H            1.136512239385    -1.304642411774     1.831269576250
    H           -0.624385776686    -1.262713627721     1.864089413840

  Mulliken Charges: (a.u.)
   Center  Symbol    Alpha    Beta     Spin     Total
       1     H     0.43075  0.43075  0.00000  0.13850
       2     C     3.07453  3.07453  0.00000 -0.14906
       3     O     4.32621  4.32621  0.00000 -0.65242
       4     H     0.41245  0.41245  0.00000  0.17509
       5     H     0.43075  0.43075  0.00000  0.13851
       6     C     2.83893  2.83893  0.00000  0.32214
       7     C     3.25851  3.25851  0.00000 -0.51703
       8     C     3.23151  3.23151  0.00000 -0.46302
       9     C     3.23146  3.23146  0.00000 -0.46292
      10     H     0.41567  0.41567  0.00000  0.16866
      11     H     0.41566  0.41566  0.00000  0.16867
      12     H     0.41406  0.41406  0.00000  0.17187
      13     H     0.42029  0.42029  0.00000  0.15941
      14     H     0.42617  0.42617  0.00000  0.14765
      15     H     0.41327  0.41327  0.00000  0.17347
      16     H     0.42023  0.42023  0.00000  0.15954
      17     H     0.42620  0.42620  0.00000  0.14761
      18     H     0.41334  0.41334  0.00000  0.17331

   Total alpha = 25.00000, Total beta = 25.00000, Total charge = -0.00000
