  ==> Input File <==

--------------------------------------------------------------------------
set {
	reference rhf
	basis 6-31G*
}

set_num_threads( 4 )
memory 2 gb

molecule MOL {
0 1

H	 -3.420663	 1.227371	 -1.044276
O	 -3.452007	 0.283848	 -0.965577
C	 -3.181085	 -0.079926	 0.364119
C	 -1.765924	 0.277073	 0.805136
H	 -3.327791	 -1.152017	 0.410903
H	 -3.905698	 0.375695	 1.036898
C	 -0.677594	 -0.417312	 -0.014550
H	 -1.637766	 1.358238	 0.744969
H	 -1.659588	 0.017670	 1.857098
C	 0.738335	 -0.034840	 0.421385
H	 -0.814977	 -0.178223	 -1.064632
H	 -0.802730	 -1.495410	 0.071702
C	 1.031258	 1.457303	 0.243086
H	 0.876862	 -0.318914	 1.461833
H	 1.462266	 -0.612719	 -0.151837
C	 2.466758	 1.874421	 0.582952
H	 0.336745	 2.035225	 0.850831
H	 0.828334	 1.730525	 -0.790349
C	 2.841287	 1.720559	 2.058235
H	 2.599691	 2.914986	 0.296870
H	 3.161825	 1.301550	 -0.027707
H	 2.155023	 2.273166	 2.694479
H	 3.841163	 2.100886	 2.243805
H	 2.824469	 0.683265	 2.375884

	symmetry c1
}
set optking {
	frozen_dihedral = ("
		13 10 7 11
	")
}

ee = optimize('scf')
oeprop('DIPOLE', 'QUADRUPOLE', 'MULLIKEN_CHARGES')
f=open( 'psi4out.xyz', 'w' )
f.write( "24  " )
f.write( str(ee) + "\n" )
f.write( MOL.save_string_xyz() )
f.close()
--------------------------------------------------------------------------

    Molecular point group: c1
  Charge       = 0
  Multiplicity = 1
  Basis Set: 6-31G*
  Basis Set:
  @DF-RHF Final Energy:  -349.24499238549430
    Total Energy =                       -349.2449923854943563
    Molecular point group: c1
  Basis Set: 6-31G*
  Basis Set:
  Basis Set: 6-31G*
  Basis Set:
  @DF-RHF Final Energy:  -349.24544866666167
    Total Energy =                       -349.2454486666616731
  Basis Set: 6-31G*
  Basis Set:
  Basis Set: 6-31G*
  Basis Set:
  @DF-RHF Final Energy:  -349.24588280119997
    Total Energy =                       -349.2458828011999117
  Basis Set: 6-31G*
  Basis Set:
  Basis Set: 6-31G*
  Basis Set:
  @DF-RHF Final Energy:  -349.24590870851767
    Total Energy =                       -349.2459087085172769
  Basis Set: 6-31G*
  Basis Set:
  Charge       = 0
  Multiplicity = 1
  Basis Set: 6-31G*
  Basis Set:

    Orbital Energies (a.u.)
    -----------------------

    Doubly Occupied:

       1A    -20.553346     2A    -11.267593     3A    -11.217038
       4A    -11.215163     5A    -11.213293     6A    -11.212656
       7A    -11.211698     8A    -11.208175     9A     -1.359956
      10A     -1.089242    11A     -1.047337    12A     -0.984667
      13A     -0.916435    14A     -0.853495    15A     -0.808242
      16A     -0.767877    17A     -0.678382    18A     -0.648591
      19A     -0.629036    20A     -0.617538    21A     -0.599738
      22A     -0.576987    23A     -0.572716    24A     -0.533624
      25A     -0.525360    26A     -0.510204    27A     -0.491842
      28A     -0.483481    29A     -0.470886    30A     -0.457148
      31A     -0.451100    32A     -0.442511    33A     -0.422387

  @DF-RHF Final Energy:  -349.24590868329960

   => Energetics <=

    Nuclear Repulsion Energy =            389.2740754501628544
    One-Electron Energy =               -1244.9644817256230453
    Two-Electron Energy =                 506.4444975921607011
    DFT Exchange-Correlation Energy =       0.0000000000000000
    Empirical Dispersion Energy =           0.0000000000000000
    PCM Polarization Energy =               0.0000000000000000
    EFP Energy =                            0.0000000000000000
    Total Energy =                       -349.2459086832994899
    Molecular point group: c1
  Basis Set: 6-31G*
  Basis Set:

  -Total Gradient:
     Atom            X                  Y                   Z
    ------   -----------------  -----------------  -----------------
       1       -0.000008145237     0.000028932962    -0.000025991897
       2       -0.000084859056     0.000077426581     0.000077469650
       3        0.000006924731    -0.000161480467    -0.000003331355
       4        0.000070030976     0.000020067522    -0.000050002797
       5        0.000017306961     0.000001677952     0.000005423881
       6       -0.000030206960    -0.000006522117    -0.000024996972
       7       -0.000300858078     0.000671240109     0.000286971770
       8        0.000128630711     0.000075226639    -0.000004451547
       9       -0.000067771101     0.000039136559     0.000002030238
      10        0.000235394790    -0.000240689308    -0.000667826219
      11        0.000197373267    -0.000583990887    -0.000111377417
      12       -0.000038780752     0.000019546766    -0.000024915430
      13       -0.000204009456    -0.000034038129     0.000508488810
      14       -0.000015276957     0.000073599368    -0.000049847863
      15        0.000085555322     0.000013136428     0.000015159013
      16        0.000051188079    -0.000060417960    -0.000054054816
      17       -0.000095151040    -0.000033880982     0.000055156765
      18       -0.000012538526     0.000016160892     0.000037118252
      19        0.000020234411     0.000033582791     0.000039517123
      20        0.000017477645    -0.000006963531    -0.000037985168
      21       -0.000002131394    -0.000027619856     0.000017829180
      22       -0.000004299743     0.000003979521     0.000027000291
      23       -0.000012586024     0.000010922959    -0.000001137176
      24        0.000046497432     0.000070966189    -0.000016246314

  **** Optimization is complete! (in 5 steps) ****
    Final optimized geometry and variables:
    Molecular point group: c1

    Geometry (in Angstrom), charge = 0, multiplicity = 1:

    H           -3.217343971959     0.429700639423    -1.566263863371
    O           -3.187008166815    -0.509036786674    -1.442822405465
    C           -2.915170310150    -0.791143816845    -0.093638188510
    C           -1.536919108777    -0.313007893493     0.350851556070
    H           -2.986393135778    -1.867590916783     0.001324076905
    H           -3.682407758699    -0.357955410827     0.545918016603
    C           -0.392355129969    -0.975112697232    -0.419732985132
    H           -1.491389555494     0.769314988534     0.242995768934
    H           -1.431654916522    -0.517478812278     1.415426372055
    C            1.010996267947    -0.589456125266     0.062977180830
    H           -0.490955583484    -0.749434771881    -1.477202097707
    H           -0.500346219954    -2.054572043323    -0.332888094168
    C            1.355618030611     0.894297588142    -0.106472861625
    H            1.118212983344    -0.876853679255     1.106353659190
    H            1.737163853751    -1.181158264777    -0.491215621381
    C            2.826134922077     1.235844266451     0.162236980385
    H            0.730384231349     1.499206331992     0.546314176815
    H            1.113169027819     1.193983323149    -1.124604888494
    C            3.269035460980     1.035090560086     1.612751844752
    H            2.994874477904     2.274122692810    -0.113224819247
    H            3.458660099945     0.641543961637    -0.493947129906
    H            2.644674987135     1.606906764631     2.294313988838
    H            4.294489584831     1.363557136660     1.751681008163
    H            3.217945007066    -0.006390652830     1.912159059441

  Mulliken Charges: (a.u.)
   Center  Symbol    Alpha    Beta     Spin     Total
       1     H     0.28338  0.28338  0.00000  0.43325
       2     O     4.36838  4.36838  0.00000 -0.73676
       3     C     2.99627  2.99627  0.00000  0.00746
       4     C     3.17058  3.17058  0.00000 -0.34116
       5     H     0.41641  0.41641  0.00000  0.16717
       6     H     0.42823  0.42823  0.00000  0.14355
       7     C     3.15248  3.15248  0.00000 -0.30496
       8     H     0.42577  0.42577  0.00000  0.14846
       9     H     0.42295  0.42295  0.00000  0.15410
      10     C     3.15478  3.15478  0.00000 -0.30956
      11     H     0.41321  0.41321  0.00000  0.17358
      12     H     0.42196  0.42196  0.00000  0.15607
      13     C     3.15458  3.15458  0.00000 -0.30915
      14     H     0.42307  0.42307  0.00000  0.15386
      15     H     0.42151  0.42151  0.00000  0.15698
      16     C     3.15200  3.15200  0.00000 -0.30400
      17     H     0.42386  0.42386  0.00000  0.15227
      18     H     0.42301  0.42301  0.00000  0.15397
      19     C     3.24108  3.24108  0.00000 -0.48217
      20     H     0.42158  0.42158  0.00000  0.15685
      21     H     0.42300  0.42300  0.00000  0.15400
      22     H     0.42294  0.42294  0.00000  0.15411
      23     H     0.41934  0.41934  0.00000  0.16132
      24     H     0.41961  0.41961  0.00000  0.16078

   Total alpha = 33.00000, Total beta = 33.00000, Total charge =  0.00000
