  ==> Input File <==

--------------------------------------------------------------------------
set {
	reference rhf
	basis cc-pvtz
}

set_num_threads( 4 )
memory 2 gb

molecule MOL {
0 1

H	 -3.642953	 0.223825	 0.000000
C	 -2.571844	 0.155001	 0.000000
C	 -1.957580	 -1.086132	 0.000000
C	 -1.807160	 1.303787	 0.000000
H	 -2.551493	 -1.979629	 0.000000
C	 -0.582719	 -1.174294	 0.000000
H	 -2.279934	 2.266806	 0.000000
C	 -0.427220	 1.213406	 0.000000
H	 -0.094904	 -2.127556	 0.000000
C	 0.196908	 -0.024061	 0.000000
H	 0.151409	 2.115254	 0.000000
C	 1.690041	 -0.173233	 0.000000
C	 2.521426	 0.760761	 0.849183
O	 2.213053	 -1.014535	 -0.658811
H	 2.363717	 1.791088	 0.553319
H	 3.561319	 0.505194	 0.722542
H	 2.251820	 0.671055	 1.894767

	symmetry c1
}
set optking {
	frozen_dihedral = ("
		13 12 10 8
	")
}

ee = optimize('scf')
oeprop('DIPOLE', 'QUADRUPOLE', 'MULLIKEN_CHARGES')
f=open( 'psi4out.xyz', 'w' )
f.write( "17  " )
f.write( str(ee) + "\n" )
f.write( MOL.save_string_xyz() )
f.close()
--------------------------------------------------------------------------

    Molecular point group: c1
  Charge       = 0
  Multiplicity = 1
  Basis Set: CC-PVTZ
  Basis Set:
  @DF-RHF Final Energy:  -382.60234632847482
    Total Energy =                       -382.6023463284748232
    Molecular point group: c1
  Basis Set: CC-PVTZ
  Basis Set:
  Basis Set: CC-PVTZ
  Basis Set:
  @DF-RHF Final Energy:  -382.60104714435016
    Total Energy =                       -382.6010471443498773
  Basis Set: CC-PVTZ
  Basis Set:
  Basis Set: CC-PVTZ
  Basis Set:
  @DF-RHF Final Energy:  -382.60288912821648
    Total Energy =                       -382.6028891282161339
  Basis Set: CC-PVTZ
  Basis Set:
  Basis Set: CC-PVTZ
  Basis Set:
  @DF-RHF Final Energy:  -382.60296163588214
    Total Energy =                       -382.6029616358821386
  Basis Set: CC-PVTZ
  Basis Set:
  Basis Set: CC-PVTZ
  Basis Set:
  @DF-RHF Final Energy:  -382.60296331428867
    Total Energy =                       -382.6029633142891271
  Basis Set: CC-PVTZ
  Basis Set:
  Charge       = 0
  Multiplicity = 1
  Basis Set: CC-PVTZ
  Basis Set:

    Orbital Energies (a.u.)
    -----------------------

    Doubly Occupied:

       1A    -20.542771     2A    -11.328486     3A    -11.245859
       4A    -11.243734     5A    -11.242322     6A    -11.239633
       7A    -11.239045     8A    -11.237156     9A    -11.229739
      10A     -1.403654    11A     -1.171159    12A     -1.053396
      13A     -1.030445    14A     -0.999829    15A     -0.863971
      16A     -0.839942    17A     -0.764226    18A     -0.710666
      19A     -0.661397    20A     -0.651394    21A     -0.627649
      22A     -0.618737    23A     -0.603261    24A     -0.593921
      25A     -0.559258    26A     -0.530900    27A     -0.518324
      28A     -0.505383    29A     -0.496722    30A     -0.414624
      31A     -0.349967    32A     -0.346846

  @DF-RHF Final Energy:  -382.60296381926645

   => Energetics <=

    Nuclear Repulsion Energy =            404.2328928869442848
    One-Electron Energy =               -1319.9428816652298337
    Two-Electron Energy =                 533.1070249590188723
    DFT Exchange-Correlation Energy =       0.0000000000000000
    Empirical Dispersion Energy =           0.0000000000000000
    PCM Polarization Energy =               0.0000000000000000
    EFP Energy =                            0.0000000000000000
    Total Energy =                       -382.6029638192667335
    Molecular point group: c1
  Basis Set: CC-PVTZ
  Basis Set:

  -Total Gradient:
     Atom            X                  Y                   Z
    ------   -----------------  -----------------  -----------------
       1       -0.000001827888    -0.000001387131    -0.000008094917
       2        0.000013491378     0.000022749119     0.000009290962
       3        0.000026369754    -0.000015494002    -0.000004214219
       4       -0.000028029857     0.000002423287     0.000016397787
       5       -0.000000397487     0.000002771236    -0.000002934986
       6       -0.000033756559    -0.000014422632    -0.000011033309
       7        0.000000247238    -0.000002920800     0.000003449044
       8       -0.000074686546    -0.000035388842    -0.003372721548
       9        0.000003124747     0.000012612186     0.000007123956
      10        0.000117436246    -0.000809029148     0.006077216505
      11       -0.000017147089    -0.000012269952    -0.000007350823
      12        0.000143573182     0.002685991282    -0.004970827447
      13       -0.000120929207    -0.001815748158     0.002166500542
      14       -0.000016911216     0.000039292120     0.000018558552
      15       -0.000006980266    -0.000023592812     0.000022898285
      16       -0.000014176130    -0.000008412274     0.000014208079
      17        0.000010599698    -0.000027173479     0.000041533535

  **** Optimization is complete! (in 6 steps) ****
    Final optimized geometry and variables:
    Molecular point group: c1

    Geometry (in Angstrom), charge = 0, multiplicity = 1:

    H           -3.638798628635     0.238229904381    -0.049337901818
    C           -2.567927796375     0.167998921329    -0.036553352741
    C           -1.955180619634    -1.073061523403    -0.044552391152
    C           -1.800945644096     1.315655547974    -0.018031979056
    H           -2.549791867926    -1.965991917690    -0.063926600130
    C           -0.579271146687    -1.163229166035    -0.040906145701
    H           -2.272250927321     2.279504361988    -0.025215352791
    C           -0.421455563096     1.224154461435     0.009203048269
    H           -0.095324289119    -2.118814915630    -0.074144587101
    C            0.198253957713    -0.014570920889     0.004557677066
    H            0.161895671938     2.123880192946     0.025502394740
    C            1.692243664731    -0.159945714297    -0.035255434452
    C            2.527084682698     0.793462583423     0.787495015233
    O            2.194431171269    -1.047379861749    -0.645602235831
    H            2.404188050816     1.815881705819     0.451432903362
    H            3.565737584694     0.513797750888     0.704897692560
    H            2.212643327285     0.752221097572     1.823811371443

  Mulliken Charges: (a.u.)
   Center  Symbol    Alpha    Beta     Spin     Total
       1     H     0.42073  0.42073  0.00000  0.15853
       2     C     3.07747  3.07747  0.00000 -0.15494
       3     C     3.06921  3.06921  0.00000 -0.13843
       4     C     3.07062  3.07062  0.00000 -0.14124
       5     H     0.42074  0.42074  0.00000  0.15852
       6     C     3.08298  3.08298  0.00000 -0.16597
       7     H     0.42180  0.42180  0.00000  0.15641
       8     C     3.09018  3.09018  0.00000 -0.18036
       9     H     0.41221  0.41221  0.00000  0.17558
      10     C     2.98839  2.98839  0.00000  0.02322
      11     H     0.42356  0.42356  0.00000  0.15287
      12     C     2.86017  2.86017  0.00000  0.27966
      13     C     3.15693  3.15693  0.00000 -0.31386
      14     O     4.17447  4.17447  0.00000 -0.34894
      15     H     0.45130  0.45130  0.00000  0.09741
      16     H     0.43412  0.43412  0.00000  0.13177
      17     H     0.44512  0.44512  0.00000  0.10976

   Total alpha = 32.00000, Total beta = 32.00000, Total charge = -0.00000
