  ==> Input File <==

--------------------------------------------------------------------------
set {
	reference rhf
	basis 6-31G*
}

set_num_threads( 4 )
memory 2 gb

molecule MOL {
0 1

H	 2.408439	 0.000867	 0.438986
O	 1.531977	 0.145202	 0.765329
C	 0.702312	 0.627605	 -0.264544
C	 -0.714990	 0.596302	 0.266387
H	 0.773961	 -0.005910	 -1.144533
H	 0.977422	 1.642410	 -0.543842
O	 -1.405996	 -0.526611	 -0.195820
H	 -1.257453	 1.468809	 -0.075599
H	 -0.688972	 0.618407	 1.353696
H	 -0.890587	 -1.292708	 0.022039

	symmetry c1
}
set optking {
	frozen_dihedral = ("
		5 3 4 7
	")
}

ee = optimize('scf')
oeprop('DIPOLE', 'QUADRUPOLE', 'MULLIKEN_CHARGES')
f=open( 'psi4out.xyz', 'w' )
f.write( "10  " )
f.write( str(ee) + "\n" )
f.write( MOL.save_string_xyz() )
f.close()
--------------------------------------------------------------------------

    Molecular point group: c1
  Charge       = 0
  Multiplicity = 1
  Basis Set: 6-31G*
  Basis Set:
  @DF-RHF Final Energy:  -228.91765540212043
    Total Energy =                       -228.9176554021205447
    Molecular point group: c1
  Basis Set: 6-31G*
  Basis Set:
  Basis Set: 6-31G*
  Basis Set:
  @DF-RHF Final Energy:  -228.91879940749325
    Total Energy =                       -228.9187994074932249
  Basis Set: 6-31G*
  Basis Set:
  Basis Set: 6-31G*
  Basis Set:
  @DF-RHF Final Energy:  -228.91908872009799
    Total Energy =                       -228.9190887200979319
  Basis Set: 6-31G*
  Basis Set:
  Basis Set: 6-31G*
  Basis Set:
  @DF-RHF Final Energy:  -228.91909966666162
    Total Energy =                       -228.9190996666617082
  Basis Set: 6-31G*
  Basis Set:
  Charge       = 0
  Multiplicity = 1
  Basis Set: 6-31G*
  Basis Set:

    Orbital Energies (a.u.)
    -----------------------

    Doubly Occupied:

       1A    -20.561343     2A    -20.554750     3A    -11.272763
       4A    -11.268577     5A     -1.373182     6A     -1.355102
       7A     -0.997915     8A     -0.844356     9A     -0.725296
      10A     -0.672239    11A     -0.648909    12A     -0.605553
      13A     -0.572438    14A     -0.523861    15A     -0.490478
      16A     -0.451535    17A     -0.433072

  @DF-RHF Final Energy:  -228.91910060097845

   => Energetics <=

    Nuclear Repulsion Energy =            132.2170046691232699
    One-Electron Energy =                -575.5694712790275389
    Two-Electron Energy =                 214.4333660089258728
    DFT Exchange-Correlation Energy =       0.0000000000000000
    Empirical Dispersion Energy =           0.0000000000000000
    PCM Polarization Energy =               0.0000000000000000
    EFP Energy =                            0.0000000000000000
    Total Energy =                       -228.9191006009783678
    Molecular point group: c1
  Basis Set: 6-31G*
  Basis Set:

  -Total Gradient:
     Atom            X                  Y                   Z
    ------   -----------------  -----------------  -----------------
       1       -0.000008752178     0.000006891064    -0.000002177214
       2       -0.000049579363     0.000013831918    -0.000037749288
       3       -0.002316699603     0.007116405407    -0.005693588358
       4        0.002405794659    -0.004856123776     0.006119104780
       5        0.001475220507    -0.004999404380     0.003542285131
       6        0.000015267281     0.000013691981    -0.000009361124
       7       -0.001552255269     0.002679830379    -0.003940104210
       8        0.000027026096     0.000010251452     0.000011345473
       9        0.000008093001     0.000007115597     0.000008530652
      10       -0.000004115131     0.000007510359     0.000001714157

  **** Optimization is complete! (in 5 steps) ****
    Final optimized geometry and variables:
    Molecular point group: c1

    Geometry (in Angstrom), charge = 0, multiplicity = 1:

    H            2.392640051679    -0.098119439152     0.294333271921
    O            1.500973893877    -0.060034052093     0.610349571486
    C            0.662788558057     0.479439578435    -0.388688250055
    C           -0.772479334722     0.409514838787     0.120757957477
    H            0.739354374120    -0.127966079331    -1.285447674017
    H            0.948501038159     1.503312265482    -0.614221423135
    O           -1.473969000690    -0.700887307342    -0.370944722808
    H           -1.327347579541     1.272102214550    -0.225150801911
    H           -0.759842274989     0.431339994316     1.205650947174
    H           -1.115823575342    -1.488922748090     0.015507092534

  Mulliken Charges: (a.u.)
   Center  Symbol    Alpha    Beta     Spin     Total
       1     H     0.27984  0.27984  0.00000  0.44031
       2     O     4.37538  4.37538  0.00000 -0.75076
       3     C     3.01631  3.01631  0.00000 -0.03261
       4     C     3.00357  3.00357  0.00000 -0.00713
       5     H     0.41897  0.41897  0.00000  0.16207
       6     H     0.42677  0.42677  0.00000  0.14646
       7     O     4.36996  4.36996  0.00000 -0.73992
       8     H     0.41553  0.41553  0.00000  0.16895
       9     H     0.41425  0.41425  0.00000  0.17151
      10     H     0.27943  0.27943  0.00000  0.44113

   Total alpha = 17.00000, Total beta = 17.00000, Total charge = -0.00000
