  ==> Input File <==

--------------------------------------------------------------------------
set {
	reference rhf
	basis 6-31G*
}

set_num_threads( 1 )
memory 2 gb

molecule MOL {
0 1

H	 -2.909810	 0.112983	 2.054523
O	 -2.059386	 0.390826	 1.745722
C	 -2.026376	 0.340750	 0.341611
C	 -0.673256	 0.843270	 -0.132153
H	 -2.180959	 -0.679438	 -0.005172
H	 -2.820173	 0.955183	 -0.081486
C	 0.486613	 -0.083066	 0.235839
H	 -0.715586	 0.970948	 -1.210718
H	 -0.508072	 1.829858	 0.297090
C	 1.840406	 0.433480	 -0.254303
H	 0.300215	 -1.068318	 -0.178947
H	 0.519509	 -0.203625	 1.318070
C	 3.000220	 -0.489290	 0.118523
H	 1.809207	 0.553576	 -1.335192
H	 2.021860	 1.424500	 0.157276
H	 2.864959	 -1.479103	 -0.307933
H	 3.946603	 -0.099227	 -0.243630
H	 3.080049	 -0.602997	 1.196117

	symmetry c1
}
set optking {
	frozen_dihedral = ("
		14 10 7 11,
		10 7 4 8,
		1 2 3 4
	")
}

ee = energy('scf')
oeprop('DIPOLE', 'QUADRUPOLE', 'MULLIKEN_CHARGES')
f=open( 'psi4out.xyz', 'w' )
f.write( "18  " )
f.write( str(ee) + "\n" )
f.write( MOL.save_string_xyz() )
f.close()
--------------------------------------------------------------------------

    Molecular point group: c1

    Geometry (in Angstrom), charge = 0, multiplicity = 1:

       Center              X                  Y                   Z               Mass
    ------------   -----------------  -----------------  -----------------  -----------------
           H         -2.955692090537    -0.119971788477     1.676383438520     1.007825032070
           O         -2.105268090537     0.157871211523     1.367582438520    15.994914619560
           C         -2.072258090537     0.107795211523    -0.036528561480    12.000000000000
           C         -0.719138090537     0.610315211523    -0.510292561480    12.000000000000
           H         -2.226841090537    -0.912392788477    -0.383311561480     1.007825032070
           H         -2.866055090537     0.722228211523    -0.459625561480     1.007825032070
           C          0.440730909463    -0.316020788477    -0.142300561480    12.000000000000
           H         -0.761468090537     0.737993211523    -1.588857561480     1.007825032070
           H         -0.553954090537     1.596903211523    -0.081049561480     1.007825032070
           C          1.794523909463     0.200525211523    -0.632442561480    12.000000000000
           H          0.254332909463    -1.301272788477    -0.557086561480     1.007825032070
           H          0.473626909463    -0.436579788477     0.939930438520     1.007825032070
           C          2.954337909463    -0.722244788477    -0.259616561480    12.000000000000
           H          1.763324909463     0.320621211523    -1.713331561480     1.007825032070
           H          1.975977909463     1.191545211523    -0.220863561480     1.007825032070
           H          2.819076909463    -1.712057788477    -0.686072561480     1.007825032070
           H          3.900720909463    -0.332181788477    -0.621769561480     1.007825032070
           H          3.034166909463    -0.835951788477     0.817977438520     1.007825032070

  Charge       = 0
  Multiplicity = 1
  Basis Set: 6-31G*
  Basis Set:

    Orbital Energies (a.u.)
    -----------------------

    Doubly Occupied:

       1A    -20.552779     2A    -11.267903     3A    -11.211847
       4A    -11.211027     5A    -11.206970     6A    -11.204738
       7A     -1.359486     8A     -1.075120     9A     -1.008826
      10A     -0.912973    11A     -0.817694    12A     -0.784465
      13A     -0.704897    14A     -0.641513    15A     -0.625637
      16A     -0.578835    17A     -0.571178    18A     -0.557983
      19A     -0.522287    20A     -0.501973    21A     -0.488109
      22A     -0.467432    23A     -0.458750    24A     -0.446995
      25A     -0.429102

  @DF-RHF Final Energy:  -271.17976025268001

   => Energetics <=

    Nuclear Repulsion Energy =            248.7942911499820582
    One-Electron Energy =                -860.7311432938540747
    Two-Electron Energy =                 340.7570918911917488
    DFT Exchange-Correlation Energy =       0.0000000000000000
    Empirical Dispersion Energy =           0.0000000000000000
    PCM Polarization Energy =               0.0000000000000000
    EFP Energy =                            0.0000000000000000
    Total Energy =                       -271.1797602526802393

  Mulliken Charges: (a.u.)
   Center  Symbol    Alpha    Beta     Spin     Total
       1     H     0.28066  0.28066  0.00000  0.43867
       2     O     4.36977  4.36977  0.00000 -0.73954
       3     C     2.99734  2.99734  0.00000  0.00531
       4     C     3.15994  3.15994  0.00000 -0.31988
       5     H     0.43246  0.43246  0.00000  0.13507
       6     H     0.42965  0.42965  0.00000  0.14070
       7     C     3.15332  3.15332  0.00000 -0.30665
       8     H     0.42404  0.42404  0.00000  0.15193
       9     H     0.41454  0.41454  0.00000  0.17092
      10     C     3.15182  3.15182  0.00000 -0.30363
      11     H     0.42660  0.42660  0.00000  0.14680
      12     H     0.40957  0.40957  0.00000  0.18085
      13     C     3.23895  3.23895  0.00000 -0.47791
      14     H     0.42530  0.42530  0.00000  0.14940
      15     H     0.42223  0.42223  0.00000  0.15554
      16     H     0.42262  0.42262  0.00000  0.15476
      17     H     0.42029  0.42029  0.00000  0.15941
      18     H     0.42088  0.42088  0.00000  0.15825

   Total alpha = 25.00000, Total beta = 25.00000, Total charge = -0.00000
