                              Psi4 1.0.54 Driver

  ==> Input File <==

--------------------------------------------------------------------------
set {
	reference rhf
	basis cc-pvtz
}

set_num_threads( 4 )
memory 2 gb

molecule MOL {
0 1

H	 -0.000105	 1.988529	 0.748933
O	 -0.000098	 1.879786	 -0.188206
C	 -0.000014	 0.545691	 -0.532416
C	 0.851632	 -0.254386	 0.454678
C	 0.404965	 0.378384	 -1.997945
H	 -1.012238	 0.179659	 -0.442508
F	 0.362533	 -0.113516	 1.662071
F	 0.868870	 -1.533054	 0.174636
F	 2.094341	 0.177647	 0.474562
F	 -0.442497	 1.026903	 -2.758267
F	 0.404669	 -0.875422	 -2.374352
F	 1.603042	 0.873652	 -2.223107

	symmetry c1
}
set optking {
	frozen_dihedral = ("
		6 3 2 1
	")
}

ee,wfn = optimize('scf', return_wfn=True)
oeprop( wfn, 'DIPOLE', 'QUADRUPOLE', 'MULLIKEN_CHARGES')
f=open( 'psi4out.xyz', 'w' )
f.write( "12  " )
f.write( str(ee) + "\n" )
f.write( MOL.save_string_xyz() )
f.close()
--------------------------------------------------------------------------

    Molecular point group: c1
  Charge       = 0
  Multiplicity = 1
  Basis Set: CC-PVTZ
  Basis Set:
  @DF-RHF Final Energy:  -786.58488407433606
    Total Energy =                       -786.5848840743365145
    Molecular point group: c1
  Basis Set: CC-PVTZ
  Basis Set:
  Basis Set: CC-PVTZ
  Basis Set:
  @DF-RHF Final Energy:  -786.56558254889785
    Total Energy =                       -786.5655825488981918
  Basis Set: CC-PVTZ
  Basis Set:
  Basis Set: CC-PVTZ
  Basis Set:
  @DF-RHF Final Energy:  -786.58630181339231
    Total Energy =                       -786.5863018133923106
  Basis Set: CC-PVTZ
  Basis Set:
  Basis Set: CC-PVTZ
  Basis Set:
  @DF-RHF Final Energy:  -786.58705927296501
    Total Energy =                       -786.5870592729654618
  Basis Set: CC-PVTZ
  Basis Set:
  @DF-RHF Final Energy:  -786.58719464520448
    Total Energy =                       -786.5871946452044767
  Basis Set: CC-PVTZ
  Basis Set:
  @DF-RHF Final Energy:  -786.58722509349695
    Total Energy =                       -786.5872250934974090
  Basis Set: CC-PVTZ
  Basis Set:
  Basis Set: CC-PVTZ
  Basis Set:
  @DF-RHF Final Energy:  -786.58723012234248
    Total Energy =                       -786.5872301223425893
  Basis Set: CC-PVTZ
  Basis Set:
  Basis Set: CC-PVTZ
  Basis Set:
  @DF-RHF Final Energy:  -786.58723349985439
    Total Energy =                       -786.5872334998541646
  Basis Set: CC-PVTZ
  Basis Set:
  Charge       = 0
  Multiplicity = 1
  Basis Set: CC-PVTZ
  Basis Set:

    Orbital Energies (a.u.)
    -----------------------

    Doubly Occupied:

       1A    -26.364116     2A    -26.360563     3A    -26.358749
       4A    -26.351744     5A    -26.348116     6A    -26.347954
       7A    -20.608022     8A    -11.524050     9A    -11.515638
      10A    -11.351600    11A     -1.774289    12A     -1.762257
      13A     -1.669386    14A     -1.667838    15A     -1.657636
      16A     -1.655807    17A     -1.438447    18A     -1.104747
      19A     -1.002145    20A     -0.942319    21A     -0.875884
      22A     -0.866579    23A     -0.861924    24A     -0.849451
      25A     -0.838918    26A     -0.794291    27A     -0.757387
      28A     -0.739875    29A     -0.726864    30A     -0.724745
      31A     -0.718959    32A     -0.693576    33A     -0.690042
      34A     -0.675218    35A     -0.674340    36A     -0.669968
      37A     -0.658992    38A     -0.648708    39A     -0.621858
      40A     -0.549574    41A     -0.508995

  @DF-RHF Final Energy:  -786.58723378457842

   => Energetics <=

    Nuclear Repulsion Energy =            671.2005488494238534
    One-Electron Energy =               -2429.6724182093857962
    Two-Electron Energy =                 971.8846355753838679
    DFT Exchange-Correlation Energy =       0.0000000000000000
    Empirical Dispersion Energy =           0.0000000000000000
    PCM Polarization Energy =               0.0000000000000000
    EFP Energy =                            0.0000000000000000
    Total Energy =                       -786.5872337845781885
    Molecular point group: c1
  Basis Set: CC-PVTZ
  Basis Set:

  -Total Gradient:
     Atom            X                  Y                   Z
    ------   -----------------  -----------------  -----------------
       1        0.002024760888     0.000139699101    -0.000412342554
       2       -0.002712796267    -0.000138132156     0.000033241508
       3        0.001352151335     0.000109894563     0.002080539919
       4        0.000001910180    -0.000001062455    -0.000081218622
       5        0.000010721010    -0.000011570603     0.000085932700
       6       -0.000654547269    -0.000094747359    -0.001683810839
       7        0.000007476604     0.000034567749     0.000009033871
       8       -0.000035171224    -0.000096208246     0.000004450905
       9        0.000011086794     0.000049674229     0.000011175438
      10        0.000027142840     0.000023484794    -0.000047434548
      11        0.000018268535    -0.000007919122     0.000016975454
      12       -0.000051003415    -0.000007680491    -0.000016543231

  **** Optimization is complete! (in 9 steps) ****
    Final optimized geometry and variables:
    Molecular point group: c1

    Geometry (in Angstrom), charge = 0, multiplicity = 1:

    H           -0.562554190133     2.081679352497     1.099113217226
    O           -0.714325954310     1.714583609768     0.245706193710
    C           -0.629108137085     0.338374297636     0.268260209499
    C            0.509791897854    -0.138185783302     1.169642747333
    C           -0.497683187169    -0.117455355087    -1.183877391733
    H           -1.537155426948    -0.122754961902     0.642400021610
    F            0.367448868632     0.436515041230     2.351934843356
    F            0.471160678653    -1.432749438056     1.351422612496
    F            1.693894690733     0.182742704932     0.719495608581
    F           -1.572479137433     0.235488388018    -1.846059340641
    F           -0.395738198298    -1.425423430218    -1.251596219201
    F            0.538211840988     0.403730747240    -1.784893875063

  Mulliken Charges: (a.u.)
   Center  Symbol    Alpha    Beta     Spin     Total
       1     H     0.38341  0.38341  0.00000  0.23318
       2     O     4.18611  4.18611  0.00000 -0.37222
       3     C     2.99608  2.99608  0.00000  0.00784
       4     C     2.68438  2.68438  0.00000  0.63124
       5     C     2.67774  2.67774  0.00000  0.64452
       6     H     0.44502  0.44502  0.00000  0.10997
       7     F     4.61457  4.61457  0.00000 -0.22913
       8     F     4.60137  4.60137  0.00000 -0.20274
       9     F     4.59978  4.59978  0.00000 -0.19955
      10     F     4.60369  4.60369  0.00000 -0.20738
      11     F     4.60638  4.60638  0.00000 -0.21277
      12     F     4.60148  4.60148  0.00000 -0.20296

   Total alpha = 41.00000, Total beta = 41.00000, Total charge =  0.00000

*** Psi4 exiting successfully. Buy a developer a beer!
