  ==> Input File <==

--------------------------------------------------------------------------
set {
	reference rhf
	basis 6-31G*
}

set_num_threads( 1 )
memory 2 gb

molecule MOL {
0 1

H	 -2.646374	 -0.642757	 1.268656
C	 -2.083525	 -0.384536	 0.393091
O	 -0.807605	 -0.127164	 0.768327
F	 -2.118945	 -1.383102	 -0.486752
F	 -2.621877	 0.670592	 -0.209486
C	 0.209381	 -0.568720	 -0.058386
C	 1.243988	 -1.245120	 0.831687
Cl	 0.935673	 0.783037	 -0.942958
H	 -0.134208	 -1.286046	 -0.783068
F	 2.242325	 -1.705255	 0.107988
F	 0.676179	 -2.266259	 1.441856
F	 1.721817	 -0.431366	 1.741334

	symmetry c1
}
set optking {
	frozen_dihedral = ("
		10 7 6 9,
		9 6 3 2
	")
}

ee = energy('scf')
oeprop('DIPOLE', 'QUADRUPOLE', 'MULLIKEN_CHARGES')
f=open( 'psi4out.xyz', 'w' )
f.write( "12  " )
f.write( str(ee) + "\n" )
f.write( MOL.save_string_xyz() )
f.close()
--------------------------------------------------------------------------

    Molecular point group: c1

    Geometry (in Angstrom), charge = 0, multiplicity = 1:

       Center              X                  Y                   Z               Mass
    ------------   -----------------  -----------------  -----------------  -----------------
           H         -2.687294850949    -0.098320726712     1.034375205614     1.007825032070
           C         -2.124445850949     0.159900273288     0.158810205614    12.000000000000
           O         -0.848525850949     0.417272273288     0.534046205614    15.994914619560
           F         -2.159865850949    -0.838665726712    -0.721032794386    18.998403224000
           F         -2.662797850949     1.215028273288    -0.443766794386    18.998403224000
           C          0.168460149051    -0.024283726712    -0.292666794386    12.000000000000
           C          1.203067149051    -0.700683726712     0.597406205614    12.000000000000
          CL          0.894752149051     1.327473273288    -1.177238794386    34.968852682000
           H         -0.175128850949    -0.741609726712    -1.017348794386     1.007825032070
           F          2.201404149051    -1.160818726712    -0.126292794386    18.998403224000
           F          0.635258149051    -1.721822726712     1.207575205614    18.998403224000
           F          1.680896149051     0.113070273288     1.507053205614    18.998403224000

  Charge       = 0
  Multiplicity = 1
  Basis Set: 6-31G*
  Basis Set:

    Orbital Energies (a.u.)
    -----------------------

    Doubly Occupied:

       1A   -104.842186     2A    -26.361305     3A    -26.360500
       4A    -26.357538     5A    -26.357315     6A    -26.339920
       7A    -20.649836     8A    -11.527500     9A    -11.491167
      10A    -11.397640    11A    -10.576915    12A     -8.046268
      13A     -8.042752    14A     -8.042646    15A     -1.762036
      16A     -1.721322    17A     -1.658432    18A     -1.657467
      19A     -1.640390    20A     -1.486638    21A     -1.178922
      22A     -1.051509    23A     -0.987656    24A     -0.919467
      25A     -0.862556    26A     -0.853480    27A     -0.847511
      28A     -0.824672    29A     -0.817639    30A     -0.793770
      31A     -0.728436    32A     -0.727209    33A     -0.706882
      34A     -0.697590    35A     -0.680179    36A     -0.675803
      37A     -0.660390    38A     -0.659087    39A     -0.641421
      40A     -0.634674    41A     -0.600600    42A     -0.584394
      43A     -0.520094    44A     -0.474644    45A     -0.466835

  @DF-RHF Final Energy: -1146.30851317352381

   => Energetics <=

    Nuclear Repulsion Energy =            736.0111098437776036
    One-Electron Energy =               -3054.8085939815537131
    Two-Electron Energy =                1172.4889709642534399
    DFT Exchange-Correlation Energy =       0.0000000000000000
    Empirical Dispersion Energy =           0.0000000000000000
    PCM Polarization Energy =               0.0000000000000000
    EFP Energy =                            0.0000000000000000
    Total Energy =                      -1146.3085131735228970

  Mulliken Charges: (a.u.)
   Center  Symbol    Alpha    Beta     Spin     Total
       1     H     0.40562  0.40562  0.00000  0.18876
       2     C     2.56115  2.56115  0.00000  0.87770
       3     O     4.30251  4.30251  0.00000 -0.60501
       4     F     4.68675  4.68675  0.00000 -0.37350
       5     F     4.67868  4.67868  0.00000 -0.35736
       6     C     3.05223  3.05223  0.00000 -0.10445
       7     C     2.43304  2.43304  0.00000  1.13392
       8    CL     8.50098  8.50098  0.00000 -0.00196
       9     H     0.35839  0.35839  0.00000  0.28322
      10     F     4.67401  4.67401  0.00000 -0.34803
      11     F     4.67802  4.67802  0.00000 -0.35603
      12     F     4.66862  4.66862  0.00000 -0.33724

   Total alpha = 45.00000, Total beta = 45.00000, Total charge = -0.00000
