  ==> Input File <==

--------------------------------------------------------------------------
set {
	reference rhf
	basis cc-pvtz
}

set_num_threads( 4 )
memory 2 gb

molecule MOL {
0 1

H	 -2.698799	 -0.000846	 0.036018
C	 -1.694291	 -0.000483	 0.434279
O	 -0.828718	 -0.000608	 -0.655022
H	 -1.576855	 0.881100	 1.056504
H	 -1.576401	 -0.881658	 1.057001
C	 0.557892	 0.000078	 -0.420099
C	 1.110569	 1.400563	 -0.180384
C	 0.966890	 -0.978903	 0.674691
H	 0.967493	 -0.360735	 -1.355332
H	 0.770403	 2.077622	 -0.954294
H	 2.193959	 1.376612	 -0.201324
H	 0.811620	 1.800106	 0.781686
H	 0.527158	 -1.952010	 0.493739
H	 2.045076	 -1.089285	 0.684926
H	 0.664034	 -0.642548	 1.659417

	symmetry c1
}
set optking {
	frozen_dihedral = ("
		9 6 3 2
	")
}

ee = optimize('scf')
oeprop('DIPOLE', 'QUADRUPOLE', 'MULLIKEN_CHARGES')
f=open( 'psi4out.xyz', 'w' )
f.write( "15  " )
f.write( str(ee) + "\n" )
f.write( MOL.save_string_xyz() )
f.close()
--------------------------------------------------------------------------

    Molecular point group: c1
  Charge       = 0
  Multiplicity = 1
  Basis Set: CC-PVTZ
  Basis Set:
  @DF-RHF Final Energy:  -232.22496773490857
    Total Energy =                       -232.2249677349084322
    Molecular point group: c1
  Basis Set: CC-PVTZ
  Basis Set:
  Basis Set: CC-PVTZ
  Basis Set:
  @DF-RHF Final Energy:  -232.22535349206689
    Total Energy =                       -232.2253534920670290
  Basis Set: CC-PVTZ
  Basis Set:
  Basis Set: CC-PVTZ
  Basis Set:
  @DF-RHF Final Energy:  -232.22547146004928
    Total Energy =                       -232.2254714600493912
  Basis Set: CC-PVTZ
  Basis Set:
  Basis Set: CC-PVTZ
  Basis Set:
  @DF-RHF Final Energy:  -232.22548562201121
    Total Energy =                       -232.2254856220109787
  Basis Set: CC-PVTZ
  Basis Set:
  Basis Set: CC-PVTZ
  Basis Set:
  @DF-RHF Final Energy:  -232.22548936194352
    Total Energy =                       -232.2254893619434029
  Basis Set: CC-PVTZ
  Basis Set:
  Charge       = 0
  Multiplicity = 1
  Basis Set: CC-PVTZ
  Basis Set:

    Orbital Energies (a.u.)
    -----------------------

    Doubly Occupied:

       1A    -20.541228     2A    -11.272697     3A    -11.259074
       4A    -11.210950     5A    -11.206623     6A     -1.372885
       7A     -1.051827     8A     -0.943444     9A     -0.927931
      10A     -0.781430    11A     -0.676251    12A     -0.643338
      13A     -0.634522    14A     -0.575726    15A     -0.560174
      16A     -0.552656    17A     -0.534611    18A     -0.502478
      19A     -0.495736    20A     -0.445493    21A     -0.407535

  @DF-RHF Final Energy:  -232.22548967002319

   => Energetics <=

    Nuclear Repulsion Energy =            199.0207776588900401
    One-Electron Energy =                -709.2993178662496803
    Two-Electron Energy =                 278.0530505373363894
    DFT Exchange-Correlation Energy =       0.0000000000000000
    Empirical Dispersion Energy =           0.0000000000000000
    PCM Polarization Energy =               0.0000000000000000
    EFP Energy =                            0.0000000000000000
    Total Energy =                       -232.2254896700232507
    Molecular point group: c1
  Basis Set: CC-PVTZ
  Basis Set:

  -Total Gradient:
     Atom            X                  Y                   Z
    ------   -----------------  -----------------  -----------------
       1        0.000001852787     0.000003211658     0.000004291899
       2       -0.000017468843    -0.002093710066     0.000031222947
       3        0.000029859491     0.002707830729     0.000137215775
       4       -0.000004953172    -0.000004017620    -0.000010690295
       5       -0.000007791986    -0.000008414135     0.000013055276
       6        0.000176249803     0.001626320435    -0.001063009577
       7       -0.000014033976     0.000004635968     0.000037577804
       8       -0.000001873050     0.000023856609     0.000002973212
       9       -0.000127983713    -0.002273710340     0.000844356120
      10       -0.000003243969    -0.000001256610    -0.000004200850
      11       -0.000030269945    -0.000016038186    -0.000005947387
      12        0.000008252918     0.000024994226     0.000018159971
      13       -0.000015868104     0.000007929927     0.000002572502
      14        0.000000736641    -0.000002124864    -0.000001316798
      15        0.000006535119     0.000000492271    -0.000006260597

  **** Optimization is complete! (in 6 steps) ****
    Final optimized geometry and variables:
    Molecular point group: c1

    Geometry (in Angstrom), charge = 0, multiplicity = 1:

    H           -2.693052523276     0.071933163636     0.058688892806
    C           -1.696419661006    -0.068850200620     0.452128783160
    O           -0.831160076341    -0.090267598515    -0.636885998127
    H           -1.484951790359     0.747793020483     1.137040101571
    H           -1.678277825535    -0.999397368803     1.009643789221
    C            0.557736520979    -0.097882117632    -0.406385755507
    C            1.079503499640     1.314091311823    -0.174522209544
    C            0.991172171347    -1.063076408300     0.691786787943
    H            0.970348817250    -0.473568717262    -1.334803383590
    H            0.770573363716     1.962994757132    -0.984048108156
    H            2.162716365431     1.315559375407    -0.127154635938
    H            0.707163218414     1.729264750015     0.755560736630
    H            0.582543800033    -2.051380618170     0.518727858080
    H            2.071774258299    -1.142325099773     0.693362740188
    H            0.685200484950    -0.731799272480     1.677189863367

  Mulliken Charges: (a.u.)
   Center  Symbol    Alpha    Beta     Spin     Total
       1     H     0.44174  0.44174  0.00000  0.11651
       2     C     3.03943  3.03943  0.00000 -0.07885
       3     O     4.18504  4.18504  0.00000 -0.37008
       4     H     0.47098  0.47098  0.00000  0.05803
       5     H     0.46769  0.46769  0.00000  0.06461
       6     C     2.93388  2.93388  0.00000  0.13223
       7     C     3.14779  3.14779  0.00000 -0.29559
       8     C     3.16618  3.16618  0.00000 -0.33236
       9     H     0.44755  0.44755  0.00000  0.10490
      10     H     0.44551  0.44551  0.00000  0.10898
      11     H     0.45386  0.45386  0.00000  0.09228
      12     H     0.45674  0.45674  0.00000  0.08651
      13     H     0.44403  0.44403  0.00000  0.11195
      14     H     0.44640  0.44640  0.00000  0.10720
      15     H     0.45316  0.45316  0.00000  0.09367

   Total alpha = 21.00000, Total beta = 21.00000, Total charge = -0.00000
