                              Psi4 1.0.54 Driver

  ==> Input File <==

--------------------------------------------------------------------------
set {
	reference rhf
	basis cc-pvtz
}

set_num_threads( 4 )
memory 2 gb

molecule MOL {
0 1

H	 2.614283	 2.028610	 0.296620
O	 3.358864	 1.662087	 -0.142800
C	 3.565468	 0.338079	 0.273842
C	 2.533667	 -0.637565	 -0.272227
H	 4.548038	 0.064914	 -0.086598
H	 3.593945	 0.282242	 1.360360
C	 1.741193	 -0.109439	 -1.465925
H	 3.040231	 -1.557717	 -0.547674
H	 1.847384	 -0.884191	 0.534365
C	 0.693048	 -1.102655	 -1.965676
H	 2.425520	 0.130290	 -2.272913
H	 1.247497	 0.820130	 -1.187619
C	 -0.181271	 -0.596321	 -3.114347
H	 1.188474	 -2.021458	 -2.269950
H	 0.046576	 -1.369527	 -1.134218
C	 0.552094	 -0.374828	 -4.436035
H	 -0.978815	 -1.315735	 -3.278343
H	 -0.667749	 0.328917	 -2.813633
C	 -0.379046	 0.033886	 -5.574605
H	 1.075106	 -1.287810	 -4.712425
H	 1.314966	 0.388582	 -4.316730
C	 0.350428	 0.259489	 -6.894781
H	 -1.138318	 -0.731569	 -5.709371
H	 -0.908637	 0.941243	 -5.296579
H	 0.864251	 -0.640278	 -7.216717
H	 -0.338995	 0.545282	 -7.680990
H	 1.091673	 1.046598	 -6.803304

	symmetry c1
}
set optking {
	frozen_dihedral = ("
		8 4 3 2
	")
}

ee,wfn = optimize('scf', return_wfn=True)
oeprop( wfn, 'DIPOLE', 'QUADRUPOLE', 'MULLIKEN_CHARGES')
f=open( 'psi4out.xyz', 'w' )
f.write( "27  " )
f.write( str(ee) + "\n" )
f.write( MOL.save_string_xyz() )
f.close()
--------------------------------------------------------------------------

    Molecular point group: c1
  Charge       = 0
  Multiplicity = 1
  Basis Set: CC-PVTZ
  Basis Set:
  @DF-RHF Final Energy:  -388.42037518371609
    Total Energy =                       -388.4203751837154641
    Molecular point group: c1
  Basis Set: CC-PVTZ
  Basis Set:
  Basis Set: CC-PVTZ
  Basis Set:
  @DF-RHF Final Energy:  -388.42120117824709
    Total Energy =                       -388.4212011782475429
  Basis Set: CC-PVTZ
  Basis Set:
  Basis Set: CC-PVTZ
  Basis Set:
  @DF-RHF Final Energy:  -388.42168995257100
    Total Energy =                       -388.4216899525708868
  Basis Set: CC-PVTZ
  Basis Set:
  Basis Set: CC-PVTZ
  Basis Set:
  @DF-RHF Final Energy:  -388.42170233269235
    Total Energy =                       -388.4217023326922344
  Basis Set: CC-PVTZ
  Basis Set:
  Basis Set: CC-PVTZ
  Basis Set:
  @DF-RHF Final Energy:  -388.42171144319803
    Total Energy =                       -388.4217114431978644
  Basis Set: CC-PVTZ
  Basis Set:
  Charge       = 0
  Multiplicity = 1
  Basis Set: CC-PVTZ
  Basis Set:

    Orbital Energies (a.u.)
    -----------------------

    Doubly Occupied:

       1A    -20.546574     2A    -11.265789     3A    -11.213616
       4A    -11.210409     5A    -11.210241     6A    -11.209255
       7A    -11.209022     8A    -11.207456     9A    -11.204087
      10A     -1.363924    11A     -1.091530    12A     -1.057715
      13A     -1.008094    14A     -0.945793    15A     -0.886060
      16A     -0.818909    17A     -0.798933    18A     -0.773748
      19A     -0.689093    20A     -0.646627    21A     -0.640943
      22A     -0.614645    23A     -0.603354    24A     -0.585600
      25A     -0.570887    26A     -0.557729    27A     -0.540473
      28A     -0.521986    29A     -0.500707    30A     -0.495074
      31A     -0.477411    32A     -0.468056    33A     -0.462830
      34A     -0.456482    35A     -0.452146    36A     -0.440368
      37A     -0.423986

  @DF-RHF Final Energy:  -388.42171234282125

   => Energetics <=

    Nuclear Repulsion Energy =            461.1303040451422248
    One-Electron Energy =               -1440.7649226155695033
    Two-Electron Energy =                 591.2129062276059130
    DFT Exchange-Correlation Energy =       0.0000000000000000
    Empirical Dispersion Energy =           0.0000000000000000
    PCM Polarization Energy =               0.0000000000000000
    EFP Energy =                            0.0000000000000000
    Total Energy =                       -388.4217123428213654
    Molecular point group: c1
  Basis Set: CC-PVTZ
  Basis Set:

  -Total Gradient:
     Atom            X                  Y                   Z
    ------   -----------------  -----------------  -----------------
       1        0.000031425244    -0.000012226510    -0.000017639825
       2        0.002499330200    -0.000771093779    -0.003688416957
       3       -0.003360876105     0.001521858625     0.004011630969
       4        0.000058233853    -0.002739709547     0.004901406646
       5       -0.000011124255    -0.000025420781     0.000009773840
       6       -0.000017911659     0.000006290117    -0.000013843095
       7        0.000000469766    -0.000003834119     0.000012285609
       8        0.000774009723     0.001990411843    -0.005207067343
       9        0.000017078666     0.000013905643     0.000012102923
      10       -0.000012124456     0.000015724068    -0.000009030298
      11       -0.000008253634     0.000001610483    -0.000029961247
      12        0.000001839782    -0.000012317320    -0.000001288431
      13       -0.000006086128    -0.000000453398     0.000005587728
      14       -0.000000980260     0.000013537487     0.000005831645
      15        0.000015164130     0.000013997525     0.000006783089
      16        0.000002449685    -0.000022156771    -0.000002865307
      17        0.000010109748    -0.000004156835     0.000004056183
      18       -0.000009543934    -0.000006369400     0.000002556716
      19        0.000005233223     0.000010452478    -0.000001707809
      20       -0.000002421064    -0.000001010544    -0.000005795044
      21        0.000012899004     0.000000830862     0.000005301053
      22       -0.000000869857     0.000007003215    -0.000000032743
      23        0.000007822971     0.000000423333     0.000002556116
      24       -0.000005989385    -0.000000071344     0.000000085319
      25       -0.000001643365     0.000001087938     0.000002139493
      26        0.000000634209     0.000001683934    -0.000002281751
      27        0.000001123900     0.000000002799    -0.000002167474

  **** Optimization is complete! (in 6 steps) ****
    Final optimized geometry and variables:
    Molecular point group: c1

    Geometry (in Angstrom), charge = 0, multiplicity = 1:

    H            1.190860050971     2.125410081132     2.951586967673
    O            1.927629427373     1.737833207773     2.515743835466
    C            2.085214959485     0.401489531061     2.913341557401
    C            1.012059143053    -0.567600390729     2.383315782998
    H            3.050148560141     0.112465763296     2.519573626453
    H            2.151278810710     0.330429613263     3.994850372303
    C            0.266875166847    -0.073444479785     1.142094978762
    H            1.510658374962    -1.491326826077     2.106396913479
    H            0.294443075531    -0.806100825393     3.162311141820
    C           -0.693410961509    -1.126853772228     0.591890887596
    H            0.988633621197     0.211329222335     0.385854405174
    H           -0.292008281782     0.826775879318     1.376765187926
    C           -1.549196915375    -0.662074978583    -0.587955378350
    H           -0.130634201814    -2.010267453843     0.298815789046
    H           -1.357103595481    -1.445194847726     1.391694837608
    C           -0.773186474792    -0.363660457820    -1.869413548474
    H           -2.286122623661    -1.431808585052    -0.800836970044
    H           -2.112213631651     0.221395496812    -0.295497742819
    C           -1.676618999406     0.008609678761    -3.042176177391
    H           -0.179306089626    -1.234579323681    -2.138777821381
    H           -0.068875404863     0.444430367044    -1.698747462366
    C           -0.904430173634     0.311431366221    -4.321967663127
    H           -2.376882988436    -0.801354472998    -3.227606130047
    H           -2.276959198794     0.873118283581    -2.771616003754
    H           -0.318952110873    -0.545774589328    -4.637765409148
    H           -1.574556553684     0.570642437663    -5.133731038277
    H           -0.220977670173     1.141917084127    -4.179545226393

  Mulliken Charges: (a.u.)
   Center  Symbol    Alpha    Beta     Spin     Total
       1     H     0.39590  0.39590  0.00000  0.20820
       2     O     4.20051  4.20051  0.00000 -0.40101
       3     C     2.97629  2.97629  0.00000  0.04741
       4     C     3.12081  3.12081  0.00000 -0.24162
       5     H     0.45534  0.45534  0.00000  0.08932
       6     H     0.46054  0.46054  0.00000  0.07891
       7     C     3.07957  3.07957  0.00000 -0.15915
       8     H     0.45335  0.45335  0.00000  0.09330
       9     H     0.45057  0.45057  0.00000  0.09886
      10     C     3.09922  3.09922  0.00000 -0.19843
      11     H     0.44621  0.44621  0.00000  0.10758
      12     H     0.45891  0.45891  0.00000  0.08217
      13     C     3.09748  3.09748  0.00000 -0.19496
      14     H     0.45393  0.45393  0.00000  0.09214
      15     H     0.44980  0.44980  0.00000  0.10040
      16     C     3.08836  3.08836  0.00000 -0.17672
      17     H     0.44903  0.44903  0.00000  0.10194
      18     H     0.45455  0.45455  0.00000  0.09090
      19     C     3.08396  3.08396  0.00000 -0.16791
      20     H     0.45575  0.45575  0.00000  0.08849
      21     H     0.45135  0.45135  0.00000  0.09730
      22     C     3.14976  3.14976  0.00000 -0.29952
      23     H     0.45458  0.45458  0.00000  0.09084
      24     H     0.45494  0.45494  0.00000  0.09012
      25     H     0.45551  0.45551  0.00000  0.08898
      26     H     0.44891  0.44891  0.00000  0.10219
      27     H     0.45486  0.45486  0.00000  0.09027

   Total alpha = 37.00000, Total beta = 37.00000, Total charge =  0.00000

*** Psi4 exiting successfully. Buy a developer a beer!
