  ==> Input File <==

--------------------------------------------------------------------------
set {
	reference rhf
	basis 6-31G*
}

set_num_threads( 4 )
memory 2 gb

molecule MOL {
0 1

H	 -0.944757	 -0.000069	 1.678017
O	 -0.042387	 -0.000390	 1.388199
C	 -0.001487	 0.000018	 -0.026623
C	 0.940120	 1.104135	 -0.511331
C	 0.462699	 -1.369619	 -0.525892
C	 -1.434223	 0.279126	 -0.466836
H	 0.961844	 1.158665	 -1.595053
H	 1.956522	 0.922722	 -0.169392
H	 0.621981	 2.065583	 -0.123487
H	 0.467030	 -1.415242	 -1.610322
H	 1.472079	 -1.584185	 -0.182314
H	 -0.192452	 -2.147748	 -0.150168
H	 -1.511262	 0.300915	 -1.549119
H	 -1.766451	 1.234680	 -0.076927
H	 -2.098825	 -0.489104	 -0.087994

	symmetry c1
}
set optking {
	frozen_dihedral = ("
		4 3 2 1
	")
}

ee = optimize('scf')
oeprop('DIPOLE', 'QUADRUPOLE', 'MULLIKEN_CHARGES')
f=open( 'psi4out.xyz', 'w' )
f.write( "15  " )
f.write( str(ee) + "\n" )
f.write( MOL.save_string_xyz() )
f.close()
--------------------------------------------------------------------------

    Molecular point group: c1
  Charge       = 0
  Multiplicity = 1
  Basis Set: 6-31G*
  Basis Set:
  @DF-RHF Final Energy:  -232.14883149794755
    Total Energy =                       -232.1488314979471284
    Molecular point group: c1
  Basis Set: 6-31G*
  Basis Set:
  Basis Set: 6-31G*
  Basis Set:
  @DF-RHF Final Energy:  -232.15049128537018
    Total Energy =                       -232.1504912853703217
  Basis Set: 6-31G*
  Basis Set:
  Basis Set: 6-31G*
  Basis Set:
  @DF-RHF Final Energy:  -232.15101456169057
    Total Energy =                       -232.1510145616907153
  Basis Set: 6-31G*
  Basis Set:
  Basis Set: 6-31G*
  Basis Set:
  @DF-RHF Final Energy:  -232.15102102318087
    Total Energy =                       -232.1510210231809879
  Basis Set: 6-31G*
  Basis Set:
  Basis Set: 6-31G*
  Basis Set:
  @DF-RHF Final Energy:  -232.15101995303408
    Total Energy =                       -232.1510199530344494
  Basis Set: 6-31G*
  Basis Set:
  Basis Set: 6-31G*
  Basis Set:
  @DF-RHF Final Energy:  -232.15102235639324
    Total Energy =                       -232.1510223563932982
  Basis Set: 6-31G*
  Basis Set:
  Charge       = 0
  Multiplicity = 1
  Basis Set: 6-31G*
  Basis Set:

    Orbital Energies (a.u.)
    -----------------------

    Doubly Occupied:

       1A    -20.546713     2A    -11.282038     3A    -11.218555
       4A    -11.204756     5A    -11.204354     6A     -1.358075
       7A     -1.063790     8A     -0.945489     9A     -0.935513
      10A     -0.775649    11A     -0.669145    12A     -0.622643
      13A     -0.621112    14A     -0.575108    15A     -0.556455
      16A     -0.533186    17A     -0.516761    18A     -0.508652
      19A     -0.501706    20A     -0.456475    21A     -0.422750

  @DF-RHF Final Energy:  -232.15102235053783

   => Energetics <=

    Nuclear Repulsion Energy =            200.2461448178437706
    One-Electron Energy =                -711.7564846830189254
    Two-Electron Energy =                 279.3593175146374392
    DFT Exchange-Correlation Energy =       0.0000000000000000
    Empirical Dispersion Energy =           0.0000000000000000
    PCM Polarization Energy =               0.0000000000000000
    EFP Energy =                            0.0000000000000000
    Total Energy =                       -232.1510223505377439
    Molecular point group: c1
  Basis Set: 6-31G*
  Basis Set:

  -Total Gradient:
     Atom            X                  Y                   Z
    ------   -----------------  -----------------  -----------------
       1        0.000021989737     0.001130714370    -0.000000187732
       2       -0.000174374611    -0.001249953551    -0.000022311071
       3        0.000665470384    -0.000329139477    -0.000022592577
       4       -0.000513881102     0.000451827292     0.000031065118
       5        0.000004326057    -0.000001632308     0.000004464755
       6       -0.000010329457     0.000003784835     0.000000738131
       7       -0.000001121215    -0.000005716579     0.000004505171
       8        0.000005213552     0.000003023646    -0.000000758173
       9       -0.000000740949     0.000000898153    -0.000001205953
      10        0.000007303631     0.000004982968     0.000003404470
      11        0.000003814168    -0.000012328087     0.000000892651
      12       -0.000003692694     0.000005031806    -0.000002117520
      13       -0.000000746586     0.000001206923     0.000002526274
      14       -0.000002813911    -0.000001721233     0.000001925822
      15       -0.000000417003    -0.000000978757    -0.000000349372

  **** Optimization is complete! (in 7 steps) ****
    Final optimized geometry and variables:
    Molecular point group: c1

    Geometry (in Angstrom), charge = 0, multiplicity = 1:

    H           -0.809509535077     0.004808511616     1.759940532738
    O            0.061519931661    -0.010882273112     1.392293099690
    C            0.002145444774    -0.002392159848    -0.026179567039
    C            0.945504553510     1.101618498021    -0.498160319281
    C            0.470229539331    -1.369673389482    -0.522705125890
    C           -1.427566247228     0.280634231468    -0.489108437898
    H            0.994359458374     1.142190684543    -1.582092614799
    H            1.944892977023     0.925523054837    -0.115857138141
    H            0.611345645892     2.065674793851    -0.130137306950
    H            0.490663811098    -1.412505512851    -1.607627434309
    H            1.467316784433    -1.578177305282    -0.151193849820
    H           -0.191133029848    -2.150768048485    -0.161309880331
    H           -1.490684900995     0.307148108138    -1.571378721278
    H           -1.770673154758     1.238923060217    -0.109339333554
    H           -2.107606023637    -0.491404784155    -0.136990145553

  Mulliken Charges: (a.u.)
   Center  Symbol    Alpha    Beta     Spin     Total
       1     H     0.27955  0.27955  0.00000  0.44089
       2     O     4.38358  4.38358  0.00000 -0.76716
       3     C     2.84454  2.84454  0.00000  0.31092
       4     C     3.23172  3.23172  0.00000 -0.46344
       5     C     3.23175  3.23175  0.00000 -0.46350
       6     C     3.26042  3.26042  0.00000 -0.52084
       7     H     0.42573  0.42573  0.00000  0.14854
       8     H     0.41305  0.41305  0.00000  0.17389
       9     H     0.41864  0.41864  0.00000  0.16273
      10     H     0.42581  0.42581  0.00000  0.14838
      11     H     0.41313  0.41313  0.00000  0.17374
      12     H     0.42154  0.42154  0.00000  0.15692
      13     H     0.41430  0.41430  0.00000  0.17141
      14     H     0.41615  0.41615  0.00000  0.16770
      15     H     0.42010  0.42010  0.00000  0.15980

   Total alpha = 21.00000, Total beta = 21.00000, Total charge = -0.00000
