  ==> Input File <==

--------------------------------------------------------------------------
set {
	reference rhf
	basis cc-pvtz
}

set_num_threads( 4 )
memory 2 gb

molecule MOL {
0 1

H	 -1.873735	 0.117947	 -0.664589
N	 -1.173824	 -0.310545	 -0.096857
C	 -0.022588	 0.563366	 0.065815
H	 -1.593948	 -0.513948	 0.786170
C	 1.270420	 -0.230572	 -0.014245
H	 -0.045354	 1.293678	 -0.735129
H	 -0.043155	 1.123061	 1.001180
H	 1.336273	 -0.754933	 -0.959364
H	 2.130728	 0.422015	 0.082222
H	 1.323344	 -0.967006	 0.781773

	symmetry c1
}
set optking {
	frozen_dihedral = ("
		1 2 3 6
	")
}

ee = optimize('scf')
oeprop('DIPOLE', 'QUADRUPOLE', 'MULLIKEN_CHARGES')
f=open( 'psi4out.xyz', 'w' )
f.write( "10  " )
f.write( str(ee) + "\n" )
f.write( MOL.save_string_xyz() )
f.close()
--------------------------------------------------------------------------

    Molecular point group: c1
  Charge       = 0
  Multiplicity = 1
  Basis Set: CC-PVTZ
  Basis Set:
  @DF-RHF Final Energy:  -134.30222744356411
    Total Energy =                       -134.3022274435641066
    Molecular point group: c1
  Basis Set: CC-PVTZ
  Basis Set:
  Basis Set: CC-PVTZ
  Basis Set:
  @DF-RHF Final Energy:  -134.30253607796843
    Total Energy =                       -134.3025360779683695
  Basis Set: CC-PVTZ
  Basis Set:
  Basis Set: CC-PVTZ
  Basis Set:
  @DF-RHF Final Energy:  -134.30262307099548
    Total Energy =                       -134.3026230709955371
  Basis Set: CC-PVTZ
  Basis Set:
  Basis Set: CC-PVTZ
  Basis Set:
  @DF-RHF Final Energy:  -134.30262678154969
    Total Energy =                       -134.3026267815496340
  Basis Set: CC-PVTZ
  Basis Set:
  Charge       = 0
  Multiplicity = 1
  Basis Set: CC-PVTZ
  Basis Set:

    Orbital Energies (a.u.)
    -----------------------

    Doubly Occupied:

       1A    -15.524843     2A    -11.241370     3A    -11.199923
       4A     -1.174795     5A     -0.987064     6A     -0.821774
       7A     -0.673193     8A     -0.625528     9A     -0.573037
      10A     -0.524152    11A     -0.511901    12A     -0.478797
      13A     -0.381013

  @DF-RHF Final Energy:  -134.30262717107664

   => Energetics <=

    Nuclear Repulsion Energy =             83.2129125945367605
    One-Electron Energy =                -345.5963016985829199
    Two-Electron Energy =                 128.0807619329695797
    DFT Exchange-Correlation Energy =       0.0000000000000000
    Empirical Dispersion Energy =           0.0000000000000000
    PCM Polarization Energy =               0.0000000000000000
    EFP Energy =                            0.0000000000000000
    Total Energy =                       -134.3026271710765798
    Molecular point group: c1
  Basis Set: CC-PVTZ
  Basis Set:

  -Total Gradient:
     Atom            X                  Y                   Z
    ------   -----------------  -----------------  -----------------
       1        0.001015934364    -0.001016645682    -0.002082010025
       2       -0.001608895289     0.001585782141     0.002919364792
       3        0.001788202481    -0.001992132237    -0.002160175374
       4        0.000012136953     0.000001341157     0.000001415060
       5       -0.000007176336     0.000017225456     0.000001656173
       6       -0.001196831911     0.001395929246     0.001318887965
       7       -0.000009434859     0.000009112524     0.000010776393
       8        0.000003080007    -0.000000885870     0.000003216022
       9        0.000010011949    -0.000010647467    -0.000003874085
      10       -0.000007027358     0.000010920734    -0.000009256921

  **** Optimization is complete! (in 5 steps) ****
    Final optimized geometry and variables:
    Molecular point group: c1

    Geometry (in Angstrom), charge = 0, multiplicity = 1:

    H           -1.894781829706     0.117197870186    -0.628945599857
    N           -1.180760986392    -0.306825059695    -0.080755489828
    C           -0.011744890432     0.551921326616     0.061263817793
    H           -1.568819839530    -0.570665091353     0.797503315967
    C            1.281647037416    -0.244879140197     0.000383350742
    H           -0.028341548011     1.290823427350    -0.731738603528
    H           -0.039824420558     1.118579939195     0.990218855764
    H            1.359062976207    -0.770758591587    -0.943144598805
    H            2.144212652524     0.404777524300     0.109400680381
    H            1.313891427997    -0.982718939938     0.794728737265

  Mulliken Charges: (a.u.)
   Center  Symbol    Alpha    Beta     Spin     Total
       1     H     0.42469  0.42469  0.00000  0.15061
       2     N     3.69720  3.69720  0.00000 -0.39440
       3     C     3.03071  3.03071  0.00000 -0.06142
       4     H     0.42762  0.42762  0.00000  0.14476
       5     C     3.12427  3.12427  0.00000 -0.24853
       6     H     0.45754  0.45754  0.00000  0.08491
       7     H     0.46390  0.46390  0.00000  0.07220
       8     H     0.45424  0.45424  0.00000  0.09153
       9     H     0.46062  0.46062  0.00000  0.07877
      10     H     0.45921  0.45921  0.00000  0.08157

   Total alpha = 13.00000, Total beta = 13.00000, Total charge = -0.00000
