  ==> Input File <==

--------------------------------------------------------------------------
set {
	reference rhf
	basis 6-31G*
}

set_num_threads( 4 )
memory 2 gb

molecule MOL {
0 1

H	 2.708198	 -0.565855	 -0.581639
O	 2.016064	 -0.864478	 0.000222
C	 1.050492	 0.053836	 0.000068
C	 -0.318135	 -0.576402	 0.000164
O	 1.285279	 1.218255	 -0.000078
C	 -1.454360	 0.441875	 -0.000474
H	 -0.374042	 -1.230163	 -0.866135
H	 -0.374274	 -1.229227	 0.867154
C	 -2.826123	 -0.230780	 0.000056
H	 -1.357605	 1.085198	 -0.868380
H	 -1.357504	 1.086451	 0.866496
H	 -2.959731	 -0.858053	 -0.876869
H	 -3.619374	 0.509403	 -0.000080
H	 -2.959371	 -0.857318	 0.877556

	symmetry c1
}
set optking {
	frozen_dihedral = ("
		1 2 3 5
	")
}

ee = optimize('scf')
oeprop('DIPOLE', 'QUADRUPOLE', 'MULLIKEN_CHARGES')
f=open( 'psi4out.xyz', 'w' )
f.write( "14  " )
f.write( str(ee) + "\n" )
f.write( MOL.save_string_xyz() )
f.close()
--------------------------------------------------------------------------

    Molecular point group: c1
  Charge       = 0
  Multiplicity = 1
  Basis Set: 6-31G*
  Basis Set:
  @DF-RHF Final Energy:  -305.87186388181590
    Total Energy =                       -305.8718638818158979
    Molecular point group: c1
  Basis Set: 6-31G*
  Basis Set:
  Basis Set: 6-31G*
  Basis Set:
  @DF-RHF Final Energy:  -305.86938354470118
    Total Energy =                       -305.8693835447012361
  Basis Set: 6-31G*
  Basis Set:
  Basis Set: 6-31G*
  Basis Set:
  @DF-RHF Final Energy:  -305.87262970896444
    Total Energy =                       -305.8726297089646096
  Basis Set: 6-31G*
  Basis Set:
  Basis Set: 6-31G*
  Basis Set:
  @DF-RHF Final Energy:  -305.87269031107866
    Total Energy =                       -305.8726903110788271
  Basis Set: 6-31G*
  Basis Set:
  Basis Set: 6-31G*
  Basis Set:
  @DF-RHF Final Energy:  -305.87269809113650
    Total Energy =                       -305.8726980911363853
  Basis Set: 6-31G*
  Basis Set:
  Charge       = 0
  Multiplicity = 1
  Basis Set: 6-31G*
  Basis Set:

    Orbital Energies (a.u.)
    -----------------------

    Doubly Occupied:

       1A    -20.606203     2A    -20.555854     3A    -11.381817
       4A    -11.240813     5A    -11.225273     6A    -11.217038
       7A     -1.468554     8A     -1.367243     9A     -1.082418
      10A     -0.978294    11A     -0.855638    12A     -0.792199
      13A     -0.702784    14A     -0.684932    15A     -0.664015
      16A     -0.623407    17A     -0.581403    18A     -0.569708
      19A     -0.545093    20A     -0.504627    21A     -0.492350
      22A     -0.482108    23A     -0.479847    24A     -0.444297

  @DF-RHF Final Energy:  -305.87269883860495

   => Energetics <=

    Nuclear Repulsion Energy =            239.6547677302250747
    One-Electron Energy =                -891.9631060410819146
    Two-Electron Energy =                 346.4356394722518644
    DFT Exchange-Correlation Energy =       0.0000000000000000
    Empirical Dispersion Energy =           0.0000000000000000
    PCM Polarization Energy =               0.0000000000000000
    EFP Energy =                            0.0000000000000000
    Total Energy =                       -305.8726988386049470
    Molecular point group: c1
  Basis Set: 6-31G*
  Basis Set:

  -Total Gradient:
     Atom            X                  Y                   Z
    ------   -----------------  -----------------  -----------------
       1       -0.004355443429    -0.005754701527    -0.009148122638
       2        0.004930363863     0.007298150083     0.016202321523
       3        0.000293470773    -0.001846822490    -0.017509594046
       4        0.000052871388    -0.000056442053    -0.000089905488
       5       -0.000917445564     0.000317889920     0.010443129607
       6        0.000005467224    -0.000016277682     0.000033390390
       7        0.000015158577    -0.000013689433     0.000010530527
       8       -0.000032407448     0.000070965982     0.000069712370
       9       -0.000000955297    -0.000000045029    -0.000011996598
      10       -0.000000290197     0.000002437924    -0.000003464162
      11        0.000005152303    -0.000002076373     0.000004288842
      12        0.000002115054    -0.000004282424     0.000000668942
      13        0.000002705801    -0.000000041090    -0.000005367917
      14       -0.000000763056     0.000004934189     0.000004408648

  **** Optimization is complete! (in 6 steps) ****
    Final optimized geometry and variables:
    Molecular point group: c1

    Geometry (in Angstrom), charge = 0, multiplicity = 1:

    H            2.776599218796    -0.604213800783    -0.442248741194
    O            2.024148911322    -0.862030307388     0.078685582100
    C            1.052246666515     0.059228424374    -0.038698790616
    C           -0.316144546976    -0.570757326905    -0.017146760661
    O            1.279207159899     1.221992788992    -0.059787012266
    C           -1.455668882541     0.442604494859     0.020661856594
    H           -0.389201773596    -1.214455314477    -0.890468249468
    H           -0.349826612929    -1.236813215706     0.840974313749
    C           -2.825281676514    -0.234346833243     0.036200608824
    H           -1.377810633766     1.101294674062    -0.837599848994
    H           -1.344183851724     1.072571288175     0.896768807512
    H           -2.973475949401    -0.848123458179    -0.847970433272
    H           -3.620704569536     0.503044983627     0.062602327254
    H           -2.940150785579    -0.875172247841     0.905899584333

  Mulliken Charges: (a.u.)
   Center  Symbol    Alpha    Beta     Spin     Total
       1     H     0.26672  0.26672  0.00000  0.46655
       2     O     4.35791  4.35791  0.00000 -0.71581
       3     C     2.62756  2.62756  0.00000  0.74488
       4     C     3.20912  3.20912  0.00000 -0.41823
       5     O     4.26628  4.26628  0.00000 -0.53256
       6     C     3.15255  3.15255  0.00000 -0.30510
       7     H     0.40230  0.40230  0.00000  0.19541
       8     H     0.39762  0.39762  0.00000  0.20477
       9     C     3.24281  3.24281  0.00000 -0.48562
      10     H     0.41062  0.41062  0.00000  0.17875
      11     H     0.41012  0.41012  0.00000  0.17975
      12     H     0.42131  0.42131  0.00000  0.15738
      13     H     0.41452  0.41452  0.00000  0.17096
      14     H     0.42056  0.42056  0.00000  0.15887

   Total alpha = 24.00000, Total beta = 24.00000, Total charge =  0.00000
