  ==> Input File <==

--------------------------------------------------------------------------
set {
	reference rhf
	basis 6-31G*
}

set_num_threads( 4 )
memory 2 gb

molecule MOL {
0 1

H	 1.136379	 0.211822	 1.465562
C	 1.135357	 0.094285	 0.374742
C	 0.065331	 0.871482	 -0.349150
O	 1.941633	 -0.601957	 -0.151457
C	 -1.345719	 0.531572	 0.151729
H	 0.165055	 0.682400	 -1.411796
H	 0.262419	 1.928605	 -0.176502
C	 -1.772723	 -0.901005	 -0.170473
H	 -2.047174	 1.227861	 -0.296774
H	 -1.397905	 0.698158	 1.225585
H	 -1.761146	 -1.078114	 -1.241466
H	 -2.778169	 -1.094177	 0.188802
H	 -1.112756	 -1.630963	 0.288868

	symmetry c1
}
set optking {
	frozen_dihedral = ("
		6 3 2 4
	")
}

ee = optimize('scf')
oeprop('DIPOLE', 'QUADRUPOLE', 'MULLIKEN_CHARGES')
f=open( 'psi4out.xyz', 'w' )
f.write( "13  " )
f.write( str(ee) + "\n" )
f.write( MOL.save_string_xyz() )
f.close()
--------------------------------------------------------------------------

    Molecular point group: c1
  Charge       = 0
  Multiplicity = 1
  Basis Set: 6-31G*
  Basis Set:
  @DF-RHF Final Energy:  -230.98468819154866
    Total Energy =                       -230.9846881915485710
    Molecular point group: c1
  Basis Set: 6-31G*
  Basis Set:
  Basis Set: 6-31G*
  Basis Set:
  @DF-RHF Final Energy:  -230.98462150201931
    Total Energy =                       -230.9846215020192233
  Basis Set: 6-31G*
  Basis Set:
  Basis Set: 6-31G*
  Basis Set:
  @DF-RHF Final Energy:  -230.98469058924883
    Total Energy =                       -230.9846905892488564
  Basis Set: 6-31G*
  Basis Set:
  Charge       = 0
  Multiplicity = 1
  Basis Set: 6-31G*
  Basis Set:

    Orbital Energies (a.u.)
    -----------------------

    Doubly Occupied:

       1A    -20.563284     2A    -11.327106     3A    -11.238980
       4A    -11.235842     5A    -11.220946     6A     -1.403093
       7A     -1.086652     8A     -0.972938     9A     -0.847586
      10A     -0.788841    11A     -0.665780    12A     -0.649634
      13A     -0.626492    14A     -0.594361    15A     -0.558488
      16A     -0.532750    17A     -0.507080    18A     -0.493311
      19A     -0.481358    20A     -0.410668

  @DF-RHF Final Energy:  -230.98469052029606

   => Energetics <=

    Nuclear Repulsion Energy =            173.9190450926018343
    One-Electron Energy =                -657.3970898603513433
    Two-Electron Energy =                 252.4933542474533397
    DFT Exchange-Correlation Energy =       0.0000000000000000
    Empirical Dispersion Energy =           0.0000000000000000
    PCM Polarization Energy =               0.0000000000000000
    EFP Energy =                            0.0000000000000000
    Total Energy =                       -230.9846905202961693
    Molecular point group: c1
  Basis Set: 6-31G*
  Basis Set:

  -Total Gradient:
     Atom            X                  Y                   Z
    ------   -----------------  -----------------  -----------------
       1        0.000009112618     0.000006464059     0.000001295698
       2        0.000156380655     0.000214035309    -0.000005402097
       3       -0.000186196849    -0.000222306973     0.000036580440
       4       -0.000096555600    -0.000123838721     0.000006999467
       5        0.000023619077    -0.000000695020     0.000011116065
       6        0.000105158296     0.000118590465    -0.000015826150
       7       -0.000004751730     0.000014026286    -0.000018346730
       8       -0.000014912632    -0.000006859805    -0.000010779177
       9        0.000008114908     0.000012693449     0.000002677378
      10        0.000005502334    -0.000011303440    -0.000003904899
      11        0.000000155708    -0.000003417197    -0.000000639051
      12        0.000002259527    -0.000000396314     0.000000545649
      13       -0.000007886313     0.000003007904    -0.000004316591

  **** Optimization is complete! (in 4 steps) ****
    Final optimized geometry and variables:
    Molecular point group: c1

    Geometry (in Angstrom), charge = 0, multiplicity = 1:

    H            1.126704134715     0.234562929232     1.497723709174
    C            1.128911170788     0.117292778739     0.406907422990
    C            0.059633841736     0.892865256923    -0.319364972421
    O            1.934490928054    -0.581766611634    -0.116729621878
    C           -1.350811256253     0.551779376599     0.183944885748
    H            0.158446935334     0.700174929741    -1.381442502156
    H            0.254336429861     1.950808193194    -0.149765272616
    C           -1.779092504080    -0.879941676904    -0.140115576525
    H           -2.052660579858     1.249344654693    -0.261910316893
    H           -1.400726662204     0.716524551281     1.258201735626
    H           -1.769592394852    -1.054932065782    -1.211475259577
    H           -2.784097198577    -1.072769356634     0.220585134695
    H           -1.118759494353    -1.611061915364     0.316445541828

  Mulliken Charges: (a.u.)
   Center  Symbol    Alpha    Beta     Spin     Total
       1     H     0.43236  0.43236  0.00000  0.13528
       2     C     2.83168  2.83168  0.00000  0.33664
       3     C     3.20723  3.20723  0.00000 -0.41445
       4     O     4.23680  4.23680  0.00000 -0.47359
       5     C     3.16579  3.16579  0.00000 -0.33157
       6     H     0.39989  0.39989  0.00000  0.20022
       7     H     0.40771  0.40771  0.00000  0.18458
       8     C     3.24216  3.24216  0.00000 -0.48433
       9     H     0.41149  0.41149  0.00000  0.17701
      10     H     0.41852  0.41852  0.00000  0.16297
      11     H     0.41556  0.41556  0.00000  0.16887
      12     H     0.41545  0.41545  0.00000  0.16910
      13     H     0.41536  0.41536  0.00000  0.16928

   Total alpha = 20.00000, Total beta = 20.00000, Total charge = -0.00000
