  ==> Input File <==

--------------------------------------------------------------------------
set {
	reference rhf
	basis cc-pvtz
}

set_num_threads( 4 )
memory 2 gb

molecule MOL {
0 1

H	 -2.599224	 -0.498032	 -0.024551
N	 -1.851927	 0.161443	 -0.071573
C	 -0.561396	 -0.500007	 0.035200
H	 -1.983309	 0.809559	 0.676773
C	 0.575129	 0.507849	 -0.048832
H	 -0.478089	 -1.200753	 -0.788956
H	 -0.456191	 -1.081816	 0.952176
C	 1.951750	 -0.141983	 0.035101
H	 0.478254	 1.061643	 -0.975981
H	 0.467676	 1.231891	 0.755499
H	 2.101550	 -0.848142	 -0.774949
H	 2.738260	 0.600794	 -0.026526
H	 2.078939	 -0.679792	 0.968824

	symmetry c1
}
set optking {
	frozen_dihedral = ("
		1 2 3 6
	")
}

ee = optimize('scf')
oeprop('DIPOLE', 'QUADRUPOLE', 'MULLIKEN_CHARGES')
f=open( 'psi4out.xyz', 'w' )
f.write( "13  " )
f.write( str(ee) + "\n" )
f.write( MOL.save_string_xyz() )
f.close()
--------------------------------------------------------------------------

    Molecular point group: c1
  Charge       = 0
  Multiplicity = 1
  Basis Set: CC-PVTZ
  Basis Set:
  @DF-RHF Final Energy:  -173.35258621245904
    Total Energy =                       -173.3525862124590731
    Molecular point group: c1
  Basis Set: CC-PVTZ
  Basis Set:
  Basis Set: CC-PVTZ
  Basis Set:
  @DF-RHF Final Energy:  -173.35258936906959
    Total Energy =                       -173.3525893690695909
  Basis Set: CC-PVTZ
  Basis Set:
  Charge       = 0
  Multiplicity = 1
  Basis Set: CC-PVTZ
  Basis Set:

    Orbital Energies (a.u.)
    -----------------------

    Doubly Occupied:

       1A    -15.526836     2A    -11.238323     3A    -11.210900
       4A    -11.207290     5A     -1.178688     6A     -1.036618
       7A     -0.899437     8A     -0.800606     9A     -0.661686
      10A     -0.632576    11A     -0.604222    12A     -0.565588
      13A     -0.532535    14A     -0.492882    15A     -0.477195
      16A     -0.469238    17A     -0.384865

  @DF-RHF Final Energy:  -173.35258989036657

   => Energetics <=

    Nuclear Repulsion Energy =            132.0099771973827387
    One-Electron Energy =                -494.8861692805772918
    Two-Electron Energy =                 189.5236021928280934
    DFT Exchange-Correlation Energy =       0.0000000000000000
    Empirical Dispersion Energy =           0.0000000000000000
    PCM Polarization Energy =               0.0000000000000000
    EFP Energy =                            0.0000000000000000
    Total Energy =                       -173.3525898903664597
    Molecular point group: c1
  Basis Set: CC-PVTZ
  Basis Set:

  -Total Gradient:
     Atom            X                  Y                   Z
    ------   -----------------  -----------------  -----------------
       1        0.000001333156     0.000077623424     0.000423129514
       2        0.000070969107    -0.000009055053    -0.000536355721
       3       -0.000261523130    -0.000287914328     0.000332453598
       4       -0.000003382260    -0.000027001676    -0.000014767352
       5       -0.000015838388    -0.000042255112    -0.000016397701
       6        0.000188169747     0.000262453883    -0.000232212296
       7        0.000012594995     0.000009635355     0.000025001441
       8        0.000003047335     0.000011548294     0.000017371214
       9       -0.000001242785    -0.000005350000    -0.000010537685
      10        0.000011792744     0.000003355033     0.000009955783
      11       -0.000009770743     0.000010922624    -0.000000616980
      12        0.000002669533    -0.000000441178     0.000004169975
      13        0.000001180691    -0.000003521267    -0.000001193790

  **** Optimization is complete! (in 3 steps) ****
    Final optimized geometry and variables:
    Molecular point group: c1

    Geometry (in Angstrom), charge = 0, multiplicity = 1:

    H           -2.599259563346    -0.497984212403    -0.029975012076
    N           -1.851678170570     0.161557396177    -0.074747238510
    C           -0.561988110914    -0.500776981526     0.037326781998
    H           -1.985648350447     0.805293211882     0.677140829534
    C            0.574658658095     0.506937204297    -0.047657154934
    H           -0.475114532848    -1.202510054629    -0.785714624206
    H           -0.458649819314    -1.079118631834     0.956653354622
    C            1.951231310366    -0.143168759758     0.033565970880
    H            0.476850445643     1.061289820380    -0.974453364924
    H            0.469070930326     1.230338838102     0.757555167841
    H            2.099401175828    -0.848702227267    -0.777259311126
    H            2.737715117093     0.599580356780    -0.028799476792
    H            2.079656713790    -0.681584973828     0.966754466499

  Mulliken Charges: (a.u.)
   Center  Symbol    Alpha    Beta     Spin     Total
       1     H     0.43023  0.43023  0.00000  0.13954
       2     N     3.68920  3.68920  0.00000 -0.37839
       3     C     3.02127  3.02127  0.00000 -0.04254
       4     H     0.43110  0.43110  0.00000  0.13780
       5     C     3.07883  3.07883  0.00000 -0.15765
       6     H     0.45781  0.45781  0.00000  0.08438
       7     H     0.47000  0.47000  0.00000  0.06000
       8     C     3.15260  3.15260  0.00000 -0.30520
       9     H     0.44901  0.44901  0.00000  0.10198
      10     H     0.46036  0.46036  0.00000  0.07928
      11     H     0.45491  0.45491  0.00000  0.09017
      12     H     0.44777  0.44777  0.00000  0.10445
      13     H     0.45691  0.45691  0.00000  0.08618

   Total alpha = 17.00000, Total beta = 17.00000, Total charge =  0.00000
