                              Psi4 1.0.54 Driver

  ==> Input File <==

--------------------------------------------------------------------------
set {
	reference rhf
	basis cc-pvtz
}

set_num_threads( 4 )
memory 2 gb

molecule MOL {
0 1

H	 -4.237869	 0.447382	 0.170494
O	 -3.515113	 -0.019339	 -0.206321
C	 -2.302264	 0.528872	 0.237390
C	 -1.175688	 -0.398187	 -0.171891
H	 -2.148018	 1.514076	 -0.197759
H	 -2.310727	 0.646384	 1.319032
C	 0.196029	 0.106276	 0.266738
H	 -1.201873	 -0.515469	 -1.250677
H	 -1.365975	 -1.378728	 0.252664
C	 1.330220	 -0.826136	 -0.155230
H	 0.359542	 1.097229	 -0.145561
H	 0.212134	 0.218135	 1.348778
C	 2.719700	 -0.407669	 0.328325
H	 1.339388	 -0.911200	 -1.239363
H	 1.119001	 -1.821953	 0.224128
C	 3.241564	 0.893452	 -0.276737
H	 3.418299	 -1.204729	 0.093035
H	 2.711776	 -0.323368	 1.411960
H	 3.254204	 0.841071	 -1.360784
H	 2.634460	 1.745075	 0.005842
H	 4.254264	 1.092401	 0.054971

	symmetry c1
}
set optking {
	frozen_dihedral = ("
		1 2 3 5
	")
}

ee,wfn = optimize('scf', return_wfn=True)
oeprop( wfn, 'DIPOLE', 'QUADRUPOLE', 'MULLIKEN_CHARGES')
f=open( 'psi4out.xyz', 'w' )
f.write( "21  " )
f.write( str(ee) + "\n" )
f.write( MOL.save_string_xyz() )
f.close()
--------------------------------------------------------------------------

    Molecular point group: c1
  Charge       = 0
  Multiplicity = 1
  Basis Set: CC-PVTZ
  Basis Set:
  @DF-RHF Final Energy:  -310.33292744129938
    Total Energy =                       -310.3329274412990912
    Molecular point group: c1
  Basis Set: CC-PVTZ
  Basis Set:
  Basis Set: CC-PVTZ
  Basis Set:
  @DF-RHF Final Energy:  -310.33293279054419
    Total Energy =                       -310.3329327905441914
  Basis Set: CC-PVTZ
  Basis Set:
  Charge       = 0
  Multiplicity = 1
  Basis Set: CC-PVTZ
  Basis Set:

    Orbital Energies (a.u.)
    -----------------------

    Doubly Occupied:

       1A    -20.545312     2A    -11.265003     3A    -11.213150
       4A    -11.213055     5A    -11.211270     6A    -11.208855
       7A    -11.206033     8A     -1.363127     9A     -1.087443
      10A     -1.034420    11A     -0.955497    12A     -0.876511
      13A     -0.807603    14A     -0.779186    15A     -0.696650
      16A     -0.662438    17A     -0.622619    18A     -0.609100
      19A     -0.588441    20A     -0.570251    21A     -0.538706
      22A     -0.520950    23A     -0.510682    24A     -0.489278
      25A     -0.478723    26A     -0.460630    27A     -0.456167
      28A     -0.446153    29A     -0.435798

  @DF-RHF Final Energy:  -310.33293348761646

   => Energetics <=

    Nuclear Repulsion Energy =            312.9534118624705457
    One-Electron Energy =               -1040.8665861036365641
    Two-Electron Energy =                 417.5802407535494467
    DFT Exchange-Correlation Energy =       0.0000000000000000
    Empirical Dispersion Energy =           0.0000000000000000
    PCM Polarization Energy =               0.0000000000000000
    EFP Energy =                            0.0000000000000000
    Total Energy =                       -310.3329334876165149
    Molecular point group: c1
  Basis Set: CC-PVTZ
  Basis Set:

  -Total Gradient:
     Atom            X                  Y                   Z
    ------   -----------------  -----------------  -----------------
       1       -0.000006063094    -0.000525467638     0.000582478225
       2        0.000057375027     0.000605337079    -0.000920967343
       3       -0.000444333990     0.000185716285     0.000912897861
       4        0.000017076766     0.000043792690     0.000025523259
       5        0.000323664235    -0.000287718293    -0.000586004223
       6        0.000043651789    -0.000016668778     0.000002068238
       7        0.000033239498     0.000002462437    -0.000011488027
       8        0.000009786880    -0.000005366123    -0.000006847979
       9       -0.000003603584     0.000019084752     0.000001611024
      10       -0.000005431867    -0.000031959486     0.000038869912
      11        0.000038839314     0.000050621606    -0.000002340991
      12       -0.000012790484    -0.000016786897    -0.000017437958
      13        0.000026560931    -0.000024719326    -0.000055199446
      14        0.000005223803    -0.000018985000     0.000014834153
      15       -0.000012810288     0.000006217597     0.000017841195
      16       -0.000028487599    -0.000002736330     0.000012979102
      17        0.000008267272     0.000012943164    -0.000018068155
      18        0.000002221653    -0.000018587005    -0.000010222912
      19        0.000003958409    -0.000009271240     0.000015915452
      20       -0.000053315968     0.000020013466    -0.000005893363
      21       -0.000003028713     0.000012077039     0.000009451976

  **** Optimization is complete! (in 3 steps) ****
    Final optimized geometry and variables:
    Molecular point group: c1

    Geometry (in Angstrom), charge = 0, multiplicity = 1:

    H           -4.236586544272     0.471369399132     0.144436687725
    O           -3.513027917321     0.000426583040    -0.225015287577
    C           -2.300587836108     0.533685832359     0.238309963443
    C           -1.176175925981    -0.397627112080    -0.168473688428
    H           -2.133070757609     1.519770691447    -0.189972269155
    H           -2.318402172654     0.641976483028     1.320417605551
    C            0.197141426464     0.105506515142     0.266323052427
    H           -1.203772110249    -0.517349587254    -1.247013096041
    H           -1.367883381164    -1.376770674687     0.258470197952
    C            1.328417627494    -0.832621029695    -0.150433688460
    H            0.363189139066     1.093429952519    -0.152020816435
    H            0.214183844551     0.223779775381     1.347710558794
    C            2.719056737153    -0.415141471293     0.330439803581
    H            1.337110095547    -0.923547074227    -1.234050790809
    H            1.114419002960    -1.825719254106     0.234438113830
    C            3.239780749919     0.886320462810    -0.274669231325
    H            3.416976350609    -1.212134963239     0.093023964814
    H            2.713431173791    -0.331601839937     1.414127934639
    H            3.251036721115     0.834332175541    -1.358712673654
    H            2.632664067321     1.737562286928     0.008980096188
    H            4.252810034416     1.085485000643     0.055866375049

  Mulliken Charges: (a.u.)
   Center  Symbol    Alpha    Beta     Spin     Total
       1     H     0.39695  0.39695  0.00000  0.20610
       2     O     4.19509  4.19509  0.00000 -0.39018
       3     C     2.96351  2.96351  0.00000  0.07298
       4     C     3.08358  3.08358  0.00000 -0.16717
       5     H     0.47445  0.47445  0.00000  0.05110
       6     H     0.47511  0.47511  0.00000  0.04978
       7     C     3.10335  3.10335  0.00000 -0.20669
       8     H     0.45055  0.45055  0.00000  0.09890
       9     H     0.45117  0.45117  0.00000  0.09766
      10     C     3.09418  3.09418  0.00000 -0.18837
      11     H     0.45329  0.45329  0.00000  0.09342
      12     H     0.45576  0.45576  0.00000  0.08848
      13     C     3.08986  3.08986  0.00000 -0.17971
      14     H     0.45305  0.45305  0.00000  0.09391
      15     H     0.44890  0.44890  0.00000  0.10220
      16     C     3.15245  3.15245  0.00000 -0.30490
      17     H     0.44845  0.44845  0.00000  0.10311
      18     H     0.45504  0.45504  0.00000  0.08991
      19     H     0.45457  0.45457  0.00000  0.09087
      20     H     0.45422  0.45422  0.00000  0.09157
      21     H     0.44648  0.44648  0.00000  0.10705

   Total alpha = 29.00000, Total beta = 29.00000, Total charge = -0.00000

*** Psi4 exiting successfully. Buy a developer a beer!
