                              Psi4 1.0.54 Driver

  ==> Input File <==

--------------------------------------------------------------------------
set {
	reference rhf
	basis cc-pvtz
}

set_num_threads( 4 )
memory 2 gb

molecule MOL {
0 1

H	 -1.117699	 -1.097439	 0.514249
N	 -1.173824	 -0.310545	 -0.096857
C	 -0.022588	 0.563366	 0.065815
H	 -1.223249	 -0.664288	 -1.029614
C	 1.270420	 -0.230572	 -0.014245
H	 -0.045354	 1.293678	 -0.735129
H	 -0.043155	 1.123061	 1.001180
H	 1.336273	 -0.754933	 -0.959364
H	 2.130728	 0.422015	 0.082222
H	 1.323344	 -0.967006	 0.781773

	symmetry c1
}
set optking {
	frozen_dihedral = ("
		1 2 3 6
	")
}

ee,wfn = optimize('scf', return_wfn=True)
oeprop( wfn, 'DIPOLE', 'QUADRUPOLE', 'MULLIKEN_CHARGES')
f=open( 'psi4out.xyz', 'w' )
f.write( "10  " )
f.write( str(ee) + "\n" )
f.write( MOL.save_string_xyz() )
f.close()
--------------------------------------------------------------------------

    Molecular point group: c1
  Charge       = 0
  Multiplicity = 1
  Basis Set: CC-PVTZ
  Basis Set:
  @DF-RHF Final Energy:  -134.30250350020290
    Total Energy =                       -134.3025035002028460
    Molecular point group: c1
  Basis Set: CC-PVTZ
  Basis Set:
  Basis Set: CC-PVTZ
  Basis Set:
  @DF-RHF Final Energy:  -134.30406625387008
    Total Energy =                       -134.3040662538700474
  Basis Set: CC-PVTZ
  Basis Set:
  Basis Set: CC-PVTZ
  Basis Set:
  @DF-RHF Final Energy:  -134.30428064405848
    Total Energy =                       -134.3042806440584513
  Basis Set: CC-PVTZ
  Basis Set:
  Charge       = 0
  Multiplicity = 1
  Basis Set: CC-PVTZ
  Basis Set:

    Orbital Energies (a.u.)
    -----------------------

    Doubly Occupied:

       1A    -15.527524     2A    -11.241424     3A    -11.208795
       4A     -1.178910     5A     -0.988606     6A     -0.832398
       7A     -0.674830     8A     -0.599772     9A     -0.576141
      10A     -0.559915    11A     -0.507109    12A     -0.484008
      13A     -0.384914

  @DF-RHF Final Energy:  -134.30428182764112

   => Energetics <=

    Nuclear Repulsion Energy =             83.3356445180798744
    One-Electron Energy =                -345.7511624804498069
    Two-Electron Energy =                 128.1112361347288697
    DFT Exchange-Correlation Energy =       0.0000000000000000
    Empirical Dispersion Energy =           0.0000000000000000
    PCM Polarization Energy =               0.0000000000000000
    EFP Energy =                            0.0000000000000000
    Total Energy =                       -134.3042818276410344
    Molecular point group: c1
  Basis Set: CC-PVTZ
  Basis Set:

  -Total Gradient:
     Atom            X                  Y                   Z
    ------   -----------------  -----------------  -----------------
       1        0.000773966147    -0.000878515568    -0.001262177252
       2       -0.000810904041     0.000873210011     0.001335199172
       3       -0.000740123519     0.000992238158     0.000856162662
       4        0.000011625540     0.000024675333     0.000019624755
       5        0.000062100175    -0.000025988189    -0.000039911662
       6        0.000759757725    -0.001009119191    -0.000929231017
       7       -0.000011689404    -0.000012842449    -0.000001600898
       8       -0.000010316900     0.000013653066     0.000016415457
       9       -0.000000882838     0.000000688826     0.000001479573
      10       -0.000033532884     0.000022000004     0.000004039210

  **** Optimization is complete! (in 4 steps) ****
    Final optimized geometry and variables:
    Molecular point group: c1

    Geometry (in Angstrom), charge = 0, multiplicity = 1:

    H           -1.183323483000    -1.060708826845     0.542786211991
    N           -1.230110511843    -0.264153547138    -0.058506173451
    C           -0.035592862643     0.554973243454     0.072484612055
    H           -1.313933663877    -0.615870317477    -0.989484080317
    C            1.285076263785    -0.205898061617     0.010137180462
    H           -0.056514352806     1.295427683301    -0.718868172103
    H           -0.096333421233     1.097984239649     1.008926896088
    H            1.388407600403    -0.728934885287    -0.935153794265
    H            2.129357124194     0.467573193316     0.114898595159
    H            1.346541716103    -0.941607565956     0.806036081191

  Mulliken Charges: (a.u.)
   Center  Symbol    Alpha    Beta     Spin     Total
       1     H     0.43245  0.43245  0.00000  0.13511
       2     N     3.68583  3.68583  0.00000 -0.37167
       3     C     3.02747  3.02747  0.00000 -0.05494
       4     H     0.43196  0.43196  0.00000  0.13608
       5     C     3.13843  3.13843  0.00000 -0.27685
       6     H     0.45504  0.45504  0.00000  0.08991
       7     H     0.45442  0.45442  0.00000  0.09116
       8     H     0.45919  0.45919  0.00000  0.08162
       9     H     0.45574  0.45574  0.00000  0.08851
      10     H     0.45946  0.45946  0.00000  0.08108

   Total alpha = 13.00000, Total beta = 13.00000, Total charge = -0.00000

*** Psi4 exiting successfully. Buy a developer a beer!
