  ==> Input File <==

--------------------------------------------------------------------------
set {
	reference rhf
	basis cc-pvtz
}

set_num_threads( 4 )
memory 2 gb

molecule MOL {
0 1

O	 1.142329	 1.421067	 0.345946
C	 0.906180	 0.464691	 1.002176
C	 -0.381317	 -0.318353	 0.976576
O	 1.765994	 -0.052192	 1.864689
C	 -1.413045	 0.229353	 0.001137
H	 -0.126521	 -1.346891	 0.742760
H	 -0.767922	 -0.333180	 1.990370
C	 -2.702562	 -0.586401	 0.000228
H	 -0.988824	 0.246806	 -0.996496
H	 -1.631351	 1.261175	 0.252592
C	 -3.953810	 0.284959	 -0.000782
H	 -2.717793	 -1.238567	 -0.869075
H	 -2.719108	 -1.238472	 0.869576
H	 -3.983727	 0.924403	 -0.876454
H	 -4.852989	 -0.320147	 -0.001515
H	 -3.985140	 0.924399	 0.874841
C	 3.020747	 0.585651	 1.991465
H	 3.549596	 0.577385	 1.049936
H	 3.567516	 0.022630	 2.730329
H	 2.897723	 1.607795	 2.317516

	symmetry c1
}
set optking {
	frozen_dihedral = ("
		9 5 8 12
	")
}

ee = optimize('scf')
oeprop('DIPOLE', 'QUADRUPOLE', 'MULLIKEN_CHARGES')
f=open( 'psi4out.xyz', 'w' )
f.write( "20  " )
f.write( str(ee) + "\n" )
f.write( MOL.save_string_xyz() )
f.close()
--------------------------------------------------------------------------

    Molecular point group: c1
  Charge       = 0
  Multiplicity = 1
  Basis Set: CC-PVTZ
  Basis Set:
  @DF-RHF Final Energy:  -384.07823738213568
    Total Energy =                       -384.0782373821355122
    Molecular point group: c1
  Basis Set: CC-PVTZ
  Basis Set:
  Basis Set: CC-PVTZ
  Basis Set:
  @DF-RHF Final Energy:  -384.07853358224202
    Total Energy =                       -384.0785335822417892
  Basis Set: CC-PVTZ
  Basis Set:
  Basis Set: CC-PVTZ
  Basis Set:
  @DF-RHF Final Energy:  -384.07842350047775
    Total Energy =                       -384.0784235004774700
  Basis Set: CC-PVTZ
  Basis Set:
  Basis Set: CC-PVTZ
  Basis Set:
  @DF-RHF Final Energy:  -384.07861245488760
    Total Energy =                       -384.0786124548872067
  Basis Set: CC-PVTZ
  Basis Set:
  Charge       = 0
  Multiplicity = 1
  Basis Set: CC-PVTZ
  Basis Set:

    Orbital Energies (a.u.)
    -----------------------

    Doubly Occupied:

       1A    -20.596318     2A    -20.534234     3A    -11.364441
       4A    -11.278512     5A    -11.234153     6A    -11.218304
       7A    -11.217301     8A    -11.209188     9A     -1.472214
      10A     -1.365796    11A     -1.088090    12A     -1.024778
      13A     -0.969882    14A     -0.885969    15A     -0.804929
      16A     -0.769397    17A     -0.700779    18A     -0.686128
      19A     -0.676034    20A     -0.641017    21A     -0.600745
      22A     -0.598194    23A     -0.577808    24A     -0.544450
      25A     -0.530980    26A     -0.523516    27A     -0.508232
      28A     -0.476715    29A     -0.474251    30A     -0.468150
      31A     -0.458621    32A     -0.439394

  @DF-RHF Final Energy:  -384.07861319017132

   => Energetics <=

    Nuclear Repulsion Energy =            381.8428063358881559
    One-Electron Energy =               -1279.9658011784481459
    Two-Electron Energy =                 514.0443816523887790
    DFT Exchange-Correlation Energy =       0.0000000000000000
    Empirical Dispersion Energy =           0.0000000000000000
    PCM Polarization Energy =               0.0000000000000000
    EFP Energy =                            0.0000000000000000
    Total Energy =                       -384.0786131901712679
    Molecular point group: c1
  Basis Set: CC-PVTZ
  Basis Set:

  -Total Gradient:
     Atom            X                  Y                   Z
    ------   -----------------  -----------------  -----------------
       1        0.000034471558    -0.000015731451     0.000028865093
       2       -0.000024346354     0.000012454743     0.000010412469
       3       -0.000046589581     0.000012564838    -0.000044273196
       4        0.000026210025     0.000027291531    -0.000023012917
       5       -0.002826720551     0.004385915487    -0.001481346237
       6       -0.000005956813     0.000000948179     0.000006046161
       7        0.000001741133    -0.000010243338     0.000007349255
       8        0.002528745280    -0.003969137388     0.002656423686
       9        0.001987054930    -0.003080848995     0.000804408551
      10       -0.000014817798    -0.000010065125     0.000009686444
      11        0.000021656541    -0.000043171036     0.000007298895
      12       -0.001690223458     0.002664794718    -0.002003152306
      13        0.000005279075     0.000018638027     0.000008312918
      14        0.000002107951     0.000000662556     0.000003712875
      15       -0.000019539800    -0.000000163820    -0.000000444713
      16        0.000002135552     0.000005574593    -0.000004033141
      17        0.000009618164    -0.000003321994     0.000015132830
      18       -0.000001110651    -0.000000896033    -0.000001067674
      19        0.000009258995     0.000004669437    -0.000000132702
      20        0.000001025804     0.000000065069    -0.000000186292

  **** Optimization is complete! (in 5 steps) ****
    Final optimized geometry and variables:
    Molecular point group: c1

    Geometry (in Angstrom), charge = 0, multiplicity = 1:

    O            1.315234742854     1.159504736308    -0.434253549063
    C            1.081597589526     0.201788463252     0.221071326297
    C           -0.211563709789    -0.572552055030     0.209625198729
    O            1.949502761732    -0.323776709634     1.070243888432
    C           -1.255681344626    -0.012833198892    -0.749385940192
    H            0.032262963601    -1.601674629908    -0.033900946995
    H           -0.583844054693    -0.590975844676     1.228653061847
    C           -2.544418907207    -0.854623410578    -0.766908838402
    H           -0.816431323999     0.014431896001    -1.738392743740
    H           -1.473767340649     1.011429937768    -0.474977930508
    C           -3.809463868665    -0.001490695975    -0.827029069683
    H           -2.538773216946    -1.504734845118    -1.635331039772
    H           -2.590991865098    -1.494974104111     0.107784596390
    H           -3.804004974216     0.641089987441    -1.701094348676
    H           -4.698714536042    -0.619675263712    -0.875749040053
    H           -3.893704464964     0.634796608123     0.047618336738
    C            3.209517290194     0.306092490515     1.183495254473
    H            3.726237945103     0.298585582711     0.235238573355
    H            3.762429901874    -0.263103735245     1.913008805312
    H            3.096807060248     1.327628579123     1.515165094224

  Mulliken Charges: (a.u.)
   Center  Symbol    Alpha    Beta     Spin     Total
       1     O     4.19676  4.19676  0.00000 -0.39352
       2     C     2.80797  2.80797  0.00000  0.38407
       3     C     3.10056  3.10056  0.00000 -0.20112
       4     O     4.14689  4.14689  0.00000 -0.29378
       5     C     3.08562  3.08562  0.00000 -0.17125
       6     H     0.43887  0.43887  0.00000  0.12227
       7     H     0.44018  0.44018  0.00000  0.11963
       8     C     3.08840  3.08840  0.00000 -0.17679
       9     H     0.44461  0.44461  0.00000  0.11078
      10     H     0.44640  0.44640  0.00000  0.10720
      11     C     3.14738  3.14738  0.00000 -0.29477
      12     H     0.45128  0.45128  0.00000  0.09744
      13     H     0.45563  0.45563  0.00000  0.08874
      14     H     0.45247  0.45247  0.00000  0.09505
      15     H     0.44960  0.44960  0.00000  0.10079
      16     H     0.45568  0.45568  0.00000  0.08863
      17     C     3.03767  3.03767  0.00000 -0.07534
      18     H     0.45434  0.45434  0.00000  0.09132
      19     H     0.44531  0.44531  0.00000  0.10938
      20     H     0.45436  0.45436  0.00000  0.09127

   Total alpha = 32.00000, Total beta = 32.00000, Total charge = -0.00000
