  ==> Input File <==

--------------------------------------------------------------------------
set {
	reference rhf
	basis 6-31G*
}

set_num_threads( 4 )
memory 2 gb

molecule MOL {
0 1

H	 1.136379	 0.211822	 1.465562
C	 1.135357	 0.094285	 0.374742
C	 0.065331	 0.871482	 -0.349150
O	 1.941633	 -0.601957	 -0.151457
C	 -0.930326	 -0.042099	 -1.078202
H	 0.546867	 1.559702	 -1.034269
H	 -0.467101	 1.458920	 0.397572
C	 -0.304670	 -0.810264	 -2.243063
H	 -1.750816	 0.566379	 -1.445029
H	 -1.365744	 -0.741763	 -0.367906
H	 0.105728	 -0.128831	 -2.981812
H	 -1.044139	 -1.431960	 -2.737022
H	 0.501795	 -1.457716	 -1.911687

	symmetry c1
}
set optking {
	frozen_dihedral = ("
		6 3 2 4
	")
}

ee = optimize('scf')
oeprop('DIPOLE', 'QUADRUPOLE', 'MULLIKEN_CHARGES')
f=open( 'psi4out.xyz', 'w' )
f.write( "13  " )
f.write( str(ee) + "\n" )
f.write( MOL.save_string_xyz() )
f.close()
--------------------------------------------------------------------------

    Molecular point group: c1
  Charge       = 0
  Multiplicity = 1
  Basis Set: 6-31G*
  Basis Set:
  @DF-RHF Final Energy:  -230.98140840887453
    Total Energy =                       -230.9814084088744153
    Molecular point group: c1
  Basis Set: 6-31G*
  Basis Set:
  Basis Set: 6-31G*
  Basis Set:
  @DF-RHF Final Energy:  -230.98167260922463
    Total Energy =                       -230.9816726092247450
  Basis Set: 6-31G*
  Basis Set:
  Basis Set: 6-31G*
  Basis Set:
  @DF-RHF Final Energy:  -230.98113578524183
    Total Energy =                       -230.9811357852416336
  Basis Set: 6-31G*
  Basis Set:
  Basis Set: 6-31G*
  Basis Set:
  @DF-RHF Final Energy:  -230.98210589091133
    Total Energy =                       -230.9821058909114413
  Basis Set: 6-31G*
  Basis Set:
  Basis Set: 6-31G*
  Basis Set:
  @DF-RHF Final Energy:  -230.98211335238852
    Total Energy =                       -230.9821133523885806
  Basis Set: 6-31G*
  Basis Set:
  Basis Set: 6-31G*
  Basis Set:
  @DF-RHF Final Energy:  -230.98213525957601
    Total Energy =                       -230.9821352595760686
  Basis Set: 6-31G*
  Basis Set:
  Charge       = 0
  Multiplicity = 1
  Basis Set: 6-31G*
  Basis Set:

    Orbital Energies (a.u.)
    -----------------------

    Doubly Occupied:

       1A    -20.564275     2A    -11.328907     3A    -11.236539
       4A    -11.233943     5A    -11.208482     6A     -1.404362
       7A     -1.077809     8A     -0.970269     9A     -0.844361
      10A     -0.778841    11A     -0.680143    12A     -0.649074
      13A     -0.597864    14A     -0.592556    15A     -0.568720
      16A     -0.522462    17A     -0.499742    18A     -0.488323
      19A     -0.478603    20A     -0.407464

  @DF-RHF Final Energy:  -230.98213583470678

   => Energetics <=

    Nuclear Repulsion Energy =            175.7823231317142074
    One-Electron Energy =                -661.2634369589471817
    Two-Electron Energy =                 254.4989779925262496
    DFT Exchange-Correlation Energy =       0.0000000000000000
    Empirical Dispersion Energy =           0.0000000000000000
    PCM Polarization Energy =               0.0000000000000000
    EFP Energy =                            0.0000000000000000
    Total Energy =                       -230.9821358347067530
    Molecular point group: c1
  Basis Set: 6-31G*
  Basis Set:

  -Total Gradient:
     Atom            X                  Y                   Z
    ------   -----------------  -----------------  -----------------
       1       -0.000014202962     0.000002574029    -0.000011139083
       2        0.000533983843     0.000778400147    -0.000004294365
       3       -0.000201421710    -0.000798851911    -0.000442117510
       4       -0.000403021253    -0.000472110286     0.000019643678
       5        0.000012919445     0.000034957875    -0.000009075739
       6        0.000011555891     0.000394436053     0.000381850955
       7       -0.000038703897     0.000011767415    -0.000003526178
       8        0.000049103779     0.000011867769     0.000025594478
       9        0.000014628120     0.000045495455     0.000029152034
      10        0.000021084019     0.000008730510     0.000016337507
      11        0.000000325457    -0.000024271376     0.000001843441
      12       -0.000006240013    -0.000007655700     0.000023769846
      13        0.000019989276     0.000014660021    -0.000028039062

  **** Optimization is complete! (in 7 steps) ****
    Final optimized geometry and variables:
    Molecular point group: c1

    Geometry (in Angstrom), charge = 0, multiplicity = 1:

    H            0.744335155531     0.391080901160     2.198545453945
    C            0.743811092851     0.230670432564     1.114891591662
    C           -0.316145041296     0.975935209928     0.332195177047
    O            1.545238374261    -0.500676775541     0.627831013964
    C           -1.307555795313     0.051986584360    -0.399165917754
    H            0.189614704605     1.616951264953    -0.385542333627
    H           -0.857787456979     1.623307616759     1.015068923845
    C           -0.717624897081    -0.678964916979    -1.604682954669
    H           -2.144787886058     0.662499891821    -0.724591405153
    H           -1.714322888707    -0.668796892016     0.306173319728
    H           -0.351756457686     0.028809357442    -2.343089015285
    H           -1.476181119621    -1.292223270582    -2.081320075807
    H            0.108164745683    -1.317048188564    -1.320107678491

  Mulliken Charges: (a.u.)
   Center  Symbol    Alpha    Beta     Spin     Total
       1     H     0.42681  0.42681  0.00000  0.14639
       2     C     2.84460  2.84460  0.00000  0.31079
       3     C     3.20325  3.20325  0.00000 -0.40650
       4     O     4.23518  4.23518  0.00000 -0.47035
       5     C     3.15682  3.15682  0.00000 -0.31363
       6     H     0.40075  0.40075  0.00000  0.19851
       7     H     0.41468  0.41468  0.00000  0.17063
       8     C     3.24250  3.24250  0.00000 -0.48501
       9     H     0.41515  0.41515  0.00000  0.16971
      10     H     0.41793  0.41793  0.00000  0.16415
      11     H     0.42211  0.42211  0.00000  0.15577
      12     H     0.42052  0.42052  0.00000  0.15896
      13     H     0.39970  0.39970  0.00000  0.20059

   Total alpha = 20.00000, Total beta = 20.00000, Total charge = -0.00000
