  ==> Input File <==

--------------------------------------------------------------------------
set {
	reference rhf
	basis 6-31G*
}

set_num_threads( 4 )
memory 2 gb

molecule MOL {
0 1

H	 -2.604828	 -0.038787	 -0.655291
O	 -2.035884	 -0.060112	 0.102722
C	 -0.955155	 0.788182	 -0.092531
C	 0.353668	 0.040312	 -0.004810
H	 -0.985057	 1.290372	 -1.054184
H	 -0.974469	 1.533190	 0.688632
F	 0.394464	 -0.937475	 -0.903053
F	 1.368604	 0.853376	 -0.249821
F	 0.546173	 -0.502608	 1.179981

	symmetry c1
}
set optking {
	frozen_dihedral = ("
		1 2 3 5
	")
}

ee = optimize('scf')
oeprop('DIPOLE', 'QUADRUPOLE', 'MULLIKEN_CHARGES')
f=open( 'psi4out.xyz', 'w' )
f.write( "9  " )
f.write( str(ee) + "\n" )
f.write( MOL.save_string_xyz() )
f.close()
--------------------------------------------------------------------------

    Molecular point group: c1
  Charge       = 0
  Multiplicity = 1
  Basis Set: 6-31G*
  Basis Set:
  @DF-RHF Final Energy:  -450.65919949253157
    Total Energy =                       -450.6591994925313429
    Molecular point group: c1
  Basis Set: 6-31G*
  Basis Set:
  Basis Set: 6-31G*
  Basis Set:
  @DF-RHF Final Energy:  -450.65981125596545
    Total Energy =                       -450.6598112559655078
  Basis Set: 6-31G*
  Basis Set:
  Basis Set: 6-31G*
  Basis Set:
  @DF-RHF Final Energy:  -450.65997494640220
    Total Energy =                       -450.6599749464018601
  Basis Set: 6-31G*
  Basis Set:
  Basis Set: 6-31G*
  Basis Set:
  @DF-RHF Final Energy:  -450.65998105943908
    Total Energy =                       -450.6599810594389623
  Basis Set: 6-31G*
  Basis Set:
  Charge       = 0
  Multiplicity = 1
  Basis Set: 6-31G*
  Basis Set:

    Orbital Energies (a.u.)
    -----------------------

    Doubly Occupied:

       1A    -26.336958     2A    -26.334294     3A    -26.332935
       4A    -20.589243     5A    -11.494644     6A    -11.310081
       7A     -1.733438     8A     -1.631532     9A     -1.630099
      10A     -1.400928    11A     -1.047240    12A     -0.917839
      13A     -0.824673    14A     -0.822980    15A     -0.787732
      16A     -0.737110    17A     -0.705643    18A     -0.695707
      19A     -0.662030    20A     -0.650610    21A     -0.635249
      22A     -0.632819    23A     -0.596541    24A     -0.532959
      25A     -0.478548

  @DF-RHF Final Energy:  -450.65998170404032

   => Energetics <=

    Nuclear Repulsion Energy =            276.8459174294662262
    One-Electron Energy =               -1175.9681354085510065
    Two-Electron Energy =                 448.4622362750446314
    DFT Exchange-Correlation Energy =       0.0000000000000000
    Empirical Dispersion Energy =           0.0000000000000000
    PCM Polarization Energy =               0.0000000000000000
    EFP Energy =                            0.0000000000000000
    Total Energy =                       -450.6599817040401490
    Molecular point group: c1
  Basis Set: 6-31G*
  Basis Set:

  -Total Gradient:
     Atom            X                  Y                   Z
    ------   -----------------  -----------------  -----------------
       1       -0.000883630514     0.001220944402     0.000600250110
       2        0.001311594115    -0.001821493254    -0.000949041918
       3       -0.001182573959     0.001650271941     0.000882386724
       4        0.000072108880     0.000158520707     0.000108089856
       5        0.000738958601    -0.001093601944    -0.000539686547
       6        0.000008958803    -0.000018843765    -0.000018771102
       7        0.000001558119     0.000009627669    -0.000008924801
       8       -0.000049961926    -0.000089632884    -0.000039067418
       9       -0.000017012116    -0.000015792871    -0.000035234909

  **** Optimization is complete! (in 5 steps) ****
    Final optimized geometry and variables:
    Molecular point group: c1

    Geometry (in Angstrom), charge = 0, multiplicity = 1:

    H           -2.580390224288    -0.095315652649    -0.625716974481
    O           -2.011422970305    -0.064202359101     0.128088573833
    C           -0.943345130162     0.798780485882    -0.097015111132
    C            0.351754333142     0.027819221744    -0.013279912791
    H           -0.973615894109     1.258497376292    -1.077655162015
    H           -0.921316676407     1.576404478399     0.655331962971
    F            0.418541031710    -0.910518238963    -0.942141996262
    F            1.375923335156     0.850071633511    -0.199405517207
    F            0.510043546830    -0.552936985466     1.158970851760

  Mulliken Charges: (a.u.)
   Center  Symbol    Alpha    Beta     Spin     Total
       1     H     0.27070  0.27070  0.00000  0.45860
       2     O     4.36299  4.36299  0.00000 -0.72598
       3     C     3.05677  3.05677  0.00000 -0.11353
       4     C     2.45540  2.45540  0.00000  1.08920
       5     H     0.40969  0.40969  0.00000  0.18062
       6     H     0.40217  0.40217  0.00000  0.19566
       7     F     4.68104  4.68104  0.00000 -0.36208
       8     F     4.68502  4.68502  0.00000 -0.37004
       9     F     4.67622  4.67622  0.00000 -0.35244

   Total alpha = 25.00000, Total beta = 25.00000, Total charge =  0.00000
