  ==> Input File <==

--------------------------------------------------------------------------
set {
	reference rhf
	basis 6-31G*
}

set_num_threads( 4 )
memory 2 gb

molecule MOL {
0 1

H	 -2.175719	 1.155429	 1.997493
C	 -1.754089	 0.625126	 1.164197
C	 -2.563636	 0.110448	 0.165854
C	 -0.389783	 0.448818	 1.077409
H	 -3.630093	 0.237574	 0.215356
C	 -2.007203	 -0.569972	 -0.900982
H	 0.263231	 0.834375	 1.832191
C	 0.154804	 -0.237046	 -0.000077
H	 -2.652327	 -0.961593	 -1.665536
C	 -0.633803	 -0.769681	 -1.025468
N	 1.611208	 -0.370857	 -0.000034
C	 -0.134219	 -1.528879	 -2.234999
O	 2.274126	 0.622059	 -0.008063
O	 2.068510	 -1.474748	 0.007823
H	 0.400328	 -2.424308	 -1.949350
H	 -0.979348	 -1.810354	 -2.850551
H	 0.542880	 -0.930128	 -2.828428

	symmetry c1
}
set optking {
	frozen_dihedral = ("
		4 8 11 13
	")
}

ee = optimize('scf')
oeprop('DIPOLE', 'QUADRUPOLE', 'MULLIKEN_CHARGES')
f=open( 'psi4out.xyz', 'w' )
f.write( "17  " )
f.write( str(ee) + "\n" )
f.write( MOL.save_string_xyz() )
f.close()
--------------------------------------------------------------------------

    Molecular point group: c1
  Charge       = 0
  Multiplicity = 1
  Basis Set: 6-31G*
  Basis Set:
  @DF-RHF Final Energy:  -473.20162302734389
    Total Energy =                       -473.2016230273438850
    Molecular point group: c1
  Basis Set: 6-31G*
  Basis Set:
  Basis Set: 6-31G*
  Basis Set:
  @DF-RHF Final Energy:  -473.20304529151895
    Total Energy =                       -473.2030452915187198
  Basis Set: 6-31G*
  Basis Set:
  Basis Set: 6-31G*
  Basis Set:
  @DF-RHF Final Energy:  -473.20095199408803
    Total Energy =                       -473.2009519940883138
  Basis Set: 6-31G*
  Basis Set:
  Basis Set: 6-31G*
  Basis Set:
  @DF-RHF Final Energy:  -473.20350914628835
    Total Energy =                       -473.2035091462880700
  Basis Set: 6-31G*
  Basis Set:
  Basis Set: 6-31G*
  Basis Set:
  @DF-RHF Final Energy:  -473.20363702691913
    Total Energy =                       -473.2036370269192957
  Basis Set: 6-31G*
  Basis Set:
  Basis Set: 6-31G*
  Basis Set:
  @DF-RHF Final Energy:  -473.20369068048825
    Total Energy =                       -473.2036906804885348
  Basis Set: 6-31G*
  Basis Set:
  Basis Set: 6-31G*
  Basis Set:
  @DF-RHF Final Energy:  -473.20369332035943
    Total Energy =                       -473.2036933203598892
  Basis Set: 6-31G*
  Basis Set:
  Charge       = 0
  Multiplicity = 1
  Basis Set: 6-31G*
  Basis Set:

    Orbital Energies (a.u.)
    -----------------------

    Doubly Occupied:

       1A    -20.604171     2A    -20.603721     3A    -15.852953
       4A    -11.301527     5A    -11.277986     6A    -11.267548
       7A    -11.260024     8A    -11.255764     9A    -11.254795
      10A    -11.238220    11A     -1.635205    12A     -1.418732
      13A     -1.201899    14A     -1.092131    15A     -1.072888
      16A     -0.979423    17A     -0.934562    18A     -0.852448
      19A     -0.820208    20A     -0.771444    21A     -0.733727
      22A     -0.728684    23A     -0.695373    24A     -0.654845
      25A     -0.636565    26A     -0.599694    27A     -0.596995
      28A     -0.568825    29A     -0.541566    30A     -0.525840
      31A     -0.520676    32A     -0.491051    33A     -0.479712
      34A     -0.449485    35A     -0.365124    36A     -0.353522

  @DF-RHF Final Energy:  -473.20369372998829

   => Energetics <=

    Nuclear Repulsion Energy =            509.9588397712062147
    One-Electron Energy =               -1655.0504022996599360
    Two-Electron Energy =                 671.8878687984653197
    DFT Exchange-Correlation Energy =       0.0000000000000000
    Empirical Dispersion Energy =           0.0000000000000000
    PCM Polarization Energy =               0.0000000000000000
    EFP Energy =                            0.0000000000000000
    Total Energy =                       -473.2036937299884585
    Molecular point group: c1
  Basis Set: 6-31G*
  Basis Set:

  -Total Gradient:
     Atom            X                  Y                   Z
    ------   -----------------  -----------------  -----------------
       1        0.000019988575     0.000006580822     0.000004687679
       2       -0.000106715221    -0.000023101012    -0.000016120371
       3       -0.000008728193     0.000078824894     0.000082789451
       4       -0.000219314305    -0.003124009896     0.001696636639
       5        0.000004799758    -0.000023025519    -0.000006840341
       6        0.000111109802    -0.000019605139    -0.000099912042
       7        0.000007278425     0.000019030591     0.000013239088
       8        0.000383380272     0.004412374584    -0.003999718996
       9       -0.000014640254    -0.000001672583    -0.000004072612
      10       -0.000092752846    -0.000065271841     0.000040669691
      11       -0.000040005875    -0.001292710697     0.006437971965
      12       -0.000035881333     0.000063094179    -0.000055435452
      13       -0.000055226644     0.000028932737    -0.004131568179
      14        0.000033276490    -0.000012869955     0.000001183828
      15        0.000012380713    -0.000035897391     0.000013175357
      16        0.000009789345    -0.000005737478     0.000012920769
      17       -0.000008738708    -0.000004936296     0.000010393528

  **** Optimization is complete! (in 8 steps) ****
    Final optimized geometry and variables:
    Molecular point group: c1

    Geometry (in Angstrom), charge = 0, multiplicity = 1:

    H           -2.125757008636     1.471942640477     2.231707036158
    C           -1.708026875578     0.951875141136     1.389890468146
    C           -2.527885928311     0.423014417927     0.407589143918
    C           -0.337635310804     0.810344116121     1.274801381712
    H           -3.594515298099     0.534362262367     0.480651959612
    C           -1.984260339281    -0.249291784464    -0.674668625560
    H            0.329365017845     1.222951430677     2.007761912051
    C            0.174657967365     0.130354872840     0.188646973617
    H           -2.635690291390    -0.647196246940    -1.431562971943
    C           -0.612489981884    -0.432027943563    -0.806921523450
    N            1.626115415797    -0.038278094547     0.147331522465
    C           -0.041517065799    -1.190055257240    -1.982899463546
    O            2.291412249241     0.952049782782     0.132572518284
    O            2.051071731082    -1.152823352979     0.115644197539
    H            0.293431906542    -2.174783736878    -1.681358205144
    H           -0.795827283834    -1.302433183326    -2.751168771344
    H            0.807032944023    -0.675746447042    -2.418712509100

  Mulliken Charges: (a.u.)
   Center  Symbol    Alpha    Beta     Spin     Total
       1     H     0.38971  0.38971  0.00000  0.22059
       2     C     3.11005  3.11005  0.00000 -0.22010
       3     C     3.08623  3.08623  0.00000 -0.17245
       4     C     3.08284  3.08284  0.00000 -0.16568
       5     H     0.39073  0.39073  0.00000  0.21853
       6     C     3.12084  3.12084  0.00000 -0.24168
       7     H     0.37439  0.37439  0.00000  0.25121
       8     C     2.91435  2.91435  0.00000  0.17131
       9     H     0.39270  0.39270  0.00000  0.21460
      10     C     2.96595  2.96595  0.00000  0.06809
      11     N     3.26414  3.26414  0.00000  0.47172
      12     C     3.25161  3.25161  0.00000 -0.50323
      13     O     4.22489  4.22489  0.00000 -0.44978
      14     O     4.22650  4.22650  0.00000 -0.45300
      15     H     0.39182  0.39182  0.00000  0.21635
      16     H     0.41035  0.41035  0.00000  0.17930
      17     H     0.40289  0.40289  0.00000  0.19423

   Total alpha = 36.00000, Total beta = 36.00000, Total charge =  0.00000
