  ==> Input File <==

--------------------------------------------------------------------------
set {
	reference rhf
	basis cc-pvtz
}

set_num_threads( 4 )
memory 2 gb

molecule MOL {
0 1

H	 2.681274	 -5.736384	 0.092876
C	 2.512042	 -4.677556	 0.073952
C	 1.220400	 -4.170830	 0.047090
C	 3.570791	 -3.799534	 0.075897
H	 0.381550	 -4.840800	 0.045150
C	 0.999028	 -2.814944	 0.022789
H	 4.577264	 -4.172732	 0.096492
C	 3.365073	 -2.427128	 0.051570
H	 0.005125	 -2.413207	 0.001935
C	 2.074096	 -1.932411	 0.024903
H	 4.210148	 -1.770391	 0.053806
O	 1.760432	 -0.625184	 0.000000
C	 2.773565	 0.334879	 0.000000
H	 2.728295	 0.960928	 -0.884150
H	 3.706387	 -0.206610	 0.000000
H	 2.728295	 0.960928	 0.884150

	symmetry c1
}
set optking {
	frozen_dihedral = ("
		10 12 13 14
	")
}

ee = optimize('scf')
oeprop('DIPOLE', 'QUADRUPOLE', 'MULLIKEN_CHARGES')
f=open( 'psi4out.xyz', 'w' )
f.write( "16  " )
f.write( str(ee) + "\n" )
f.write( MOL.save_string_xyz() )
f.close()
--------------------------------------------------------------------------

    Molecular point group: c1
  Charge       = 0
  Multiplicity = 1
  Basis Set: CC-PVTZ
  Basis Set:
  @DF-RHF Final Energy:  -344.69281982628866
    Total Energy =                       -344.6928198262885417
    Molecular point group: c1
  Basis Set: CC-PVTZ
  Basis Set:
  Basis Set: CC-PVTZ
  Basis Set:
  @DF-RHF Final Energy:  -344.69178118077974
    Total Energy =                       -344.6917811807802536
  Basis Set: CC-PVTZ
  Basis Set:
  Basis Set: CC-PVTZ
  Basis Set:
  @DF-RHF Final Energy:  -344.69737023570048
    Total Energy =                       -344.6973702357004754
  Basis Set: CC-PVTZ
  Basis Set:
  Basis Set: CC-PVTZ
  Basis Set:
  @DF-RHF Final Energy:  -344.69791433999001
    Total Energy =                       -344.6979143399901204
  Basis Set: CC-PVTZ
  Basis Set:
  @DF-RHF Final Energy:  -344.69794210004090
    Total Energy =                       -344.6979421000409047
  @DF-RHF Final Energy:  -344.69795107719006
    Total Energy =                       -344.6979510771899413
  @DF-RHF Final Energy:  -344.69795269219514
    Total Energy =                       -344.6979526921950310
  @DF-RHF Final Energy:  -344.69796325877076
    Total Energy =                       -344.6979632587708693
  @DF-RHF Final Energy:  -344.69769548070872
    Total Energy =                       -344.6976954807089442
  @DF-RHF Final Energy:  -344.42711913762827
    Total Energy =                       -344.4271191376284378
  @DF-RHF Final Energy:  -344.63459233015811
    Total Energy =                       -344.6345923301581706
  @DF-RHF Final Energy:  -344.54877978048722
    Total Energy =                       -344.5487797804872230
  @DF-RHF Final Energy:  -344.68331470732710
    Total Energy =                       -344.6833147073270425
  @DF-RHF Final Energy:  -344.65476056423574
    Total Energy =                       -344.6547605642355734
  @DF-RHF Final Energy:  -344.69736668238136
    Total Energy =                       -344.6973666823812437
  @DF-RHF Final Energy:  -344.66052307284247
    Total Energy =                       -344.6605230728422384
  @DF-RHF Final Energy:  -344.69800700409576
    Total Energy =                       -344.6980070040959845
  @DF-RHF Final Energy:  -344.66125898308115
    Total Energy =                       -344.6612589830807565
  @DF-RHF Final Energy:  -344.69030052903679
    Total Energy =                       -344.6903005290368469
  @DF-RHF Final Energy:  -344.68230151379180
    Total Energy =                       -344.6823015137917992
  @DF-RHF Final Energy:  -344.69601948253614
    Total Energy =                       -344.6960194825364852
  @DF-RHF Final Energy:  -344.67831680442617
    Total Energy =                       -344.6783168044262311
  @DF-RHF Final Energy:  -344.69609187417393
    Total Energy =                       -344.6960918741739306
  @DF-RHF Final Energy:  -344.68016245253057
    Total Energy =                       -344.6801624525304533
  @DF-RHF Final Energy:  -344.68994942008447
    Total Energy =                       -344.6899494200844174
  @DF-RHF Final Energy:  -344.69771355435131
    Total Energy =                       -344.6977135543512532
  @DF-RHF Final Energy:  -344.69854293160796
    Total Energy =                       -344.6985429316080740
  @DF-RHF Final Energy:  -344.69860257858193
    Total Energy =                       -344.6986025785818128
  @DF-RHF Final Energy:  -344.69863229466978
    Total Energy =                       -344.6986322946697783
  @DF-RHF Final Energy:  -344.69876042764315
    Total Energy =                       -344.6987604276432080
  @DF-RHF Final Energy:  -344.69902141119553
    Total Energy =                       -344.6990214111953037
  Basis Set: CC-PVTZ
  Basis Set:
  @DF-RHF Final Energy:  -344.69918939875618
    Total Energy =                       -344.6991893987564026
  Basis Set: CC-PVTZ
  Basis Set:
  Basis Set: CC-PVTZ
  Basis Set:
  @DF-RHF Final Energy:  -344.69921830027425
    Total Energy =                       -344.6992183002740262
  Basis Set: CC-PVTZ
  Basis Set:
  Basis Set: CC-PVTZ
  Basis Set:
  @DF-RHF Final Energy:  -344.69929064243473
    Total Energy =                       -344.6992906424345051
  Basis Set: CC-PVTZ
  Basis Set:
  Charge       = 0
  Multiplicity = 1
  Basis Set: CC-PVTZ
  Basis Set:

    Orbital Energies (a.u.)
    -----------------------

    Doubly Occupied:

       1A    -20.571950     2A    -11.291145     3A    -11.276610
       4A    -11.231592     5A    -11.230186     6A    -11.222972
       7A    -11.219236     8A    -11.218977     9A     -1.410498
      10A     -1.151405    11A     -1.023561    12A     -1.017474
      13A     -0.940844    14A     -0.836252    15A     -0.808853
      16A     -0.722228    17A     -0.667530    18A     -0.666687
      19A     -0.650852    20A     -0.617098    21A     -0.594045
      22A     -0.584612    23A     -0.529553    24A     -0.516642
      25A     -0.510968    26A     -0.484903    27A     -0.452810
      28A     -0.339518    29A     -0.314395

  @DF-RHF Final Energy:  -344.69929689865461

   => Energetics <=

    Nuclear Repulsion Energy =            348.2867208775974746
    One-Electron Energy =               -1157.7652475003128529
    Two-Electron Energy =                 464.7792297240607695
    DFT Exchange-Correlation Energy =       0.0000000000000000
    Empirical Dispersion Energy =           0.0000000000000000
    PCM Polarization Energy =               0.0000000000000000
    EFP Energy =                            0.0000000000000000
    Total Energy =                       -344.6992968986546657
    Molecular point group: c1
  Basis Set: CC-PVTZ
  Basis Set:

  -Total Gradient:
     Atom            X                  Y                   Z
    ------   -----------------  -----------------  -----------------
       1        0.000020012990     0.000006530483     0.000000926705
       2       -0.000160457751    -0.000045863976     0.000032710371
       3        0.000116702819    -0.000107142930    -0.000005367582
       4        0.000053846728     0.000153997475    -0.000040283866
       5       -0.000011965886     0.000015199870    -0.000003526854
       6        0.000064368358     0.000118874561     0.000001180088
       7       -0.000000552923    -0.000014581858     0.000002215736
       8        0.000139644351    -0.000156175246    -0.000006573395
       9       -0.000011242591    -0.000008032265    -0.000004086567
      10       -0.000977562954     0.000099253550     0.001011455005
      11       -0.000022174474    -0.000023625460     0.000010704974
      12        0.000921346617     0.000159677514    -0.001479030042
      13        0.001059561881    -0.001137876235     0.000400534536
      14       -0.001165973758     0.000901995766     0.000079212083
      15       -0.000026348431     0.000026146813    -0.000001134323
      16        0.000000795022     0.000011621945     0.000001063131

  **** Optimization is complete! (in 35 steps) ****
    Final optimized geometry and variables:
    Molecular point group: c1

    Geometry (in Angstrom), charge = 0, multiplicity = 1:

    H            0.349391923350    -3.308525355611     0.326069584007
    C            0.199406463269    -2.254724678363     0.194029822202
    C           -1.072681079143    -1.714234106529     0.253524780153
    C            1.272825210375    -1.420452569056    -0.043766053712
    H           -1.918254649641    -2.350356342561     0.434699261641
    C           -1.268701862384    -0.358858005980     0.089090964875
    H            2.264756297961    -1.826652892778    -0.104255648349
    C            1.088504319379    -0.060943212692    -0.219578918921
    H           -2.250235551464     0.070322848912     0.135021367471
    C           -0.186634840921     0.473916225418    -0.144363304015
    H            1.929693139789     0.570163285365    -0.428337596722
    O           -0.446863638558     1.782729843522    -0.345505572745
    C            0.383328803202     2.768070592503     0.211187143209
    H            0.806826941199     3.372899438101    -0.579952332880
    H            1.178125242576     2.342301507255     0.806345929797
    H           -0.222053636302     3.404148453019     0.844030237415

  Mulliken Charges: (a.u.)
   Center  Symbol    Alpha    Beta     Spin     Total
       1     H     0.42412  0.42412  0.00000  0.15177
       2     C     3.09604  3.09604  0.00000 -0.19208
       3     C     3.06087  3.06087  0.00000 -0.12174
       4     C     3.06522  3.06522  0.00000 -0.13043
       5     H     0.42271  0.42271  0.00000  0.15458
       6     C     3.11186  3.11186  0.00000 -0.22373
       7     H     0.42278  0.42278  0.00000  0.15444
       8     C     3.12629  3.12629  0.00000 -0.25259
       9     H     0.41892  0.41892  0.00000  0.16215
      10     C     2.85631  2.85631  0.00000  0.28738
      11     H     0.42321  0.42321  0.00000  0.15359
      12     O     4.16723  4.16723  0.00000 -0.33446
      13     C     3.03773  3.03773  0.00000 -0.07545
      14     H     0.45260  0.45260  0.00000  0.09480
      15     H     0.46436  0.46436  0.00000  0.07129
      16     H     0.44975  0.44975  0.00000  0.10049

   Total alpha = 29.00000, Total beta = 29.00000, Total charge = -0.00000
