  ==> Input File <==

--------------------------------------------------------------------------
set {
	reference rhf
	basis cc-pvtz
}

set_num_threads( 4 )
memory 2 gb

molecule MOL {
0 1

H	 -3.162190	 0.493205	 -0.000107
C	 -2.363908	 -0.234727	 0.000005
O	 -1.158738	 0.454634	 -0.000087
H	 -2.464314	 -0.863616	 -0.882153
H	 -2.464327	 -0.863359	 0.882345
C	 -0.774624	 0.944350	 -1.246262
C	 0.547993	 1.671491	 -1.110822
H	 -1.537182	 1.620506	 -1.633502
H	 -0.681055	 0.123653	 -1.957840
C	 1.038693	 2.239650	 -2.437758
H	 0.431624	 2.467601	 -0.383779
H	 1.280945	 0.982634	 -0.705593
H	 0.330270	 2.950755	 -2.849528
H	 1.983932	 2.753221	 -2.312110
H	 1.185551	 1.455848	 -3.173390

	symmetry c1
}
set optking {
	frozen_dihedral = ("
		6 3 2 4
	")
}

ee = optimize('scf')
oeprop('DIPOLE', 'QUADRUPOLE', 'MULLIKEN_CHARGES')
f=open( 'psi4out.xyz', 'w' )
f.write( "15  " )
f.write( str(ee) + "\n" )
f.write( MOL.save_string_xyz() )
f.close()
--------------------------------------------------------------------------

    Molecular point group: c1
  Charge       = 0
  Multiplicity = 1
  Basis Set: CC-PVTZ
  Basis Set:
  @DF-RHF Final Energy:  -232.22641398356990
    Total Energy =                       -232.2264139835699552
    Molecular point group: c1
  Basis Set: CC-PVTZ
  Basis Set:
  Basis Set: CC-PVTZ
  Basis Set:
  @DF-RHF Final Energy:  -232.22712059546109
    Total Energy =                       -232.2271205954612583
  Basis Set: CC-PVTZ
  Basis Set:
  Basis Set: CC-PVTZ
  Basis Set:
  @DF-RHF Final Energy:  -232.22728192790311
    Total Energy =                       -232.2272819279030500
  Basis Set: CC-PVTZ
  Basis Set:
  Charge       = 0
  Multiplicity = 1
  Basis Set: CC-PVTZ
  Basis Set:

    Orbital Energies (a.u.)
    -----------------------

    Doubly Occupied:

       1A    -20.546654     2A    -11.264603     3A    -11.261681
       4A    -11.212652     5A    -11.210677     6A     -1.380713
       7A     -1.058389     8A     -0.956119     9A     -0.877433
      10A     -0.809577    11A     -0.675988    12A     -0.655667
      13A     -0.632517    14A     -0.608059    15A     -0.565186
      16A     -0.541646    17A     -0.503530    18A     -0.490818
      19A     -0.478515    20A     -0.462859    21A     -0.414989

  @DF-RHF Final Energy:  -232.22728313436545

   => Energetics <=

    Nuclear Repulsion Energy =            189.9392691940441296
    One-Electron Energy =                -691.1165611457261093
    Two-Electron Energy =                 268.9500088173168706
    DFT Exchange-Correlation Energy =       0.0000000000000000
    Empirical Dispersion Energy =           0.0000000000000000
    PCM Polarization Energy =               0.0000000000000000
    EFP Energy =                            0.0000000000000000
    Total Energy =                       -232.2272831343651092
    Molecular point group: c1
  Basis Set: CC-PVTZ
  Basis Set:

  -Total Gradient:
     Atom            X                  Y                   Z
    ------   -----------------  -----------------  -----------------
       1        0.000025939662     0.000023229122     0.000002598955
       2        0.001731900078    -0.003105206493     0.001325020168
       3       -0.001678850317     0.002979350070     0.000259840165
       4       -0.001008073529     0.001904763027    -0.001213620977
       5        0.000072927730     0.000024319222    -0.000000829553
       6        0.000913176476    -0.001796627374    -0.000515213694
       7       -0.000009903645    -0.000015400069     0.000083682357
       8       -0.000003057766    -0.000009489596     0.000056420325
       9       -0.000007848265    -0.000003443099    -0.000021149068
      10       -0.000050806893    -0.000008321891    -0.000001550644
      11        0.000020656525     0.000017419103     0.000005906107
      12        0.000001895625    -0.000002673492     0.000006292563
      13        0.000000306357     0.000002980818    -0.000009195241
      14       -0.000009666004    -0.000007776083     0.000018954388
      15        0.000001403963    -0.000003123264     0.000002844150

  **** Optimization is complete! (in 4 steps) ****
    Final optimized geometry and variables:
    Molecular point group: c1

    Geometry (in Angstrom), charge = 0, multiplicity = 1:

    H           -2.639510882994    -0.533706275197     0.982782404973
    C           -1.801189733071    -1.226950880241     0.955800638550
    O           -0.588590998777    -0.548109392972     0.947093817808
    H           -1.917466303105    -1.851251986932     0.073322752752
    H           -1.835676345833    -1.848369386618     1.839021523059
    C           -0.203029989945    -0.052703872750    -0.296478778519
    C            1.119037382799     0.674132393473    -0.154284319649
    H           -0.963094770144     0.626209088709    -0.684667049446
    H           -0.107724222578    -0.871181251907    -1.009701668273
    C            1.617124086085     1.240464100769    -1.479312751503
    H            0.999673227977     1.471286275962     0.571199948440
    H            1.849209115986    -0.014966848757     0.255745818156
    H            0.911090912247     1.951112463413    -1.896072204301
    H            2.561799051907     1.754100910868    -1.349165248528
    H            1.767961522602     0.455518292899    -2.213004424923

  Mulliken Charges: (a.u.)
   Center  Symbol    Alpha    Beta     Spin     Total
       1     H     0.46771  0.46771  0.00000  0.06459
       2     C     3.03246  3.03246  0.00000 -0.06491
       3     O     4.17279  4.17279  0.00000 -0.34559
       4     H     0.47438  0.47438  0.00000  0.05125
       5     H     0.44846  0.44846  0.00000  0.10309
       6     C     2.95606  2.95606  0.00000  0.08788
       7     C     3.08076  3.08076  0.00000 -0.16151
       8     H     0.47695  0.47695  0.00000  0.04610
       9     H     0.47446  0.47446  0.00000  0.05107
      10     C     3.15581  3.15581  0.00000 -0.31162
      11     H     0.45099  0.45099  0.00000  0.09802
      12     H     0.45118  0.45118  0.00000  0.09764
      13     H     0.45583  0.45583  0.00000  0.08835
      14     H     0.44626  0.44626  0.00000  0.10748
      15     H     0.45592  0.45592  0.00000  0.08817

   Total alpha = 21.00000, Total beta = 21.00000, Total charge =  0.00000
