  ==> Input File <==

--------------------------------------------------------------------------
set {
	reference rhf
	basis 6-31G*
}

set_num_threads( 4 )
memory 2 gb

molecule MOL {
0 1

H	 2.990423	 -1.531190	 -0.738763
O	 2.826016	 -1.159218	 0.122261
C	 2.077727	 -0.067559	 -0.035091
C	 0.624473	 -0.343591	 0.253101
O	 2.542965	 0.974826	 -0.363729
C	 -0.265902	 0.883932	 0.072916
H	 0.324016	 -1.163849	 -0.390541
H	 0.565024	 -0.726111	 1.268924
C	 -1.728698	 0.646073	 0.462102
H	 -0.209144	 1.219470	 -0.958188
H	 0.135059	 1.692851	 0.673903
C	 -2.482460	 -0.343073	 -0.431425
H	 -2.245265	 1.602650	 0.432430
H	 -1.779332	 0.308348	 1.496285
C	 -3.960546	 -0.461025	 -0.060175
H	 -2.395034	 -0.026811	 -1.468912
H	 -2.024850	 -1.327147	 -0.371646
H	 -4.472726	 -1.168004	 -0.705284
H	 -4.465146	 0.496508	 -0.151489
H	 -4.081218	 -0.800940	 0.964585

	symmetry c1
}
set optking {
	frozen_dihedral = ("
		1 2 3 5
	")
}

ee = optimize('scf')
oeprop('DIPOLE', 'QUADRUPOLE', 'MULLIKEN_CHARGES')
f=open( 'psi4out.xyz', 'w' )
f.write( "20  " )
f.write( str(ee) + "\n" )
f.write( MOL.save_string_xyz() )
f.close()
--------------------------------------------------------------------------

    Molecular point group: c1
  Charge       = 0
  Multiplicity = 1
  Basis Set: 6-31G*
  Basis Set:
  @DF-RHF Final Energy:  -383.92685436265799
    Total Energy =                       -383.9268543626583323
    Molecular point group: c1
  Basis Set: 6-31G*
  Basis Set:
  Basis Set: 6-31G*
  Basis Set:
  @DF-RHF Final Energy:  -383.92656037757212
    Total Energy =                       -383.9265603775721729
  Basis Set: 6-31G*
  Basis Set:
  Basis Set: 6-31G*
  Basis Set:
  @DF-RHF Final Energy:  -383.92772038159137
    Total Energy =                       -383.9277203815913708
  Basis Set: 6-31G*
  Basis Set:
  Basis Set: 6-31G*
  Basis Set:
  @DF-RHF Final Energy:  -383.92858112508628
    Total Energy =                       -383.9285811250865663
  Basis Set: 6-31G*
  Basis Set:
  Basis Set: 6-31G*
  Basis Set:
  @DF-RHF Final Energy:  -383.92858908836905
    Total Energy =                       -383.9285890883690513
  Basis Set: 6-31G*
  Basis Set:
  Basis Set: 6-31G*
  Basis Set:
  @DF-RHF Final Energy:  -383.92858783581113
    Total Energy =                       -383.9285878358114132
  Basis Set: 6-31G*
  Basis Set:
  Basis Set: 6-31G*
  Basis Set:
  @DF-RHF Final Energy:  -383.92858971781925
    Total Energy =                       -383.9285897178189089
  Basis Set: 6-31G*
  Basis Set:
  Charge       = 0
  Multiplicity = 1
  Basis Set: 6-31G*
  Basis Set:

    Orbital Energies (a.u.)
    -----------------------

    Doubly Occupied:

       1A    -20.594187     2A    -20.561984     3A    -11.381313
       4A    -11.241317     5A    -11.223792     6A    -11.222272
       7A    -11.221382     8A    -11.213778     9A     -1.460071
      10A     -1.366589    11A     -1.096684    12A     -1.040563
      13A     -0.959166    14A     -0.865814    15A     -0.816406
      16A     -0.780643    17A     -0.709359    18A     -0.676750
      19A     -0.663419    20A     -0.632130    21A     -0.616566
      22A     -0.587176    23A     -0.560648    24A     -0.553440
      25A     -0.531828    26A     -0.506841    27A     -0.505370
      28A     -0.489600    29A     -0.470837    30A     -0.465898
      31A     -0.458632    32A     -0.443191

  @DF-RHF Final Energy:  -383.92858985791321

   => Energetics <=

    Nuclear Repulsion Energy =            375.0642955397336777
    One-Electron Energy =               -1266.1504769004641275
    Two-Electron Energy =                 507.1575915028170130
    DFT Exchange-Correlation Energy =       0.0000000000000000
    Empirical Dispersion Energy =           0.0000000000000000
    PCM Polarization Energy =               0.0000000000000000
    EFP Energy =                            0.0000000000000000
    Total Energy =                       -383.9285898579134937
    Molecular point group: c1
  Basis Set: 6-31G*
  Basis Set:

  -Total Gradient:
     Atom            X                  Y                   Z
    ------   -----------------  -----------------  -----------------
       1       -0.004832126907    -0.003454805108     0.000212451504
       2        0.006254741038     0.004922156136     0.002031018384
       3       -0.001822189760    -0.002762285814    -0.007276070792
       4       -0.000003257128    -0.000006795551    -0.000015303187
       5        0.000402928347     0.001301529205     0.005040596673
       6        0.000001496367    -0.000003357727     0.000006475283
       7        0.000001614869     0.000000406117     0.000003041618
       8        0.000000896169    -0.000001500677     0.000004130523
       9       -0.000001434767     0.000003516233    -0.000006165400
      10       -0.000002047409     0.000002620838    -0.000001854766
      11        0.000000431993     0.000000798322    -0.000000310728
      12       -0.000000738162     0.000000540063     0.000002512033
      13       -0.000002135405    -0.000000893081     0.000001071270
      14        0.000002318886    -0.000000755684    -0.000002489721
      15       -0.000000491839    -0.000002220165     0.000000288758
      16        0.000002843489     0.000001497597     0.000002172737
      17       -0.000002112165    -0.000000847074    -0.000000747066
      18       -0.000000685286    -0.000000739739     0.000000542937
      19        0.000000134608    -0.000000126088    -0.000001438509
      20       -0.000000186948     0.000001262198     0.000000078449

  **** Optimization is complete! (in 8 steps) ****
    Final optimized geometry and variables:
    Molecular point group: c1

    Geometry (in Angstrom), charge = 0, multiplicity = 1:

    H            3.129672890638    -1.568201508241    -0.653489603895
    O            2.870528526472    -1.155612580973     0.161632097997
    C            2.082252620670    -0.066341002696    -0.058070010420
    C            0.627501885687    -0.335787855968     0.234221844052
    O            2.536686162549     0.978572309722    -0.365395785520
    C           -0.267145720071     0.890748284029     0.073235420735
    H            0.318399922018    -1.153514326727    -0.411017890324
    H            0.578573885399    -0.730826641156     1.246113414935
    C           -1.726609792196     0.648560757896     0.472502655709
    H           -0.220029053229     1.237681585579    -0.954916944699
    H            0.138627530833     1.693693656367     0.679049568268
    C           -2.488074298097    -0.331339435513    -0.424677622568
    H           -2.243786549657     1.605113679548     0.457422229204
    H           -1.767975874789     0.299931055161     1.503374809414
    C           -3.962990403081    -0.453239587946    -0.042278794401
    H           -2.409523836171    -0.004472161847    -1.459686766008
    H           -2.030087871437    -1.316105782117    -0.378614812890
    H           -4.480666792339    -1.153891186710    -0.689925094925
    H           -4.468261209519     0.505101321224    -0.119953056279
    H           -4.074919211496    -0.803113714819     0.980072307687

  Mulliken Charges: (a.u.)
   Center  Symbol    Alpha    Beta     Spin     Total
       1     H     0.26597  0.26597  0.00000  0.46807
       2     O     4.37001  4.37001  0.00000 -0.74002
       3     C     2.63000  2.63000  0.00000  0.73999
       4     C     3.21128  3.21128  0.00000 -0.42256
       5     O     4.24736  4.24736  0.00000 -0.49471
       6     C     3.15479  3.15479  0.00000 -0.30959
       7     H     0.40669  0.40669  0.00000  0.18663
       8     H     0.39735  0.39735  0.00000  0.20530
       9     C     3.15543  3.15543  0.00000 -0.31087
      10     H     0.41396  0.41396  0.00000  0.17207
      11     H     0.40704  0.40704  0.00000  0.18593
      12     C     3.15468  3.15468  0.00000 -0.30936
      13     H     0.41765  0.41765  0.00000  0.16471
      14     H     0.42310  0.42310  0.00000  0.15381
      15     C     3.23920  3.23920  0.00000 -0.47840
      16     H     0.42204  0.42204  0.00000  0.15593
      17     H     0.42363  0.42363  0.00000  0.15274
      18     H     0.41852  0.41852  0.00000  0.16297
      19     H     0.42034  0.42034  0.00000  0.15933
      20     H     0.42098  0.42098  0.00000  0.15804

   Total alpha = 32.00000, Total beta = 32.00000, Total charge = -0.00000
