                              Psi4 1.0.54 Driver

  ==> Input File <==

--------------------------------------------------------------------------
set {
	reference rhf
	basis cc-pvtz
}

set_num_threads( 4 )
memory 2 gb

molecule MOL {
0 1

H	 3.636829	 -0.896940	 0.540378
O	 2.824271	 -1.154299	 0.131461
C	 2.076458	 -0.067370	 -0.038225
C	 0.626018	 -0.337582	 0.258241
O	 2.538288	 0.965419	 -0.381593
C	 -0.267326	 0.883135	 0.076490
H	 0.325620	 -1.161483	 -0.378003
H	 0.574537	 -0.713685	 1.275261
C	 -1.726822	 0.642622	 0.463839
H	 -0.210803	 1.217591	 -0.953497
H	 0.129920	 1.693110	 0.675679
C	 -2.480891	 -0.340606	 -0.429852
H	 -2.243098	 1.597649	 0.438609
H	 -1.776542	 0.301208	 1.495542
C	 -3.955933	 -0.460128	 -0.060472
H	 -2.393755	 -0.020485	 -1.464726
H	 -2.024244	 -1.323637	 -0.374360
H	 -4.467673	 -1.160944	 -0.709827
H	 -4.458917	 0.497287	 -0.144505
H	 -4.076458	 -0.806900	 0.960497

	symmetry c1
}
set optking {
	frozen_dihedral = ("
		1 2 3 5
	")
}

ee,wfn = optimize('scf', return_wfn=True)
oeprop( wfn, 'DIPOLE', 'QUADRUPOLE', 'MULLIKEN_CHARGES')
f=open( 'psi4out.xyz', 'w' )
f.write( "20  " )
f.write( str(ee) + "\n" )
f.write( MOL.save_string_xyz() )
f.close()
--------------------------------------------------------------------------

    Molecular point group: c1
  Charge       = 0
  Multiplicity = 1
  Basis Set: CC-PVTZ
  Basis Set:
  @DF-RHF Final Energy:  -384.08672600235531
    Total Energy =                       -384.0867260023551353
    Molecular point group: c1
  Basis Set: CC-PVTZ
  Basis Set:
  Basis Set: CC-PVTZ
  Basis Set:
  @DF-RHF Final Energy:  -384.08383274889212
    Total Energy =                       -384.0838327488923483
  Basis Set: CC-PVTZ
  Basis Set:
  Basis Set: CC-PVTZ
  Basis Set:
  @DF-RHF Final Energy:  -384.08740917876463
    Total Energy =                       -384.0874091787651423
  Basis Set: CC-PVTZ
  Basis Set:
  Basis Set: CC-PVTZ
  Basis Set:
  @DF-RHF Final Energy:  -384.08748192764921
    Total Energy =                       -384.0874819276498329
  Basis Set: CC-PVTZ
  Basis Set:
  Basis Set: CC-PVTZ
  Basis Set:
  @DF-RHF Final Energy:  -384.08749234577340
    Total Energy =                       -384.0874923457736827
  Basis Set: CC-PVTZ
  Basis Set:
  Basis Set: CC-PVTZ
  Basis Set:
  @DF-RHF Final Energy:  -384.08749477090578
    Total Energy =                       -384.0874947709055505
  Basis Set: CC-PVTZ
  Basis Set:
  Basis Set: CC-PVTZ
  Basis Set:
  @DF-RHF Final Energy:  -384.08749503071817
    Total Energy =                       -384.0874950307181166
  Basis Set: CC-PVTZ
  Basis Set:
  Charge       = 0
  Multiplicity = 1
  Basis Set: CC-PVTZ
  Basis Set:

    Orbital Energies (a.u.)
    -----------------------

    Doubly Occupied:

       1A    -20.597262     2A    -20.544063     3A    -11.373685
       4A    -11.238338     5A    -11.220846     6A    -11.218757
       7A    -11.218113     8A    -11.210503     9A     -1.471079
      10A     -1.370043    11A     -1.097262    12A     -1.041619
      13A     -0.961512    14A     -0.869161    15A     -0.817229
      16A     -0.779402    17A     -0.706601    18A     -0.689367
      19A     -0.661695    20A     -0.640519    21A     -0.608640
      22A     -0.588456    23A     -0.575086    24A     -0.557256
      25A     -0.534455    26A     -0.515382    27A     -0.494939
      28A     -0.489811    29A     -0.471159    30A     -0.467205
      31A     -0.458242    32A     -0.446042

  @DF-RHF Final Energy:  -384.08749516649198

   => Energetics <=

    Nuclear Repulsion Energy =            376.3121218575984130
    One-Electron Energy =               -1268.9317792086305872
    Two-Electron Energy =                 508.5321621845398568
    DFT Exchange-Correlation Energy =       0.0000000000000000
    Empirical Dispersion Energy =           0.0000000000000000
    PCM Polarization Energy =               0.0000000000000000
    EFP Energy =                            0.0000000000000000
    Total Energy =                       -384.0874951664923174
    Molecular point group: c1
  Basis Set: CC-PVTZ
  Basis Set:

  -Total Gradient:
     Atom            X                  Y                   Z
    ------   -----------------  -----------------  -----------------
       1       -0.003769323356    -0.002166936669     0.009934022657
       2        0.003563845404     0.001735002792    -0.016695525178
       3        0.002726867186     0.002181934094     0.016191983244
       4       -0.000059091827     0.000008083794    -0.000178008588
       5       -0.002504187821    -0.001774524577    -0.009313654570
       6       -0.000000657797    -0.000005123107     0.000054489852
       7        0.000001891204     0.000040194283     0.000013383722
       8        0.000027584691    -0.000021654779     0.000025233243
       9       -0.000002266975     0.000004735939    -0.000006348928
      10       -0.000001918231     0.000004595302    -0.000022638508
      11        0.000002047426    -0.000004958637     0.000000191029
      12        0.000003299112    -0.000001646731    -0.000004070884
      13        0.000005231221    -0.000000841984    -0.000003221741
      14        0.000002642211     0.000003125267     0.000002151376
      15       -0.000000917886    -0.000000144680     0.000003398807
      16       -0.000001027238    -0.000000014807     0.000000567454
      17        0.000005212248    -0.000000809773    -0.000001863958
      18        0.000000796045    -0.000000128694     0.000000746251
      19        0.000000712980    -0.000001420072    -0.000000137552
      20       -0.000000738583     0.000000533043    -0.000000697730

  **** Optimization is complete! (in 8 steps) ****
    Final optimized geometry and variables:
    Molecular point group: c1

    Geometry (in Angstrom), charge = 0, multiplicity = 1:

    H            3.662679118799    -1.012227041516     0.374143558014
    O            2.806936542648    -1.187320751792     0.016010055399
    C            2.081166475683    -0.058608776129    -0.010080132192
    C            0.627781602481    -0.326489746490     0.272472748920
    O            2.546553113486     0.983188913834    -0.307511321242
    C           -0.267644343909     0.890493548972     0.079392444047
    H            0.336399572995    -1.156162471728    -0.360346013444
    H            0.568491330608    -0.699113780493     1.291263850077
    C           -1.729341408601     0.648504334295     0.457664361606
    H           -0.205022416080     1.219866702215    -0.952158126634
    H            0.123539677607     1.704597562491     0.676921513736
    C           -2.475002187351    -0.340468713628    -0.436833770821
    H           -2.247679870809     1.602190363463     0.424844225414
    H           -1.785347881882     0.311514893852     1.490592206014
    C           -3.950520027362    -0.468084489501    -0.071798232691
    H           -2.386414740802    -0.021572105725    -1.471952673220
    H           -2.012660856211    -1.320650713445    -0.378486106822
    H           -4.455456767370    -1.175025094454    -0.719824672896
    H           -4.459576283087     0.485601012803    -0.161636177040
    H           -4.072337885283    -0.811276458401     0.950261858270

  Mulliken Charges: (a.u.)
   Center  Symbol    Alpha    Beta     Spin     Total
       1     H     0.38089  0.38089  0.00000  0.23822
       2     O     4.16947  4.16947  0.00000 -0.33894
       3     C     2.80358  2.80358  0.00000  0.39283
       4     C     3.11167  3.11167  0.00000 -0.22333
       5     O     4.17991  4.17991  0.00000 -0.35981
       6     C     3.09420  3.09420  0.00000 -0.18839
       7     H     0.43638  0.43638  0.00000  0.12723
       8     H     0.44140  0.44140  0.00000  0.11720
       9     C     3.09895  3.09895  0.00000 -0.19789
      10     H     0.44553  0.44553  0.00000  0.10893
      11     H     0.43918  0.43918  0.00000  0.12163
      12     C     3.08672  3.08672  0.00000 -0.17344
      13     H     0.44556  0.44556  0.00000  0.10887
      14     H     0.45433  0.45433  0.00000  0.09133
      15     C     3.14956  3.14956  0.00000 -0.29913
      16     H     0.45233  0.45233  0.00000  0.09534
      17     H     0.45405  0.45405  0.00000  0.09189
      18     H     0.44762  0.44762  0.00000  0.10475
      19     H     0.45365  0.45365  0.00000  0.09270
      20     H     0.45500  0.45500  0.00000  0.09000

   Total alpha = 32.00000, Total beta = 32.00000, Total charge =  0.00000

*** Psi4 exiting successfully. Buy a developer a beer!
