                              Psi4 1.0.54 Driver

  ==> Input File <==

--------------------------------------------------------------------------
set {
	reference rhf
	basis cc-pvtz
}

set_num_threads( 4 )
memory 2 gb

molecule MOL {
0 1

H	 -0.575033	 4.300692	 1.549228
O	 0.102813	 3.708137	 1.281648
C	 -0.440210	 2.442513	 1.013805
C	 0.681126	 1.517313	 0.586331
H	 -0.932130	 2.044283	 1.898791
H	 -1.187259	 2.507874	 0.225468
C	 0.196029	 0.106276	 0.266738
H	 1.421807	 1.485831	 1.379186
H	 1.171140	 1.948781	 -0.280640
C	 1.330220	 -0.826136	 -0.155230
H	 -0.313025	 -0.300476	 1.135145
H	 -0.543652	 0.148997	 -0.529898
C	 2.719700	 -0.407669	 0.328325
H	 1.339388	 -0.911200	 -1.239363
H	 1.119001	 -1.821953	 0.224128
C	 3.241564	 0.893452	 -0.276737
H	 3.418299	 -1.204729	 0.093035
H	 2.711776	 -0.323368	 1.411960
H	 3.254204	 0.841071	 -1.360784
H	 2.634460	 1.745075	 0.005842
H	 4.254264	 1.092401	 0.054971

	symmetry c1
}
set optking {
	frozen_dihedral = ("
		4 7 10 14
	")
}

ee,wfn = optimize('scf', return_wfn=True)
oeprop( wfn, 'DIPOLE', 'QUADRUPOLE', 'MULLIKEN_CHARGES')
f=open( 'psi4out.xyz', 'w' )
f.write( "21  " )
f.write( str(ee) + "\n" )
f.write( MOL.save_string_xyz() )
f.close()
--------------------------------------------------------------------------

    Molecular point group: c1
  Charge       = 0
  Multiplicity = 1
  Basis Set: CC-PVTZ
  Basis Set:
  @DF-RHF Final Energy:  -310.29998817683293
    Total Energy =                       -310.2999881768326986
    Molecular point group: c1
  Basis Set: CC-PVTZ
  Basis Set:
  Basis Set: CC-PVTZ
  Basis Set:
  @DF-RHF Final Energy:  -310.31685456830837
    Total Energy =                       -310.3168545683084858
  Basis Set: CC-PVTZ
  Basis Set:
  Basis Set: CC-PVTZ
  Basis Set:
  @DF-RHF Final Energy:  -310.32133598327619
    Total Energy =                       -310.3213359832761284
  Basis Set: CC-PVTZ
  Basis Set:
  Basis Set: CC-PVTZ
  Basis Set:
  @DF-RHF Final Energy:  -310.32258290813218
    Total Energy =                       -310.3225829081320626
  Basis Set: CC-PVTZ
  Basis Set:
  @DF-RHF Final Energy:  -310.32290306501045
    Total Energy =                       -310.3229030650106779
  @DF-RHF Final Energy:  -310.32312742475403
    Total Energy =                       -310.3231274247536930
  Basis Set: CC-PVTZ
  Basis Set:
  @DF-RHF Final Energy:  -310.32315138766847
    Total Energy =                       -310.3231513876681902
  Basis Set: CC-PVTZ
  Basis Set:
  Basis Set: CC-PVTZ
  Basis Set:
  @DF-RHF Final Energy:  -310.32315591942660
    Total Energy =                       -310.3231559194264264
  Basis Set: CC-PVTZ
  Basis Set:
  Basis Set: CC-PVTZ
  Basis Set:
  @DF-RHF Final Energy:  -310.32315700966217
    Total Energy =                       -310.3231570096618270
  Basis Set: CC-PVTZ
  Basis Set:
  Charge       = 0
  Multiplicity = 1
  Basis Set: CC-PVTZ
  Basis Set:

    Orbital Energies (a.u.)
    -----------------------

    Doubly Occupied:

       1A    -20.545550     2A    -11.264953     3A    -11.214663
       4A    -11.212611     5A    -11.211921     6A    -11.208642
       7A    -11.202220     8A     -1.363386     9A     -1.083316
      10A     -1.030518    11A     -0.958318    12A     -0.874920
      13A     -0.817193    14A     -0.768653    15A     -0.693035
      16A     -0.660992    17A     -0.624989    18A     -0.609708
      19A     -0.581664    20A     -0.569101    21A     -0.540651
      22A     -0.524457    23A     -0.505593    24A     -0.492092
      25A     -0.484501    26A     -0.451938    27A     -0.446257
      28A     -0.443638    29A     -0.437383

  @DF-RHF Final Energy:  -310.32315727453658

   => Energetics <=

    Nuclear Repulsion Energy =            319.7281235419221730
    One-Electron Energy =               -1054.4568356897507329
    Two-Electron Energy =                 424.4055548732918624
    DFT Exchange-Correlation Energy =       0.0000000000000000
    Empirical Dispersion Energy =           0.0000000000000000
    PCM Polarization Energy =               0.0000000000000000
    EFP Energy =                            0.0000000000000000
    Total Energy =                       -310.3231572745366975
    Molecular point group: c1
  Basis Set: CC-PVTZ
  Basis Set:

  -Total Gradient:
     Atom            X                  Y                   Z
    ------   -----------------  -----------------  -----------------
       1       -0.000001529524     0.000002214523     0.000001676050
       2       -0.000002657757    -0.000007799553     0.000001307949
       3        0.000005336699     0.000007006402    -0.000012720454
       4        0.000717696147    -0.001499876666     0.004181968683
       5        0.000006013583     0.000002262457    -0.000002893714
       6       -0.000001008668    -0.000000482620     0.000001508416
       7       -0.001874203601     0.001069349338    -0.006101981780
       8        0.000002385983     0.000006170266     0.000008371568
       9       -0.000011282654    -0.000005563567     0.000005878381
      10        0.004740788716     0.005092295924     0.001891466165
      11       -0.000000600814     0.000003534052     0.000001928932
      12        0.000007628350    -0.000014478657    -0.000011373508
      13        0.000000930983     0.000037462246     0.000004830085
      14       -0.003575221579    -0.004686085467     0.000020763946
      15       -0.000006397921     0.000005030134     0.000008798299
      16       -0.000013934256     0.000003268622    -0.000003292114
      17       -0.000011352619    -0.000001053103    -0.000005825387
      18       -0.000000738181     0.000002992834     0.000011982629
      19       -0.000000174554     0.000004491099    -0.000004773783
      20        0.000016695440    -0.000023120249    -0.000001975356
      21        0.000001626225     0.000002381989     0.000004354994

  **** Optimization is complete! (in 10 steps) ****
    Final optimized geometry and variables:
    Molecular point group: c1

    Geometry (in Angstrom), charge = 0, multiplicity = 1:

    H           -2.095367732050     2.968097449979     1.495281106756
    O           -1.354994909218     2.512451375720     1.139810867515
    C           -1.726334429125     1.216220194522     0.751731765053
    C           -0.506183596946     0.515278993670     0.187093114818
    H           -2.112316374992     0.660061196206     1.603392748650
    H           -2.513337617025     1.254358915088     0.001507692089
    C           -0.831192222510    -0.906751750983    -0.266286507527
    H            0.262535806201     0.510412538376     0.949813519314
    H           -0.131043629774     1.110720970065    -0.637579624104
    C            0.328618546970    -1.793629180067    -0.777072367518
    H           -1.284499901452    -1.414893622659     0.581245248713
    H           -1.599328365204    -0.872359515935    -1.032275277817
    C            1.745954762738    -1.542294773914    -0.249904439337
    H            0.331840488592    -1.801774160126    -1.863460922008
    H            0.063661596602    -2.812920256153    -0.512550473644
    C            2.530095897540    -0.442307415549    -0.963029024794
    H            2.302551122302    -2.467933727939    -0.357862278043
    H            1.714374598099    -1.341514567595     0.816698525218
    H            2.600219045274    -0.651111271547    -2.025584371150
    H            2.077279053389     0.532571618670    -0.848077233098
    H            3.540250085444    -0.381514937963    -0.573314934414

  Mulliken Charges: (a.u.)
   Center  Symbol    Alpha    Beta     Spin     Total
       1     H     0.39753  0.39753  0.00000  0.20494
       2     O     4.19461  4.19461  0.00000 -0.38922
       3     C     2.96545  2.96545  0.00000  0.06909
       4     C     3.09546  3.09546  0.00000 -0.19093
       5     H     0.47420  0.47420  0.00000  0.05159
       6     H     0.47375  0.47375  0.00000  0.05251
       7     C     3.10136  3.10136  0.00000 -0.20272
       8     H     0.44667  0.44667  0.00000  0.10667
       9     H     0.44932  0.44932  0.00000  0.10137
      10     C     3.09629  3.09629  0.00000 -0.19257
      11     H     0.45559  0.45559  0.00000  0.08881
      12     H     0.44998  0.44998  0.00000  0.10005
      13     C     3.10144  3.10144  0.00000 -0.20288
      14     H     0.45294  0.45294  0.00000  0.09412
      15     H     0.44803  0.44803  0.00000  0.10393
      16     C     3.14877  3.14877  0.00000 -0.29754
      17     H     0.44485  0.44485  0.00000  0.11030
      18     H     0.45106  0.45106  0.00000  0.09789
      19     H     0.45570  0.45570  0.00000  0.08859
      20     H     0.44859  0.44859  0.00000  0.10281
      21     H     0.44841  0.44841  0.00000  0.10319

   Total alpha = 29.00000, Total beta = 29.00000, Total charge = -0.00000

*** Psi4 exiting successfully. Buy a developer a beer!
