  ==> Input File <==

--------------------------------------------------------------------------
set {
	reference rhf
	basis 6-31G*
}

set_num_threads( 4 )
memory 2 gb

molecule MOL {
0 1

O	 0.749854	 1.307668	 -0.000040
C	 0.576249	 0.131685	 -0.000108
C	 -0.766779	 -0.556801	 -0.000461
O	 1.568443	 -0.749345	 -0.000005
C	 -1.945214	 0.412366	 0.000161
H	 -0.796911	 -1.211249	 -0.867467
H	 -0.796854	 -1.212390	 0.865687
C	 -3.287791	 -0.317055	 0.000105
H	 -1.876087	 1.060580	 -0.866812
H	 -1.875822	 1.059691	 0.867761
H	 -3.394745	 -0.949193	 -0.877058
H	 -4.111778	 0.388953	 0.000015
H	 -3.394954	 -0.949187	 0.877259
C	 1.323348	 -1.993207	 0.630822
H	 1.088343	 -1.849554	 1.675656
H	 2.234676	 -2.561185	 0.527140
H	 0.504200	 -2.508303	 0.150009

	symmetry c1
}
set optking {
	frozen_dihedral = ("
		14 4 2 1
	")
}

ee = optimize('scf')
oeprop('DIPOLE', 'QUADRUPOLE', 'MULLIKEN_CHARGES')
f=open( 'psi4out.xyz', 'w' )
f.write( "17  " )
f.write( str(ee) + "\n" )
f.write( MOL.save_string_xyz() )
f.close()
--------------------------------------------------------------------------

    Molecular point group: c1
  Charge       = 0
  Multiplicity = 1
  Basis Set: 6-31G*
  Basis Set:
  @DF-RHF Final Energy:  -344.88106666788138
    Total Energy =                       -344.8810666678817256
    Molecular point group: c1
  Basis Set: 6-31G*
  Basis Set:
  Basis Set: 6-31G*
  Basis Set:
  @DF-RHF Final Energy:  -344.88077064052595
    Total Energy =                       -344.8807706405261229
  Basis Set: 6-31G*
  Basis Set:
  Basis Set: 6-31G*
  Basis Set:
  @DF-RHF Final Energy:  -344.88830363499022
    Total Energy =                       -344.8883036349899385
  Basis Set: 6-31G*
  Basis Set:
  Basis Set: 6-31G*
  Basis Set:
  @DF-RHF Final Energy:  -344.88961796900389
    Total Energy =                       -344.8896179690040071
  Basis Set: 6-31G*
  Basis Set:
  @DF-RHF Final Energy:  -344.88874498211601
    Total Energy =                       -344.8887449821162932
  Basis Set: 6-31G*
  Basis Set:
  @DF-RHF Final Energy:  -344.88995748570596
    Total Energy =                       -344.8899574857060770
  Basis Set: 6-31G*
  Basis Set:
  Basis Set: 6-31G*
  Basis Set:
  @DF-RHF Final Energy:  -344.89005171910861
    Total Energy =                       -344.8900517191087829
  Basis Set: 6-31G*
  Basis Set:
  Basis Set: 6-31G*
  Basis Set:
  @DF-RHF Final Energy:  -344.89005286981541
    Total Energy =                       -344.8900528698153494
  Basis Set: 6-31G*
  Basis Set:
  Charge       = 0
  Multiplicity = 1
  Basis Set: 6-31G*
  Basis Set:

    Orbital Energies (a.u.)
    -----------------------

    Doubly Occupied:

       1A    -20.598609     2A    -20.544044     3A    -11.374479
       4A    -11.296377     5A    -11.245470     6A    -11.226390
       7A    -11.218688     8A     -1.462196     9A     -1.366469
      10A     -1.082745    11A     -0.989486    12A     -0.967766
      13A     -0.838745    14A     -0.766592    15A     -0.703239
      16A     -0.686755    17A     -0.673595    18A     -0.641358
      19A     -0.606159    20A     -0.580183    21A     -0.570158
      22A     -0.546451    23A     -0.526439    24A     -0.495880
      25A     -0.490768    26A     -0.484046    27A     -0.449867
      28A     -0.432689

  @DF-RHF Final Energy:  -344.89005292670038

   => Energetics <=

    Nuclear Repulsion Energy =            313.8248413692016356
    One-Electron Energy =               -1091.6985018008754196
    Two-Electron Energy =                 432.9836075049731789
    DFT Exchange-Correlation Energy =       0.0000000000000000
    Empirical Dispersion Energy =           0.0000000000000000
    PCM Polarization Energy =               0.0000000000000000
    EFP Energy =                            0.0000000000000000
    Total Energy =                       -344.8900529267006050
    Molecular point group: c1
  Basis Set: 6-31G*
  Basis Set:

  -Total Gradient:
     Atom            X                  Y                   Z
    ------   -----------------  -----------------  -----------------
       1        0.000088501431    -0.000081418433     0.003205606166
       2        0.000377278606     0.000670256386    -0.003289495217
       3        0.000008406733    -0.000003592674     0.000013269813
       4       -0.001401412494    -0.001618350819    -0.002304305073
       5        0.000001312194     0.000001208616    -0.000024836456
       6        0.000001201355     0.000006408914     0.000001960735
       7        0.000005500788     0.000002935860     0.000000513995
       8       -0.000001226623     0.000001479331     0.000015662465
       9        0.000003229284    -0.000003373893     0.000000186283
      10       -0.000002751552     0.000001858833     0.000000209052
      11        0.000001926936     0.000004801757    -0.000002453006
      12       -0.000001391305     0.000000045494     0.000003324226
      13       -0.000000844972    -0.000004398393    -0.000001500335
      14        0.000921240432     0.001037122639     0.002372168346
      15       -0.000004168024    -0.000008104167     0.000005717676
      16       -0.000004201415    -0.000009482969    -0.000000684066
      17        0.000007398619     0.000002603516     0.000004655396

  **** Optimization is complete! (in 9 steps) ****
    Final optimized geometry and variables:
    Molecular point group: c1

    Geometry (in Angstrom), charge = 0, multiplicity = 1:

    O            0.946341863073     1.517063350464    -0.021136000452
    C            0.769762231579     0.347406941153    -0.042402805164
    C           -0.605256074756    -0.290902946512    -0.046595664595
    O            1.824903962839    -0.476144462968    -0.093915954414
    C           -1.733442936685     0.732177155419    -0.155815337440
    H           -0.647395980781    -0.999020219274    -0.870646450313
    H           -0.721635716111    -0.879071053484     0.860565467913
    C           -3.109459044630     0.068270326862    -0.160513925339
    H           -1.599437758780     1.315310389347    -1.060090565147
    H           -1.660235668623     1.431684486617     0.668835410335
    H           -3.217919008078    -0.614977768802    -0.998348746852
    H           -3.895959326534     0.811544653473    -0.238377027046
    H           -3.280346353644    -0.497441309577     0.751404976724
    C            1.790798400840    -1.763462578792     0.476527575158
    H            1.528264939280    -1.719500030936     1.526777570476
    H            2.791390497397    -2.155064135148     0.380759524109
    H            1.103719905989    -2.419930743162    -0.042686473718

  Mulliken Charges: (a.u.)
   Center  Symbol    Alpha    Beta     Spin     Total
       1     O     4.26251  4.26251  0.00000 -0.52503
       2     C     2.60195  2.60195  0.00000  0.79611
       3     C     3.22956  3.22956  0.00000 -0.45911
       4     O     4.30511  4.30511  0.00000 -0.61021
       5     C     3.14904  3.14904  0.00000 -0.29808
       6     H     0.40303  0.40303  0.00000  0.19394
       7     H     0.40539  0.40539  0.00000  0.18922
       8     C     3.24340  3.24340  0.00000 -0.48681
       9     H     0.40889  0.40889  0.00000  0.18221
      10     H     0.40755  0.40755  0.00000  0.18491
      11     H     0.42160  0.42160  0.00000  0.15680
      12     H     0.41359  0.41359  0.00000  0.17283
      13     H     0.42225  0.42225  0.00000  0.15551
      14     C     3.09423  3.09423  0.00000 -0.18845
      15     H     0.41572  0.41572  0.00000  0.16857
      16     H     0.39850  0.39850  0.00000  0.20300
      17     H     0.41770  0.41770  0.00000  0.16460

   Total alpha = 28.00000, Total beta = 28.00000, Total charge = -0.00000
