  ==> Input File <==

--------------------------------------------------------------------------
set {
	reference rhf
	basis 6-31G*
}

set_num_threads( 4 )
memory 2 gb

molecule MOL {
0 1

H	 1.436784	 -1.417394	 -0.582108
O	 1.586534	 -0.678666	 -0.000226
C	 0.489431	 0.077273	 0.000046
C	 -0.764129	 -0.759190	 0.000191
O	 0.537743	 1.263962	 0.000257
C	 -2.038368	 0.075731	 -0.000248
H	 -0.717284	 -1.412404	 -0.866059
H	 -0.717458	 -1.411724	 0.866967
H	 -2.086483	 0.712501	 -0.875098
H	 -2.908485	 -0.571682	 -0.000042
H	 -2.086576	 0.713280	 0.874068

	symmetry c1
}
set optking {
	frozen_dihedral = ("
		1 2 3 5
	")
}

ee = optimize('scf')
oeprop('DIPOLE', 'QUADRUPOLE', 'MULLIKEN_CHARGES')
f=open( 'psi4out.xyz', 'w' )
f.write( "11  " )
f.write( str(ee) + "\n" )
f.write( MOL.save_string_xyz() )
f.close()
--------------------------------------------------------------------------

    Molecular point group: c1
  Charge       = 0
  Multiplicity = 1
  Basis Set: 6-31G*
  Basis Set:
  @DF-RHF Final Energy:  -266.82861210713054
    Total Energy =                       -266.8286121071306525
    Molecular point group: c1
  Basis Set: 6-31G*
  Basis Set:
  Basis Set: 6-31G*
  Basis Set:
  @DF-RHF Final Energy:  -266.83001985743783
    Total Energy =                       -266.8300198574378328
  Basis Set: 6-31G*
  Basis Set:
  Basis Set: 6-31G*
  Basis Set:
  @DF-RHF Final Energy:  -266.83016656584607
    Total Energy =                       -266.8301665658461843
  Basis Set: 6-31G*
  Basis Set:
  Basis Set: 6-31G*
  Basis Set:
  @DF-RHF Final Energy:  -266.83011251334239
    Total Energy =                       -266.8301125133426126
  Basis Set: 6-31G*
  Basis Set:
  Basis Set: 6-31G*
  Basis Set:
  @DF-RHF Final Energy:  -266.83017483368405
    Total Energy =                       -266.8301748336839978
  Basis Set: 6-31G*
  Basis Set:
  Charge       = 0
  Multiplicity = 1
  Basis Set: 6-31G*
  Basis Set:

    Orbital Energies (a.u.)
    -----------------------

    Doubly Occupied:

       1A    -20.606527     2A    -20.554886     3A    -11.381889
       4A    -11.253782     5A    -11.225475     6A     -1.465675
       7A     -1.371338     8A     -1.067997     9A     -0.908603
      10A     -0.823147    11A     -0.717466    12A     -0.668859
      13A     -0.657532    14A     -0.615927    15A     -0.582857
      16A     -0.533120    17A     -0.523974    18A     -0.510952
      19A     -0.481813    20A     -0.444052

  @DF-RHF Final Energy:  -266.83017522007049

   => Energetics <=

    Nuclear Repulsion Energy =            179.3958199035813266
    One-Electron Energy =                -719.6602500611354571
    Two-Electron Energy =                 273.4342549374835585
    DFT Exchange-Correlation Energy =       0.0000000000000000
    Empirical Dispersion Energy =           0.0000000000000000
    PCM Polarization Energy =               0.0000000000000000
    EFP Energy =                            0.0000000000000000
    Total Energy =                       -266.8301752200705437
    Molecular point group: c1
  Basis Set: 6-31G*
  Basis Set:

  -Total Gradient:
     Atom            X                  Y                   Z
    ------   -----------------  -----------------  -----------------
       1        0.002365179678     0.003808461667    -0.005281372214
       2       -0.003060121313    -0.004774000855     0.003973199133
       3        0.000746619629     0.000845268318     0.007341015853
       4        0.000026607176     0.000007312907     0.000043050002
       5       -0.000057416907     0.000112231566    -0.006033764439
       6       -0.000014697951     0.000002670039    -0.000016837853
       7        0.000002235202     0.000005754046    -0.000019565219
       8       -0.000005301776    -0.000001666788    -0.000019295949
       9        0.000005331324    -0.000005039310     0.000008022550
      10       -0.000010003976     0.000001699678     0.000004741262
      11        0.000001568916    -0.000002691270     0.000000806874

  **** Optimization is complete! (in 6 steps) ****
    Final optimized geometry and variables:
    Molecular point group: c1

    Geometry (in Angstrom), charge = 0, multiplicity = 1:

    H            1.570940697757    -1.392747006197    -0.579966263386
    O            1.636824378096    -0.640584998822    -0.006114543198
    C            0.499462563238     0.081275910016     0.007127683604
    C           -0.771416982812    -0.742277529712     0.010185270277
    O            0.535286925342     1.260776777679     0.020032826755
    C           -2.037029818202     0.105740532403     0.008601195346
    H           -0.751788562178    -1.401730639186    -0.856281802946
    H           -0.734124066847    -1.392171867568     0.880294925141
    H           -2.079378558175     0.738597741936    -0.869162992041
    H           -2.914729425775    -0.531246698310     0.016010024133
    H           -2.071222980138     0.747803517907     0.879657513454

  Mulliken Charges: (a.u.)
   Center  Symbol    Alpha    Beta     Spin     Total
       1     H     0.26935  0.26935  0.00000  0.46129
       2     O     4.35704  4.35704  0.00000 -0.71408
       3     C     2.61797  2.61797  0.00000  0.76406
       4     C     3.22357  3.22357  0.00000 -0.44713
       5     O     4.25430  4.25430  0.00000 -0.50859
       6     C     3.23758  3.23758  0.00000 -0.47515
       7     H     0.41205  0.41205  0.00000  0.17590
       8     H     0.39746  0.39746  0.00000  0.20509
       9     H     0.40809  0.40809  0.00000  0.18381
      10     H     0.41692  0.41692  0.00000  0.16616
      11     H     0.40568  0.40568  0.00000  0.18865

   Total alpha = 20.00000, Total beta = 20.00000, Total charge =  0.00000
