  ==> Input File <==

--------------------------------------------------------------------------
set {
	reference rhf
	basis 6-31G*
}

set_num_threads( 1 )
memory 2 gb

molecule MOL {
0 1

H	 -3.407059	 -1.043082	 0.000000
O	 -3.119761	 -0.140267	 0.000000
C	 -1.777559	 -0.059267	 0.000000
C	 -1.098892	 1.003560	 0.588906
C	 -1.075916	 -1.087443	 -0.616942
H	 -1.650308	 1.796396	 1.064996
C	 0.279503	 1.033901	 0.558452
H	 -1.621993	 -1.896241	 -1.064062
C	 0.302473	 -1.042902	 -0.639212
H	 0.816044	 1.847772	 1.008827
C	 0.996634	 0.012045	 -0.055387
H	 0.846681	 -1.839425	 -1.117177
C	 2.472049	 0.046052	 -0.087101
O	 3.141852	 0.910207	 0.387618
H	 2.942794	 -0.803421	 -0.593027

	symmetry c1
}
set optking {
	frozen_dihedral = ("
		7 11 13 14
	")
}

ee = energy('scf')
oeprop('DIPOLE', 'QUADRUPOLE', 'MULLIKEN_CHARGES')
f=open( 'psi4out.xyz', 'w' )
f.write( "15  " )
f.write( str(ee) + "\n" )
f.write( MOL.save_string_xyz() )
f.close()
--------------------------------------------------------------------------

    Molecular point group: c1

    Geometry (in Angstrom), charge = 0, multiplicity = 1:

       Center              X                  Y                   Z               Mass
    ------------   -----------------  -----------------  -----------------  -----------------
           H         -3.402492989523    -1.118742064820    -0.020310146151     1.007825032070
           O         -3.115194989523    -0.215927064820    -0.020310146151    15.994914619560
           C         -1.772992989523    -0.134927064820    -0.020310146151    12.000000000000
           C         -1.094325989523     0.927899935180     0.568595853849    12.000000000000
           C         -1.071349989523    -1.163103064820    -0.637252146151    12.000000000000
           H         -1.645741989523     1.720735935180     1.044685853849     1.007825032070
           C          0.284069010477     0.958240935180     0.538141853849    12.000000000000
           H         -1.617426989523    -1.971901064820    -1.084372146151     1.007825032070
           C          0.307039010477    -1.118562064820    -0.659522146151    12.000000000000
           H          0.820610010477     1.772111935180     0.988516853849     1.007825032070
           C          1.001200010477    -0.063615064820    -0.075697146151    12.000000000000
           H          0.851247010477    -1.915085064820    -1.137487146151     1.007825032070
           C          2.476615010477    -0.029608064820    -0.107411146151    12.000000000000
           O          3.146418010477     0.834546935180     0.367307853849    15.994914619560
           H          2.947360010477    -0.879081064820    -0.613337146151     1.007825032070

  Charge       = 0
  Multiplicity = 1
  Basis Set: 6-31G*
  Basis Set:

    Orbital Energies (a.u.)
    -----------------------

    Doubly Occupied:

       1A    -20.605787     2A    -20.557005     3A    -11.328918
       4A    -11.322259     5A    -11.262517     6A    -11.255105
       7A    -11.243296     8A    -11.241068     9A    -11.240299
      10A     -1.429324    11A     -1.398051    12A     -1.170825
      13A     -1.042288    14A     -1.037642    15A     -0.892345
      16A     -0.858116    17A     -0.803473    18A     -0.756903
      19A     -0.698761    20A     -0.685089    21A     -0.640174
      22A     -0.626816    23A     -0.617163    24A     -0.608284
      25A     -0.572357    26A     -0.552869    27A     -0.548455
      28A     -0.503726    29A     -0.483875    30A     -0.419448
      31A     -0.357595    32A     -0.329747

  @DF-RHF Final Energy:  -418.28634174653649

   => Energetics <=

    Nuclear Repulsion Energy =            401.4011634835840709
    One-Electron Energy =               -1365.1959617450124824
    Two-Electron Energy =                 545.5084565148921456
    DFT Exchange-Correlation Energy =       0.0000000000000000
    Empirical Dispersion Energy =           0.0000000000000000
    PCM Polarization Energy =               0.0000000000000000
    EFP Energy =                            0.0000000000000000
    Total Energy =                       -418.2863417465363227

  Mulliken Charges: (a.u.)
   Center  Symbol    Alpha    Beta     Spin     Total
       1     H     0.26743  0.26743  0.00000  0.46514
       2     O     4.37730  4.37730  0.00000 -0.75460
       3     C     2.78236  2.78236  0.00000  0.43529
       4     C     3.12782  3.12782  0.00000 -0.25564
       5     C     3.14802  3.14802  0.00000 -0.29604
       6     H     0.38643  0.38643  0.00000  0.22714
       7     C     3.07959  3.07959  0.00000 -0.15917
       8     H     0.39751  0.39751  0.00000  0.20498
       9     C     3.09247  3.09247  0.00000 -0.18493
      10     H     0.37388  0.37388  0.00000  0.25225
      11     C     3.06738  3.06738  0.00000 -0.13476
      12     H     0.39069  0.39069  0.00000  0.21863
      13     C     2.83038  2.83038  0.00000  0.33925
      14     O     4.25369  4.25369  0.00000 -0.50737
      15     H     0.42507  0.42507  0.00000  0.14985

   Total alpha = 32.00000, Total beta = 32.00000, Total charge = -0.00000
