  ==> Input File <==

--------------------------------------------------------------------------
set {
	reference rhf
	basis 6-31G*
}

set_num_threads( 4 )
memory 2 gb

molecule MOL {
0 1

H	 1.550054	 -0.106184	 -1.858756
O	 0.729007	 -0.205652	 -1.398857
C	 0.702312	 0.627605	 -0.264544
C	 -0.714990	 0.596302	 0.266387
H	 0.967556	 1.647356	 -0.530264
H	 1.396756	 0.274779	 0.494921
O	 -1.405996	 -0.526611	 -0.195820
H	 -1.257453	 1.468809	 -0.075599
H	 -0.688972	 0.618407	 1.353696
H	 -0.890587	 -1.292708	 0.022039

	symmetry c1
}
set optking {
	frozen_dihedral = ("
		5 3 4 7
	")
}

ee = optimize('scf')
oeprop('DIPOLE', 'QUADRUPOLE', 'MULLIKEN_CHARGES')
f=open( 'psi4out.xyz', 'w' )
f.write( "10  " )
f.write( str(ee) + "\n" )
f.write( MOL.save_string_xyz() )
f.close()
--------------------------------------------------------------------------

    Molecular point group: c1
  Charge       = 0
  Multiplicity = 1
  Basis Set: 6-31G*
  Basis Set:
  @DF-RHF Final Energy:  -228.91033938259190
    Total Energy =                       -228.9103393825919284
    Molecular point group: c1
  Basis Set: 6-31G*
  Basis Set:
  Basis Set: 6-31G*
  Basis Set:
  @DF-RHF Final Energy:  -228.91156341064178
    Total Energy =                       -228.9115634106418042
  Basis Set: 6-31G*
  Basis Set:
  Basis Set: 6-31G*
  Basis Set:
  @DF-RHF Final Energy:  -228.91303775814660
    Total Energy =                       -228.9130377581464870
  Basis Set: 6-31G*
  Basis Set:
  Basis Set: 6-31G*
  Basis Set:
  @DF-RHF Final Energy:  -228.91332809708877
    Total Energy =                       -228.9133280970887654
  Basis Set: 6-31G*
  Basis Set:
  @DF-RHF Final Energy:  -228.91356754959412
    Total Energy =                       -228.9135675495941484
  @DF-RHF Final Energy:  -228.91430387134443
    Total Energy =                       -228.9143038713445151
  @DF-RHF Final Energy:  -228.91542860449019
    Total Energy =                       -228.9154286044901880
  @DF-RHF Final Energy:  -228.91686064534903
    Total Energy =                       -228.9168606453490327
  @DF-RHF Final Energy:  -228.91726127060767
    Total Energy =                       -228.9172612706077530
  @DF-RHF Final Energy:  -228.91736972904590
    Total Energy =                       -228.9173697290459017
  @DF-RHF Final Energy:  -228.91754580733647
    Total Energy =                       -228.9175458073364666
  @DF-RHF Final Energy:  -228.91757504704142
    Total Energy =                       -228.9175750470413675
  @DF-RHF Final Energy:  -228.91759171715412
    Total Energy =                       -228.9175917171540959
  @DF-RHF Final Energy:  -228.91759297796756
    Total Energy =                       -228.9175929779675585
  @DF-RHF Final Energy:  -228.91759105363147
    Total Energy =                       -228.9175910536316110
  Basis Set: 6-31G*
  Basis Set:
  @DF-RHF Final Energy:  -228.91756816113048
    Total Energy =                       -228.9175681611304469
  Basis Set: 6-31G*
  Basis Set:
  Basis Set: 6-31G*
  Basis Set:
  @DF-RHF Final Energy:  -228.91759190747246
    Total Energy =                       -228.9175919074724277
  Basis Set: 6-31G*
  Basis Set:
  Basis Set: 6-31G*
  Basis Set:
  @DF-RHF Final Energy:  -228.91759137824573
    Total Energy =                       -228.9175913782457314
  Basis Set: 6-31G*
  Basis Set:
  Charge       = 0
  Multiplicity = 1
  Basis Set: 6-31G*
  Basis Set:

    Orbital Energies (a.u.)
    -----------------------

    Doubly Occupied:

       1A    -20.574153     2A    -20.539493     3A    -11.282389
       4A    -11.268649     5A     -1.387249     6A     -1.343728
       7A     -0.997932     8A     -0.845967     9A     -0.727167
      10A     -0.679918    11A     -0.657413    12A     -0.590688
      13A     -0.577476    14A     -0.536458    15A     -0.483803
      16A     -0.462337    17A     -0.419367

  @DF-RHF Final Energy:  -228.91759302081010

   => Energetics <=

    Nuclear Repulsion Energy =            135.0783778070065750
    One-Electron Energy =                -581.2435679388299832
    Two-Electron Energy =                 217.2475971110133059
    DFT Exchange-Correlation Energy =       0.0000000000000000
    Empirical Dispersion Energy =           0.0000000000000000
    PCM Polarization Energy =               0.0000000000000000
    EFP Energy =                            0.0000000000000000
    Total Energy =                       -228.9175930208101022
    Molecular point group: c1
  Basis Set: 6-31G*
  Basis Set:

  -Total Gradient:
     Atom            X                  Y                   Z
    ------   -----------------  -----------------  -----------------
       1       -0.000001660920     0.000004170964     0.000004117068
       2        0.000017687890    -0.000001083035     0.000035452792
       3        0.002657286042     0.003893777446     0.006356920729
       4        0.002523434133    -0.003528798691     0.005391520525
       5       -0.002827501771    -0.002521072155    -0.006678515616
       6       -0.000010848628    -0.000029786245     0.000016291521
       7       -0.002379771088     0.002151396718    -0.005152512140
       8        0.000004732036     0.000029549904     0.000036718706
       9        0.000025369708    -0.000019147690    -0.000010674457
      10       -0.000008727402     0.000020992788     0.000000680874

  **** Optimization is complete! (in 19 steps) ****
    Final optimized geometry and variables:
    Molecular point group: c1

    Geometry (in Angstrom), charge = 0, multiplicity = 1:

    H            1.737939751205    -0.313658548398    -1.422440121875
    O            0.890876164793    -0.338929042405    -1.001675323292
    C            0.836379520673     0.611645243966     0.038700095305
    C           -0.571990221194     0.534477811614     0.661444812843
    H            0.984439907013     1.595632524971    -0.395768474397
    H            1.610565833931     0.412469897793     0.772578706655
    O           -1.199295373266    -0.690064484232     0.441865173606
    H           -1.181716188102     1.334794305744     0.247378317740
    H           -0.513188904974     0.693908547292     1.730657872554
    H           -0.891241840997    -1.038963610690    -0.384318456021

  Mulliken Charges: (a.u.)
   Center  Symbol    Alpha    Beta     Spin     Total
       1     H     0.27444  0.27444  0.00000  0.45111
       2     O     4.38365  4.38365  0.00000 -0.76730
       3     C     3.01433  3.01433  0.00000 -0.02867
       4     C     2.99310  2.99310  0.00000  0.01381
       5     H     0.42446  0.42446  0.00000  0.15109
       6     H     0.42223  0.42223  0.00000  0.15553
       7     O     4.37767  4.37767  0.00000 -0.75534
       8     H     0.42821  0.42821  0.00000  0.14358
       9     H     0.41865  0.41865  0.00000  0.16270
      10     H     0.26326  0.26326  0.00000  0.47349

   Total alpha = 17.00000, Total beta = 17.00000, Total charge = -0.00000
