  ==> Input File <==

--------------------------------------------------------------------------
set {
	reference rhf
	basis 6-31G*
}

set_num_threads( 1 )
memory 2 gb

molecule MOL {
0 1

O	 0.303304	 0.125452	 -0.861970
C	 1.122059	 0.121804	 -0.000188
C	 1.118852	 1.012926	 1.217919
O	 2.172624	 -0.688929	 0.000216
C	 -0.069938	 1.967738	 1.267472
H	 1.142417	 0.367914	 2.092081
H	 2.060259	 1.555554	 1.225753
C	 -0.048654	 2.858644	 2.510533
H	 -0.991416	 1.394418	 1.241270
H	 -0.072527	 2.583473	 0.373399
C	 -1.235586	 3.819345	 2.567537
H	 -0.045337	 2.236707	 3.403427
H	 0.877832	 3.428892	 2.533176
H	 -2.177080	 3.277993	 2.580975
H	 -1.196728	 4.438849	 3.458033
H	 -1.246961	 4.479092	 1.704841
C	 3.452279	 -0.082609	 0.000533
H	 3.583069	 0.529321	 -0.880332
H	 4.163299	 -0.894027	 0.001117
H	 3.582335	 0.529955	 0.881077

	symmetry c1
}
set optking {
	frozen_dihedral = ("
		9 5 8 12,
		1 2 3 6,
		9 5 3 6
	")
}

ee = energy('scf')
oeprop('DIPOLE', 'QUADRUPOLE', 'MULLIKEN_CHARGES')
f=open( 'psi4out.xyz', 'w' )
f.write( "20  " )
f.write( str(ee) + "\n" )
f.write( MOL.save_string_xyz() )
f.close()
--------------------------------------------------------------------------

    Molecular point group: c1

    Geometry (in Angstrom), charge = 0, multiplicity = 1:

       Center              X                  Y                   Z               Mass
    ------------   -----------------  -----------------  -----------------  -----------------
           O         -0.570421396710    -1.007151073588    -1.686740785683    15.994914619560
           C          0.248333603290    -1.010799073588    -0.824958785683    12.000000000000
           C          0.245126603290    -0.119677073588     0.393148214317    12.000000000000
           O          1.298898603290    -1.821532073588    -0.824554785683    15.994914619560
           C         -0.943663396710     0.835134926412     0.442701214317    12.000000000000
           H          0.268691603290    -0.764689073588     1.267310214317     1.007825032070
           H          1.186533603290     0.422950926412     0.400982214317     1.007825032070
           C         -0.922379396710     1.726040926412     1.685762214317    12.000000000000
           H         -1.865141396710     0.261814926412     0.416499214317     1.007825032070
           H         -0.946252396710     1.450869926412    -0.451371785683     1.007825032070
           C         -2.109311396710     2.686741926412     1.742766214317    12.000000000000
           H         -0.919062396710     1.104103926412     2.578656214317     1.007825032070
           H          0.004106603290     2.296288926412     1.708405214317     1.007825032070
           H         -3.050805396710     2.145389926412     1.756204214317     1.007825032070
           H         -2.070453396710     3.306245926412     2.633262214317     1.007825032070
           H         -2.120686396710     3.346488926412     0.880070214317     1.007825032070
           C          2.578553603290    -1.215212073588    -0.824237785683    12.000000000000
           H          2.709343603290    -0.603282073588    -1.705102785683     1.007825032070
           H          3.289573603290    -2.026630073588    -0.823653785683     1.007825032070
           H          2.708609603290    -0.602648073588     0.056306214317     1.007825032070

  Charge       = 0
  Multiplicity = 1
  Basis Set: 6-31G*
  Basis Set:

    Orbital Energies (a.u.)
    -----------------------

    Doubly Occupied:

       1A    -20.592963     2A    -20.553172     3A    -11.374279
       4A    -11.297289     5A    -11.238685     6A    -11.222914
       7A    -11.221777     8A    -11.212625     9A     -1.465027
      10A     -1.369392    11A     -1.090279    12A     -1.017887
      13A     -0.983091    14A     -0.901435    15A     -0.809672
      16A     -0.768056    17A     -0.697079    18A     -0.682161
      19A     -0.681266    20A     -0.648199    21A     -0.618937
      22A     -0.590755    23A     -0.585656    24A     -0.557503
      25A     -0.539792    26A     -0.519641    27A     -0.494668
      28A     -0.483030    29A     -0.479719    30A     -0.473074
      31A     -0.454560    32A     -0.431467

  @DF-RHF Final Energy:  -383.91609618686630

   => Energetics <=

    Nuclear Repulsion Energy =            384.5485291822340059
    One-Electron Energy =               -1284.8171579023137383
    Two-Electron Energy =                 516.3525325332118427
    DFT Exchange-Correlation Energy =       0.0000000000000000
    Empirical Dispersion Energy =           0.0000000000000000
    PCM Polarization Energy =               0.0000000000000000
    EFP Energy =                            0.0000000000000000
    Total Energy =                       -383.9160961868678896

  Mulliken Charges: (a.u.)
   Center  Symbol    Alpha    Beta     Spin     Total
       1     O     4.26009  4.26009  0.00000 -0.52018
       2     C     2.60721  2.60721  0.00000  0.78559
       3     C     3.22568  3.22568  0.00000 -0.45136
       4     O     4.30526  4.30526  0.00000 -0.61052
       5     C     3.14958  3.14958  0.00000 -0.29916
       6     H     0.39875  0.39875  0.00000  0.20250
       7     H     0.40722  0.40722  0.00000  0.18556
       8     C     3.15396  3.15396  0.00000 -0.30791
       9     H     0.41008  0.41008  0.00000  0.17985
      10     H     0.41254  0.41254  0.00000  0.17493
      11     C     3.23943  3.23943  0.00000 -0.47887
      12     H     0.42294  0.42294  0.00000  0.15413
      13     H     0.42468  0.42468  0.00000  0.15064
      14     H     0.41922  0.41922  0.00000  0.16157
      15     H     0.41868  0.41868  0.00000  0.16263
      16     H     0.41994  0.41994  0.00000  0.16013
      17     C     3.09788  3.09788  0.00000 -0.19576
      18     H     0.41077  0.41077  0.00000  0.17847
      19     H     0.39873  0.39873  0.00000  0.20254
      20     H     0.41738  0.41738  0.00000  0.16524

   Total alpha = 32.00000, Total beta = 32.00000, Total charge =  0.00000
