  ==> Input File <==

--------------------------------------------------------------------------
set {
	reference rhf
	basis cc-pvtz
}

set_num_threads( 4 )
memory 2 gb

molecule MOL {
0 1

H	 0.673621	 -0.573338	 -1.839598
O	 0.268794	 0.229652	 -2.114869
C	 0.133222	 1.086853	 -1.023790
C	 -0.793473	 0.591216	 0.050087
H	 -0.243719	 2.024369	 -1.415300
H	 1.102400	 1.304381	 -0.578734
C	 -1.534243	 -0.493009	 -0.013340
H	 -0.827131	 1.207372	 0.933528
H	 -1.101195	 -1.466332	 -0.144046
H	 -2.604242	 -0.437780	 0.050785

	symmetry c1
}
set optking {
	frozen_dihedral = ("
		3 4 7 9
	")
}

ee = optimize('scf')
oeprop('DIPOLE', 'QUADRUPOLE', 'MULLIKEN_CHARGES')
f=open( 'psi4out.xyz', 'w' )
f.write( "10  " )
f.write( str(ee) + "\n" )
f.write( MOL.save_string_xyz() )
f.close()
--------------------------------------------------------------------------

    Molecular point group: c1
  Charge       = 0
  Multiplicity = 1
  Basis Set: CC-PVTZ
  Basis Set:
  @DF-RHF Final Energy:  -191.91595362464557
    Total Energy =                       -191.9159536246456526
    Molecular point group: c1
  Basis Set: CC-PVTZ
  Basis Set:
  Basis Set: CC-PVTZ
  Basis Set:
  @DF-RHF Final Energy:  -191.94228310821995
    Total Energy =                       -191.9422831082199821
  Basis Set: CC-PVTZ
  Basis Set:
  Basis Set: CC-PVTZ
  Basis Set:
  @DF-RHF Final Energy:  -191.96424921481787
    Total Energy =                       -191.9642492148177269
  Basis Set: CC-PVTZ
  Basis Set:
  Basis Set: CC-PVTZ
  Basis Set:
  @DF-RHF Final Energy:  -191.96864226801273
    Total Energy =                       -191.9686422680127862
  Basis Set: CC-PVTZ
  Basis Set:
  @DF-RHF Final Energy:  -191.96884993321282
    Total Energy =                       -191.9688499332125957
  @DF-RHF Final Energy:  -191.96733450327343
    Total Energy =                       -191.9673345032735483
  @DF-RHF Final Energy:  -191.96885921168686
    Total Energy =                       -191.9688592116869472
  @DF-RHF Final Energy:  -191.96886274808082
    Total Energy =                       -191.9688627480809373
  @DF-RHF Final Energy:  -191.96599893715802
    Total Energy =                       -191.9659989371579343
  @DF-RHF Final Energy:  -191.96433725671113
    Total Energy =                       -191.9643372567111328
  Basis Set: CC-PVTZ
  Basis Set:
  @DF-RHF Final Energy:  -191.96867401875420
    Total Energy =                       -191.9686740187540579
  Basis Set: CC-PVTZ
  Basis Set:
  Basis Set: CC-PVTZ
  Basis Set:
  @DF-RHF Final Energy:  -191.96885865862134
    Total Energy =                       -191.9688586586213148
  Basis Set: CC-PVTZ
  Basis Set:
  Basis Set: CC-PVTZ
  Basis Set:
  @DF-RHF Final Energy:  -191.96886472835968
    Total Energy =                       -191.9688647283596765
  Basis Set: CC-PVTZ
  Basis Set:
  Charge       = 0
  Multiplicity = 1
  Basis Set: CC-PVTZ
  Basis Set:

    Orbital Energies (a.u.)
    -----------------------

    Doubly Occupied:

       1A    -20.553239     2A    -11.281731     3A    -11.236169
       4A    -11.221406     5A     -1.373181     6A     -1.062706
       7A     -0.934626     8A     -0.772633     9A     -0.692808
      10A     -0.655028    11A     -0.617020    12A     -0.573827
      13A     -0.546276    14A     -0.489810    15A     -0.449928
      16A     -0.359977

  @DF-RHF Final Energy:  -191.96886523364668

   => Energetics <=

    Nuclear Repulsion Energy =            118.3324976780386919
    One-Electron Energy =                -494.9619973143529705
    Two-Electron Energy =                 184.6606344026677107
    DFT Exchange-Correlation Energy =       0.0000000000000000
    Empirical Dispersion Energy =           0.0000000000000000
    PCM Polarization Energy =               0.0000000000000000
    EFP Energy =                            0.0000000000000000
    Total Energy =                       -191.9688652336465680
    Molecular point group: c1
  Basis Set: CC-PVTZ
  Basis Set:

  -Total Gradient:
     Atom            X                  Y                   Z
    ------   -----------------  -----------------  -----------------
       1        0.000016683819     0.000005274641    -0.000001816153
       2       -0.000029359925    -0.000000493495     0.000062589952
       3       -0.016333896195     0.017570066500    -0.004324725456
       4        0.030642201108    -0.034636038147     0.021561086801
       5       -0.000006566624    -0.000002763949     0.000001860333
       6       -0.000012167253    -0.000011627729    -0.000007374455
       7       -0.019483117305     0.026910084059    -0.047430693775
       8       -0.000113052120     0.000106681611    -0.000111988923
       9        0.005303815487    -0.010037181018     0.030304654179
      10        0.000015459008     0.000095997526    -0.000053592503

  **** Optimization is complete! (in 14 steps) ****
    Final optimized geometry and variables:
    Molecular point group: c1

    Geometry (in Angstrom), charge = 0, multiplicity = 1:

    H            1.367364873872    -0.835809554689    -0.947569685470
    O            0.851370644971    -0.107334028999    -1.241827148788
    C            0.562066392845     0.736155283991    -0.168741357792
    C           -0.339978100673     0.153578718277     0.886852786185
    H            0.025852892973     1.582818278987    -0.575890362079
    H            1.475934426966     1.124228499147     0.277049887781
    C           -1.284888286037    -0.767465899568     0.746115088810
    H           -0.540298135691     0.905717890213     1.639027499949
    H           -1.124939705506    -1.769564376538     0.386242042684
    H           -2.061206860786    -0.759747158842     1.495544345700

  Mulliken Charges: (a.u.)
   Center  Symbol    Alpha    Beta     Spin     Total
       1     H     0.39321  0.39321  0.00000  0.21357
       2     O     4.19663  4.19663  0.00000 -0.39325
       3     C     2.95879  2.95879  0.00000  0.08242
       4     C     3.08734  3.08734  0.00000 -0.17467
       5     H     0.44796  0.44796  0.00000  0.10407
       6     H     0.46407  0.46407  0.00000  0.07187
       7     C     3.15349  3.15349  0.00000 -0.30698
       8     H     0.43265  0.43265  0.00000  0.13469
       9     H     0.43059  0.43059  0.00000  0.13882
      10     H     0.43527  0.43527  0.00000  0.12945

   Total alpha = 16.00000, Total beta = 16.00000, Total charge = -0.00000
