  ==> Input File <==

--------------------------------------------------------------------------
set {
	reference rhf
	basis 6-31G*
}

set_num_threads( 4 )
memory 2 gb

molecule MOL {
0 1

O	 1.066834	 -2.032293	 1.712165
C	 0.275803	 -1.645901	 0.914452
C	 -1.147444	 -2.120194	 0.804999
O	 0.550821	 -0.724572	 0.000672
H	 -1.823175	 -1.281819	 0.928282
H	 -1.339790	 -2.865528	 1.562212
H	 -1.318951	 -2.538157	 -0.180127
C	 1.863949	 -0.193559	 -0.000319
H	 2.028859	 0.409284	 -0.881648
H	 2.526261	 -1.045082	 -0.000003
H	 2.029520	 0.410555	 0.880008

	symmetry c1
}
set optking {
	frozen_dihedral = ("
		2 4 8 9
	")
}

ee = optimize('scf')
oeprop('DIPOLE', 'QUADRUPOLE', 'MULLIKEN_CHARGES')
f=open( 'psi4out.xyz', 'w' )
f.write( "11  " )
f.write( str(ee) + "\n" )
f.write( MOL.save_string_xyz() )
f.close()
--------------------------------------------------------------------------

    Molecular point group: c1
  Charge       = 0
  Multiplicity = 1
  Basis Set: 6-31G*
  Basis Set:
  @DF-RHF Final Energy:  -266.83459854450854
    Total Energy =                       -266.8345985445085375
    Molecular point group: c1
  Basis Set: 6-31G*
  Basis Set:
  Basis Set: 6-31G*
  Basis Set:
  @DF-RHF Final Energy:  -266.83590603452427
    Total Energy =                       -266.8359060345245553
  Basis Set: 6-31G*
  Basis Set:
  Basis Set: 6-31G*
  Basis Set:
  @DF-RHF Final Energy:  -266.83595082645559
    Total Energy =                       -266.8359508264555870
  Basis Set: 6-31G*
  Basis Set:
  Basis Set: 6-31G*
  Basis Set:
  @DF-RHF Final Energy:  -266.83623605643027
    Total Energy =                       -266.8362360564301525
  Basis Set: 6-31G*
  Basis Set:
  Basis Set: 6-31G*
  Basis Set:
  @DF-RHF Final Energy:  -266.83627183995480
    Total Energy =                       -266.8362718399547475
  Basis Set: 6-31G*
  Basis Set:
  Charge       = 0
  Multiplicity = 1
  Basis Set: 6-31G*
  Basis Set:

    Orbital Energies (a.u.)
    -----------------------

    Doubly Occupied:

       1A    -20.605826     2A    -20.546475     3A    -11.376569
       4A    -11.282047     5A    -11.234731     6A     -1.471054
       7A     -1.364560     8A     -1.035957     9A     -0.953022
      10A     -0.778182    11A     -0.695851    12A     -0.681057
      13A     -0.677181    14A     -0.595597    15A     -0.591723
      16A     -0.560731    17A     -0.525522    18A     -0.523011
      19A     -0.457859    20A     -0.442347

  @DF-RHF Final Energy:  -266.83627376925256

   => Energetics <=

    Nuclear Repulsion Energy =            183.2934187252009508
    One-Electron Energy =                -727.4607800119505328
    Two-Electron Energy =                 277.3310875174973944
    DFT Exchange-Correlation Energy =       0.0000000000000000
    Empirical Dispersion Energy =           0.0000000000000000
    PCM Polarization Energy =               0.0000000000000000
    EFP Energy =                            0.0000000000000000
    Total Energy =                       -266.8362737692522160
    Molecular point group: c1
  Basis Set: 6-31G*
  Basis Set:

  -Total Gradient:
     Atom            X                  Y                   Z
    ------   -----------------  -----------------  -----------------
       1        0.000028321602     0.000059349830    -0.000070061318
       2        0.000194468740    -0.000615504512    -0.000523365847
       3       -0.000037395887    -0.000019722001     0.000009331306
       4       -0.000220044969     0.000675766482     0.000672668627
       5       -0.000002548944    -0.000007208292    -0.000002623874
       6       -0.000016479683    -0.000005683560     0.000000401996
       7       -0.000002986650     0.000002806294     0.000006971878
       8       -0.000262656302     0.000679248791     0.000393096029
       9        0.000288637532    -0.000772484405    -0.000442959297
      10        0.000022028995    -0.000026987733    -0.000012906557
      11        0.000008655565     0.000030419106    -0.000030552946

  **** Optimization is complete! (in 6 steps) ****
    Final optimized geometry and variables:
    Molecular point group: c1

    Geometry (in Angstrom), charge = 0, multiplicity = 1:

    O            0.518358424890    -0.706898672960     1.035953562725
    C           -0.266152301691    -0.312762358970     0.235630567849
    C           -1.690293352260    -0.781837238125     0.114225665010
    O            0.017429775830     0.611908009647    -0.672318413219
    H           -2.363808702687     0.058137431457     0.238883910082
    H           -1.889996668750    -1.531212790874     0.865436536209
    H           -1.857287334227    -1.192717410116    -0.874693630104
    C            1.336945875202     1.127158553694    -0.679208939676
    H            1.419852901700     1.715668178074    -1.579549695482
    H            2.059102956949     0.324585836604    -0.691177989391
    H            1.505067024833     1.745435596323     0.191493419086

  Mulliken Charges: (a.u.)
   Center  Symbol    Alpha    Beta     Spin     Total
       1     O     4.28199  4.28199  0.00000 -0.56398
       2     C     2.62255  2.62255  0.00000  0.75491
       3     C     3.28176  3.28176  0.00000 -0.56352
       4     O     4.29949  4.29949  0.00000 -0.59898
       5     H     0.39983  0.39983  0.00000  0.20035
       6     H     0.39657  0.39657  0.00000  0.20686
       7     H     0.39998  0.39998  0.00000  0.20003
       8     C     3.09280  3.09280  0.00000 -0.18561
       9     H     0.40851  0.40851  0.00000  0.18297
      10     H     0.40604  0.40604  0.00000  0.18793
      11     H     0.41048  0.41048  0.00000  0.17904

   Total alpha = 20.00000, Total beta = 20.00000, Total charge =  0.00000
