  ==> Input File <==

--------------------------------------------------------------------------
set {
	reference rhf
	basis 6-31G*
}

set_num_threads( 4 )
memory 2 gb

molecule MOL {
0 1

H	 -1.508307	 -1.251972	 -0.638820
O	 -2.310168	 -0.871793	 -0.309793
C	 -2.026376	 0.340750	 0.341611
C	 -0.673256	 0.843270	 -0.132153
H	 -2.792215	 1.080697	 0.115987
H	 -2.013526	 0.200402	 1.421792
C	 0.486613	 -0.083066	 0.235839
H	 -0.715586	 0.970948	 -1.210718
H	 -0.508072	 1.829858	 0.297090
C	 1.840406	 0.433480	 -0.254303
H	 0.300215	 -1.068318	 -0.178947
H	 0.519509	 -0.203625	 1.318070
C	 3.000220	 -0.489290	 0.118523
H	 1.809207	 0.553576	 -1.335192
H	 2.021860	 1.424500	 0.157276
H	 2.864959	 -1.479103	 -0.307933
H	 3.946603	 -0.099227	 -0.243630
H	 3.080049	 -0.602997	 1.196117

	symmetry c1
}
set optking {
	frozen_dihedral = ("
		1 2 3 4
	")
}

ee = optimize('scf')
oeprop('DIPOLE', 'QUADRUPOLE', 'MULLIKEN_CHARGES')
f=open( 'psi4out.xyz', 'w' )
f.write( "18  " )
f.write( str(ee) + "\n" )
f.write( MOL.save_string_xyz() )
f.close()
--------------------------------------------------------------------------

    Molecular point group: c1
  Charge       = 0
  Multiplicity = 1
  Basis Set: 6-31G*
  Basis Set:
  @DF-RHF Final Energy:  -271.17403775139690
    Total Energy =                       -271.1740377513968951
    Molecular point group: c1
  Basis Set: 6-31G*
  Basis Set:
  Basis Set: 6-31G*
  Basis Set:
  @DF-RHF Final Energy:  -271.17561506704010
    Total Energy =                       -271.1756150670400984
  Basis Set: 6-31G*
  Basis Set:
  Basis Set: 6-31G*
  Basis Set:
  @DF-RHF Final Energy:  -271.17666372277648
    Total Energy =                       -271.1766637227763113
  Basis Set: 6-31G*
  Basis Set:
  Basis Set: 6-31G*
  Basis Set:
  @DF-RHF Final Energy:  -271.17673826309590
    Total Energy =                       -271.1767382630957854
  Basis Set: 6-31G*
  Basis Set:
  Basis Set: 6-31G*
  Basis Set:
  @DF-RHF Final Energy:  -271.17674695452240
    Total Energy =                       -271.1767469545222298
  Basis Set: 6-31G*
  Basis Set:
  Charge       = 0
  Multiplicity = 1
  Basis Set: 6-31G*
  Basis Set:

    Orbital Energies (a.u.)
    -----------------------

    Doubly Occupied:

       1A    -20.548622     2A    -11.266469     3A    -11.226526
       4A    -11.223889     5A    -11.223589     6A    -11.214732
       7A     -1.356242     8A     -1.087458     9A     -1.015508
      10A     -0.923896    11A     -0.835265    12A     -0.799223
      13A     -0.671174    14A     -0.658486    15A     -0.626113
      16A     -0.613400    17A     -0.577991    18A     -0.561684
      19A     -0.538698    20A     -0.505490    21A     -0.497442
      22A     -0.480044    23A     -0.473610    24A     -0.449632
      25A     -0.429149

  @DF-RHF Final Energy:  -271.17674705104889

   => Energetics <=

    Nuclear Repulsion Energy =            248.6731923576794827
    One-Electron Energy =                -860.0912084662520556
    Two-Electron Energy =                 340.2412690575237093
    DFT Exchange-Correlation Energy =       0.0000000000000000
    Empirical Dispersion Energy =           0.0000000000000000
    PCM Polarization Energy =               0.0000000000000000
    EFP Energy =                            0.0000000000000000
    Total Energy =                       -271.1767470510488920
    Molecular point group: c1
  Basis Set: 6-31G*
  Basis Set:

  -Total Gradient:
     Atom            X                  Y                   Z
    ------   -----------------  -----------------  -----------------
       1       -0.000246829520     0.000730769255    -0.001364371820
       2        0.000605160914    -0.001279345508     0.001902054051
       3       -0.000798014541     0.001020602116    -0.001261216711
       4        0.000402454748    -0.000623419141     0.000567829262
       5        0.000036365161     0.000093638199     0.000033408520
       6        0.000016551460     0.000026412958     0.000025487681
       7       -0.000003964595    -0.000003394541     0.000036602587
       8        0.000016979022     0.000039446467    -0.000029036557
       9       -0.000030015457    -0.000041965621     0.000031403263
      10       -0.000002371873     0.000006700863     0.000032374646
      11        0.000012322524     0.000009808089     0.000024529842
      12        0.000016376982     0.000027510536     0.000028907942
      13       -0.000026225649    -0.000027551259    -0.000046579047
      14       -0.000005760909     0.000023628782     0.000007296243
      15        0.000021091051    -0.000006551138     0.000025382079
      16        0.000000919554    -0.000012094487     0.000007324944
      17       -0.000009244324    -0.000000377908    -0.000015806613
      18       -0.000005794547     0.000016182340    -0.000005590314

  **** Optimization is complete! (in 6 steps) ****
    Final optimized geometry and variables:
    Molecular point group: c1

    Geometry (in Angstrom), charge = 0, multiplicity = 1:

    H           -1.730326999632    -1.316404403332    -0.651813881019
    O           -2.461423103154    -0.852455138969    -0.273325862768
    C           -2.026372520720     0.336339934611     0.339232951841
    C           -0.665134953585     0.820972036183    -0.148461931880
    H           -2.777672594271     1.089472548230     0.132523949885
    H           -1.995996704210     0.195306558911     1.417850299214
    C            0.503684701940    -0.093736809167     0.231330085895
    H           -0.702424513964     0.947298659302    -1.228982049414
    H           -0.490689942517     1.808590339374     0.272358925434
    C            1.857501750329     0.440595992116    -0.240125495568
    H            0.360530285742    -1.089757987721    -0.186198224872
    H            0.521271842098    -0.221161545611     1.311990302257
    C            3.022751990016    -0.475726396283     0.130618105763
    H            1.834325395363     0.577885216198    -1.318950677921
    H            2.022231077314     1.426366680512     0.189127530804
    H            2.904501217877    -1.460472643011    -0.312657941590
    H            3.967338702800    -0.068823547055    -0.216227535697
    H            3.093168812785    -0.604733746626     1.206859268125

  Mulliken Charges: (a.u.)
   Center  Symbol    Alpha    Beta     Spin     Total
       1     H     0.27789  0.27789  0.00000  0.44422
       2     O     4.37883  4.37883  0.00000 -0.75766
       3     C     2.97719  2.97719  0.00000  0.04563
       4     C     3.18439  3.18439  0.00000 -0.36879
       5     H     0.41932  0.41932  0.00000  0.16137
       6     H     0.42972  0.42972  0.00000  0.14055
       7     C     3.15615  3.15615  0.00000 -0.31231
       8     H     0.41701  0.41701  0.00000  0.16597
       9     H     0.41783  0.41783  0.00000  0.16434
      10     C     3.15096  3.15096  0.00000 -0.30191
      11     H     0.43038  0.43038  0.00000  0.13924
      12     H     0.41854  0.41854  0.00000  0.16292
      13     C     3.23986  3.23986  0.00000 -0.47971
      14     H     0.42148  0.42148  0.00000  0.15704
      15     H     0.42107  0.42107  0.00000  0.15786
      16     H     0.42129  0.42129  0.00000  0.15743
      17     H     0.41763  0.41763  0.00000  0.16475
      18     H     0.42046  0.42046  0.00000  0.15909

   Total alpha = 25.00000, Total beta = 25.00000, Total charge =  0.00000
