  ==> Input File <==

--------------------------------------------------------------------------
set {
	reference rhf
	basis 6-31G*
}

set_num_threads( 1 )
memory 2 gb

molecule MOL {
0 1

O	 1.836783	 1.313980	 -0.135545
C	 1.676710	 0.166183	 -0.400227
C	 0.354110	 -0.560823	 -0.392636
O	 2.668272	 -0.643558	 -0.749887
C	 -0.823008	 0.326187	 0.001381
H	 0.212175	 -0.986927	 -1.382082
H	 0.452626	 -1.406985	 0.281919
C	 -2.149452	 -0.435131	 -0.000098
H	 -0.880207	 1.168399	 -0.680965
H	 -0.640122	 0.747019	 0.985130
C	 -3.368779	 0.488503	 -0.000883
H	 -2.193746	 -1.087250	 -0.871175
H	 -2.195311	 -1.087803	 0.870418
C	 -4.693822	 -0.272754	 -0.001129
H	 -3.325798	 1.139422	 -0.871284
H	 -3.326423	 1.139959	 0.869145
H	 -4.781274	 -0.907928	 -0.878124
H	 -5.538651	 0.408946	 -0.001420
H	 -4.781694	 -0.907783	 0.875984
C	 3.968075	 -0.084022	 -0.798754
H	 4.008599	 0.720650	 -1.518746
H	 4.623887	 -0.886766	 -1.097733
H	 4.256245	 0.293167	 0.171911

	symmetry c1
}
set optking {
	frozen_dihedral = ("
		15 11 8 12,
		1 2 3 6,
		9 5 3 6,
		1 2 4 20
	")
}

ee = energy('scf')
oeprop('DIPOLE', 'QUADRUPOLE', 'MULLIKEN_CHARGES')
f=open( 'psi4out.xyz', 'w' )
f.write( "23  " )
f.write( str(ee) + "\n" )
f.write( MOL.save_string_xyz() )
f.close()
--------------------------------------------------------------------------

    Molecular point group: c1

    Geometry (in Angstrom), charge = 0, multiplicity = 1:

       Center              X                  Y                   Z               Mass
    ------------   -----------------  -----------------  -----------------  -----------------
           O          1.856737935472     1.278666711066     0.145340207757    15.994914619560
           C          1.696664935472     0.130869711066    -0.119341792243    12.000000000000
           C          0.374064935472    -0.596136288934    -0.111750792243    12.000000000000
           O          2.688226935472    -0.678871288934    -0.469001792243    15.994914619560
           C         -0.803053064528     0.290873711066     0.282266207757    12.000000000000
           H          0.232129935472    -1.022240288934    -1.101196792243     1.007825032070
           H          0.472580935472    -1.442298288934     0.562804207757     1.007825032070
           C         -2.129497064528    -0.470444288934     0.280787207757    12.000000000000
           H         -0.860252064528     1.133085711066    -0.400079792243     1.007825032070
           H         -0.620167064528     0.711705711066     1.266015207757     1.007825032070
           C         -3.348824064528     0.453189711066     0.280002207757    12.000000000000
           H         -2.173791064528    -1.122563288934    -0.590289792243     1.007825032070
           H         -2.175356064528    -1.123116288934     1.151303207757     1.007825032070
           C         -4.673867064528    -0.308067288934     0.279756207757    12.000000000000
           H         -3.305843064528     1.104108711066    -0.590398792243     1.007825032070
           H         -3.306468064528     1.104645711066     1.150030207757     1.007825032070
           H         -4.761319064528    -0.943241288934    -0.597238792243     1.007825032070
           H         -5.518696064528     0.373632711066     0.279465207757     1.007825032070
           H         -4.761739064528    -0.943096288934     1.156869207757     1.007825032070
           C          3.988029935472    -0.119335288934    -0.517868792243    12.000000000000
           H          4.028553935472     0.685336711066    -1.237860792243     1.007825032070
           H          4.643841935472    -0.922079288934    -0.816847792243     1.007825032070
           H          4.276199935472     0.257853711066     0.452796207757     1.007825032070

  Charge       = 0
  Multiplicity = 1
  Basis Set: 6-31G*
  Basis Set:

    Orbital Energies (a.u.)
    -----------------------

    Doubly Occupied:

       1A    -20.603595     2A    -20.545390     3A    -11.372160
       4A    -11.280832     5A    -11.235602     6A    -11.218982
       7A    -11.217612     8A    -11.216541     9A    -11.209595
      10A     -1.469290    11A     -1.362721    12A     -1.093242
      13A     -1.043606    14A     -0.987010    15A     -0.932067
      16A     -0.843610    17A     -0.795129    18A     -0.767319
      19A     -0.697241    20A     -0.683642    21A     -0.671591
      22A     -0.650617    23A     -0.609978    24A     -0.599329
      25A     -0.572677    26A     -0.558529    27A     -0.556932
      28A     -0.524418    29A     -0.521073    30A     -0.506932
      31A     -0.485191    32A     -0.470012    33A     -0.465631
      34A     -0.460817    35A     -0.455346    36A     -0.435319

  @DF-RHF Final Energy:  -422.97534566973832

   => Energetics <=

    Nuclear Repulsion Energy =            452.2820838224757836
    One-Electron Energy =               -1472.2756676259875803
    Two-Electron Energy =                 597.0182381337706374
    DFT Exchange-Correlation Energy =       0.0000000000000000
    Empirical Dispersion Energy =           0.0000000000000000
    PCM Polarization Energy =               0.0000000000000000
    EFP Energy =                            0.0000000000000000
    Total Energy =                       -422.9753456697411593

  Mulliken Charges: (a.u.)
   Center  Symbol    Alpha    Beta     Spin     Total
       1     O     4.28607  4.28607  0.00000 -0.57215
       2     C     2.60498  2.60498  0.00000  0.79003
       3     C     3.20873  3.20873  0.00000 -0.41746
       4     O     4.30741  4.30741  0.00000 -0.61481
       5     C     3.15278  3.15278  0.00000 -0.30555
       6     H     0.40055  0.40055  0.00000  0.19891
       7     H     0.40061  0.40061  0.00000  0.19878
       8     C     3.15366  3.15366  0.00000 -0.30732
       9     H     0.41165  0.41165  0.00000  0.17669
      10     H     0.41098  0.41098  0.00000  0.17804
      11     C     3.15201  3.15201  0.00000 -0.30401
      12     H     0.42469  0.42469  0.00000  0.15062
      13     H     0.42243  0.42243  0.00000  0.15515
      14     C     3.23971  3.23971  0.00000 -0.47941
      15     H     0.42157  0.42157  0.00000  0.15686
      16     H     0.42101  0.42101  0.00000  0.15798
      17     H     0.42189  0.42189  0.00000  0.15622
      18     H     0.41851  0.41851  0.00000  0.16298
      19     H     0.42172  0.42172  0.00000  0.15656
      20     C     3.09245  3.09245  0.00000 -0.18489
      21     H     0.40906  0.40906  0.00000  0.18188
      22     H     0.40844  0.40844  0.00000  0.18312
      23     H     0.40910  0.40910  0.00000  0.18180

   Total alpha = 36.00000, Total beta = 36.00000, Total charge = -0.00000
