                              Psi4 1.0.54 Driver

  ==> Input File <==

--------------------------------------------------------------------------
set {
	reference rhf
	basis cc-pvtz
}

set_num_threads( 4 )
memory 2 gb

molecule MOL {
0 1

H	 -2.816458	 -0.841657	 -0.064679
N	 -1.878861	 -0.711874	 0.250184
C	 -1.341419	 0.551458	 -0.220231
H	 -1.333674	 -1.468530	 -0.105118
C	 -0.343238	 1.104688	 0.770839
H	 -0.856496	 0.480717	 -1.193056
H	 -2.155502	 1.261816	 -0.313576
O	 0.752398	 0.242619	 0.835074
H	 -0.020971	 2.096353	 0.456327
H	 -0.809911	 1.192267	 1.749345
C	 1.716669	 0.604907	 1.766819
H	 2.510549	 -0.126815	 1.725309
H	 2.133750	 1.585378	 1.546781
H	 1.308967	 0.623040	 2.774793

	symmetry c1
}
set optking {
	frozen_dihedral = ("
		6 3 2 4
	")
}

ee,wfn = optimize('scf', return_wfn=True)
oeprop( wfn, 'DIPOLE', 'QUADRUPOLE', 'MULLIKEN_CHARGES')
f=open( 'psi4out.xyz', 'w' )
f.write( "14  " )
f.write( str(ee) + "\n" )
f.write( MOL.save_string_xyz() )
f.close()
--------------------------------------------------------------------------

    Molecular point group: c1
  Charge       = 0
  Multiplicity = 1
  Basis Set: CC-PVTZ
  Basis Set:
  @DF-RHF Final Energy:  -248.22359238122118
    Total Energy =                       -248.2235923812212945
    Molecular point group: c1
  Basis Set: CC-PVTZ
  Basis Set:
  Basis Set: CC-PVTZ
  Basis Set:
  @DF-RHF Final Energy:  -248.22374414335263
    Total Energy =                       -248.2237441433524623
  Basis Set: CC-PVTZ
  Basis Set:
  Basis Set: CC-PVTZ
  Basis Set:
  @DF-RHF Final Energy:  -248.22388145404341
    Total Energy =                       -248.2238814540434646
  Basis Set: CC-PVTZ
  Basis Set:
  Basis Set: CC-PVTZ
  Basis Set:
  @DF-RHF Final Energy:  -248.22388563356276
    Total Energy =                       -248.2238856335627020
  Basis Set: CC-PVTZ
  Basis Set:
  Charge       = 0
  Multiplicity = 1
  Basis Set: CC-PVTZ
  Basis Set:

    Orbital Energies (a.u.)
    -----------------------

    Doubly Occupied:

       1A    -20.545714     2A    -15.526063     3A    -11.259831
       4A    -11.259156     5A    -11.240931     6A     -1.380087
       7A     -1.176275     8A     -0.999431     9A     -0.904224
      10A     -0.813775    11A     -0.682204    12A     -0.675517
      13A     -0.640380    14A     -0.620312    15A     -0.604842
      16A     -0.533235    17A     -0.524353    18A     -0.501839
      19A     -0.472711    20A     -0.415539    21A     -0.385586

  @DF-RHF Final Energy:  -248.22388631536441

   => Energetics <=

    Nuclear Repulsion Energy =            194.0850735221901857
    One-Electron Energy =                -722.2939146827650347
    Two-Electron Energy =                 279.9849548452102113
    DFT Exchange-Correlation Energy =       0.0000000000000000
    Empirical Dispersion Energy =           0.0000000000000000
    PCM Polarization Energy =               0.0000000000000000
    EFP Energy =                            0.0000000000000000
    Total Energy =                       -248.2238863153646093
    Molecular point group: c1
  Basis Set: CC-PVTZ
  Basis Set:

  -Total Gradient:
     Atom            X                  Y                   Z
    ------   -----------------  -----------------  -----------------
       1       -0.000014111322     0.000006422398     0.000009861768
       2        0.003702583562    -0.000250041217     0.004537824729
       3       -0.004561678175     0.001232922006    -0.003027045519
       4       -0.002228319459    -0.000003773488    -0.003255244812
       5       -0.000045397006     0.000005737520     0.000019964721
       6        0.003108831826    -0.000950898040     0.001702228846
       7        0.000012526343    -0.000017309991     0.000003283098
       8       -0.000018370936    -0.000014649092    -0.000033448051
       9       -0.000008054651    -0.000033013457    -0.000006438079
      10        0.000005174236     0.000013254036     0.000016747190
      11        0.000038253890     0.000020938383     0.000029192195
      12       -0.000004297599     0.000009490218     0.000003814428
      13        0.000006314073    -0.000015154218     0.000008765913
      14        0.000006545224    -0.000003925059    -0.000009506427

  **** Optimization is complete! (in 5 steps) ****
    Final optimized geometry and variables:
    Molecular point group: c1

    Geometry (in Angstrom), charge = 0, multiplicity = 1:

    H           -2.665127469387    -1.027708632141    -0.824758637777
    N           -1.741264327281    -0.953578128951    -0.455888493389
    C           -1.122262611678     0.294766256133    -0.878337153094
    H           -1.234253402161    -1.737187099261    -0.807097088827
    C           -0.092750542350     0.757623026374     0.130127773077
    H           -0.614653340334     0.210528173256    -1.836460216827
    H           -1.885453291859     1.058678712321    -0.965435286676
    O            0.976164499633    -0.137493647358     0.117640799026
    H            0.256343036460     1.758098211807    -0.127124027703
    H           -0.542699787277     0.796441640415     1.119248268074
    C            1.948332162186     0.111806660875     1.076668983060
    H            2.722954638608    -0.633497297598     0.966687804178
    H            2.392058578765     1.097287576926     0.948534052043
    H            1.540624715241     0.046949554303     2.082722470649

  Mulliken Charges: (a.u.)
   Center  Symbol    Alpha    Beta     Spin     Total
       1     H     0.42927  0.42927  0.00000  0.14145
       2     N     3.68891  3.68891  0.00000 -0.37783
       3     C     3.03538  3.03538  0.00000 -0.07076
       4     H     0.42558  0.42558  0.00000  0.14884
       5     C     2.95775  2.95775  0.00000  0.08449
       6     H     0.46038  0.46038  0.00000  0.07924
       7     H     0.45597  0.45597  0.00000  0.08805
       8     O     4.17816  4.17816  0.00000 -0.35632
       9     H     0.47379  0.47379  0.00000  0.05242
      10     H     0.47253  0.47253  0.00000  0.05493
      11     C     3.03058  3.03058  0.00000 -0.06116
      12     H     0.44831  0.44831  0.00000  0.10337
      13     H     0.47326  0.47326  0.00000  0.05347
      14     H     0.47011  0.47011  0.00000  0.05979

   Total alpha = 21.00000, Total beta = 21.00000, Total charge = -0.00000

*** Psi4 exiting successfully. Buy a developer a beer!
