  ==> Input File <==

--------------------------------------------------------------------------
set {
	reference rhf
	basis 6-31G*
}

set_num_threads( 4 )
memory 2 gb

molecule MOL {
0 1

O	 -1.962389	 0.486211	 0.843954
C	 -1.083277	 0.139568	 0.115197
C	 0.323299	 -0.082943	 0.642902
C	 -1.314556	 -0.070442	 -1.364747
C	 1.355627	 -0.005344	 -0.493127
H	 0.396251	 -1.044647	 1.143147
H	 0.528637	 0.693580	 1.371677
C	 2.786168	 -0.195604	 0.007473
H	 1.132807	 -0.760304	 -1.243899
H	 1.259610	 0.958506	 -0.981915
H	 3.495561	 -0.130713	 -0.811210
H	 2.912696	 -1.165395	 0.480041
H	 3.049284	 0.565503	 0.735850
H	 -0.582323	 0.477472	 -1.950660
H	 -2.312274	 0.248613	 -1.632137
H	 -1.195607	 -1.123271	 -1.606837

	symmetry c1
}
set optking {
	frozen_dihedral = ("
		4 2 3 5
	")
}

ee = optimize('scf')
oeprop('DIPOLE', 'QUADRUPOLE', 'MULLIKEN_CHARGES')
f=open( 'psi4out.xyz', 'w' )
f.write( "16  " )
f.write( str(ee) + "\n" )
f.write( MOL.save_string_xyz() )
f.close()
--------------------------------------------------------------------------

    Molecular point group: c1
  Charge       = 0
  Multiplicity = 1
  Basis Set: 6-31G*
  Basis Set:
  @DF-RHF Final Energy:  -270.02376762819188
    Total Energy =                       -270.0237676281919335
    Molecular point group: c1
  Basis Set: 6-31G*
  Basis Set:
  Basis Set: 6-31G*
  Basis Set:
  @DF-RHF Final Energy:  -270.02642058437209
    Total Energy =                       -270.0264205843721470
  Basis Set: 6-31G*
  Basis Set:
  Basis Set: 6-31G*
  Basis Set:
  @DF-RHF Final Energy:  -270.02808556187131
    Total Energy =                       -270.0280855618715350
  Basis Set: 6-31G*
  Basis Set:
  Basis Set: 6-31G*
  Basis Set:
  @DF-RHF Final Energy:  -270.02826025401578
    Total Energy =                       -270.0282602540158905
  Basis Set: 6-31G*
  Basis Set:
  @DF-RHF Final Energy:  -270.02776745679182
    Total Energy =                       -270.0277674567919348
  @DF-RHF Final Energy:  -270.02834943312098
    Total Energy =                       -270.0283494331208090
  Basis Set: 6-31G*
  Basis Set:
  @DF-RHF Final Energy:  -270.02815540729705
    Total Energy =                       -270.0281554072967651
  Basis Set: 6-31G*
  Basis Set:
  Basis Set: 6-31G*
  Basis Set:
  @DF-RHF Final Energy:  -270.02835763358303
    Total Energy =                       -270.0283576335830276
  Basis Set: 6-31G*
  Basis Set:
  Basis Set: 6-31G*
  Basis Set:
  @DF-RHF Final Energy:  -270.02836212779704
    Total Energy =                       -270.0283621277970383
  Basis Set: 6-31G*
  Basis Set:
  Charge       = 0
  Multiplicity = 1
  Basis Set: 6-31G*
  Basis Set:

    Orbital Energies (a.u.)
    -----------------------

    Doubly Occupied:

       1A    -20.546137     2A    -11.326205     3A    -11.234197
       4A    -11.231368     5A    -11.228078     6A    -11.221432
       7A     -1.392990     8A     -1.085203     9A     -1.009009
      10A     -0.952240    11A     -0.834931    12A     -0.733550
      13A     -0.656524    14A     -0.652242    15A     -0.623436
      16A     -0.598930    17A     -0.577118    18A     -0.552794
      19A     -0.538986    20A     -0.520797    21A     -0.504018
      22A     -0.490159    23A     -0.469796    24A     -0.398000

  @DF-RHF Final Energy:  -270.02836257571516

   => Energetics <=

    Nuclear Repulsion Energy =            236.6475206159639697
    One-Electron Energy =                -834.5954842402027225
    Two-Electron Energy =                 327.9196010485236457
    DFT Exchange-Correlation Energy =       0.0000000000000000
    Empirical Dispersion Energy =           0.0000000000000000
    PCM Polarization Energy =               0.0000000000000000
    EFP Energy =                            0.0000000000000000
    Total Energy =                       -270.0283625757151640
    Molecular point group: c1
  Basis Set: 6-31G*
  Basis Set:

  -Total Gradient:
     Atom            X                  Y                   Z
    ------   -----------------  -----------------  -----------------
       1        0.000039268544    -0.000002088756    -0.000004446842
       2       -0.000450016037    -0.002201146369     0.000274769423
       3        0.000295057556     0.002238429869     0.000114955792
       4        0.000239738696     0.001136685908    -0.000250487972
       5       -0.000124694938    -0.001165396270    -0.000152492608
       6        0.000021062878     0.000000604972    -0.000022338971
       7        0.000014670697     0.000000279515     0.000013686329
       8       -0.000007073714     0.000026219808     0.000019238196
       9       -0.000025203525    -0.000013354070    -0.000005829738
      10       -0.000002200075    -0.000012856277     0.000017206541
      11       -0.000004451976     0.000014038604    -0.000003126551
      12        0.000003952357    -0.000005554965    -0.000011684599
      13       -0.000002774823    -0.000008398980     0.000013311908
      14        0.000002180478    -0.000002790025    -0.000008556701
      15       -0.000004102181    -0.000008505902    -0.000005169287
      16        0.000004586062     0.000003832937     0.000010965081

  **** Optimization is complete! (in 10 steps) ****
    Final optimized geometry and variables:
    Molecular point group: c1

    Geometry (in Angstrom), charge = 0, multiplicity = 1:

    O           -1.955899109172     0.434282733295     0.930766942684
    C           -1.124123778647     0.112528452757     0.137639016153
    C            0.314363414894    -0.092644374972     0.596518019681
    C           -1.483903811883    -0.115942292074    -1.314762360249
    C            1.411605208876    -0.061952808191    -0.469864661800
    H            0.331287883684    -1.057131074882     1.102753982177
    H            0.502067167911     0.650027186695     1.364407483363
    C            2.799480745920    -0.267489991174     0.136669833093
    H            1.231654383862    -0.830593788325    -1.215719179254
    H            1.390308997841     0.889728394627    -0.995196935758
    H            3.567518490157    -0.239179223958    -0.629339146850
    H            2.868598183267    -1.227054473784     0.640775793529
    H            3.027604699175     0.505352385920     0.864477489139
    H           -0.951930137959     0.580133700276    -1.955448499412
    H           -2.548723022946     0.021021229336    -1.440133713099
    H           -1.207261060257    -1.118318790204    -1.628062220785

  Mulliken Charges: (a.u.)
   Center  Symbol    Alpha    Beta     Spin     Total
       1     O     4.26327  4.26327  0.00000 -0.52653
       2     C     2.73516  2.73516  0.00000  0.52969
       3     C     3.20441  3.20441  0.00000 -0.40882
       4     C     3.29217  3.29217  0.00000 -0.58435
       5     C     3.16205  3.16205  0.00000 -0.32410
       6     H     0.40379  0.40379  0.00000  0.19241
       7     H     0.39882  0.39882  0.00000  0.20237
       8     C     3.24017  3.24017  0.00000 -0.48035
       9     H     0.41865  0.41865  0.00000  0.16270
      10     H     0.41814  0.41814  0.00000  0.16373
      11     H     0.41560  0.41560  0.00000  0.16880
      12     H     0.41923  0.41923  0.00000  0.16154
      13     H     0.41781  0.41781  0.00000  0.16438
      14     H     0.40650  0.40650  0.00000  0.18700
      15     H     0.39542  0.39542  0.00000  0.20916
      16     H     0.40881  0.40881  0.00000  0.18237

   Total alpha = 24.00000, Total beta = 24.00000, Total charge =  0.00000
