  ==> Input File <==

--------------------------------------------------------------------------
set {
	reference rhf
	basis cc-pvtz
}

set_num_threads( 4 )
memory 2 gb

molecule MOL {
0 1

O	 -2.071633	 -1.227563	 -0.223463
C	 -1.652164	 -0.152425	 0.058082
C	 -0.327811	 0.006324	 0.778296
C	 -2.402515	 1.108629	 -0.298924
C	 0.843231	 -0.001575	 -0.211665
H	 -0.319484	 0.928173	 1.350354
H	 -0.227804	 -0.823091	 1.466705
C	 2.197693	 0.138030	 0.476937
H	 0.722944	 0.805202	 -0.930230
H	 0.813976	 -0.926978	 -0.776588
C	 3.178530	 0.998513	 -0.312171
H	 2.056888	 0.565217	 1.465981
H	 2.623925	 -0.849390	 0.628157
H	 2.795147	 2.004060	 -0.449748
H	 3.363667	 0.578712	 -1.294952
H	 4.130625	 1.075155	 0.199729
H	 -3.240910	 0.874416	 -0.936711
H	 -1.747554	 1.818823	 -0.790984
H	 -2.760419	 1.579708	 0.610998

	symmetry c1
}
set optking {
	frozen_dihedral = ("
		11 8 5 9
	")
}

ee = optimize('scf')
oeprop('DIPOLE', 'QUADRUPOLE', 'MULLIKEN_CHARGES')
f=open( 'psi4out.xyz', 'w' )
f.write( "19  " )
f.write( str(ee) + "\n" )
f.write( MOL.save_string_xyz() )
f.close()
--------------------------------------------------------------------------

    Molecular point group: c1
  Charge       = 0
  Multiplicity = 1
  Basis Set: CC-PVTZ
  Basis Set:
  @DF-RHF Final Energy:  -309.17312936786783
    Total Energy =                       -309.1731293678678867
    Molecular point group: c1
  Basis Set: CC-PVTZ
  Basis Set:
  Basis Set: CC-PVTZ
  Basis Set:
  @DF-RHF Final Energy:  -309.17334366121423
    Total Energy =                       -309.1733436612141190
  Basis Set: CC-PVTZ
  Basis Set:
  Basis Set: CC-PVTZ
  Basis Set:
  @DF-RHF Final Energy:  -309.17330197468294
    Total Energy =                       -309.1733019746827722
  Basis Set: CC-PVTZ
  Basis Set:
  Basis Set: CC-PVTZ
  Basis Set:
  @DF-RHF Final Energy:  -309.17332146131776
    Total Energy =                       -309.1733214613182099
  Basis Set: CC-PVTZ
  Basis Set:
  Basis Set: CC-PVTZ
  Basis Set:
  @DF-RHF Final Energy:  -309.17345129617729
    Total Energy =                       -309.1734512961768360
  Basis Set: CC-PVTZ
  Basis Set:
  Basis Set: CC-PVTZ
  Basis Set:
  @DF-RHF Final Energy:  -309.17345918167183
    Total Energy =                       -309.1734591816720013
  Basis Set: CC-PVTZ
  Basis Set:
  Charge       = 0
  Multiplicity = 1
  Basis Set: CC-PVTZ
  Basis Set:

    Orbital Energies (a.u.)
    -----------------------

    Doubly Occupied:

       1A    -20.537100     2A    -11.319501     3A    -11.228821
       4A    -11.228152     5A    -11.227052     6A    -11.222885
       7A    -11.214303     8A     -1.397202     9A     -1.091356
      10A     -1.030340    11A     -0.985018    12A     -0.891237
      13A     -0.808066    14A     -0.735608    15A     -0.663736
      16A     -0.645858    17A     -0.624063    18A     -0.615299
      19A     -0.587342    20A     -0.572090    21A     -0.557470
      22A     -0.535785    23A     -0.512084    24A     -0.506925
      25A     -0.483123    26A     -0.471768    27A     -0.469233
      28A     -0.399159

  @DF-RHF Final Energy:  -309.17345980459606

   => Energetics <=

    Nuclear Repulsion Energy =            301.8908526766070963
    One-Electron Energy =               -1017.0074735191802802
    Two-Electron Energy =                 405.9431610379770063
    DFT Exchange-Correlation Energy =       0.0000000000000000
    Empirical Dispersion Energy =           0.0000000000000000
    PCM Polarization Energy =               0.0000000000000000
    EFP Energy =                            0.0000000000000000
    Total Energy =                       -309.1734598045961775
    Molecular point group: c1
  Basis Set: CC-PVTZ
  Basis Set:

  -Total Gradient:
     Atom            X                  Y                   Z
    ------   -----------------  -----------------  -----------------
       1        0.000010378628     0.000000490413    -0.000000168551
       2       -0.000002506269     0.000003321220    -0.000016570040
       3       -0.000017843734     0.000002633908     0.000019810696
       4       -0.000008843879    -0.000003325353     0.000010649450
       5       -0.002448148816     0.003989616534     0.004314173446
       6       -0.000004932502    -0.000004741032    -0.000001591334
       7       -0.000001137839     0.000002691921     0.000009824437
       8        0.001702208073    -0.004101378232    -0.002810458878
       9        0.001689558693    -0.002443444676    -0.003022692119
      10       -0.000009831385     0.000005835148    -0.000004406391
      11       -0.000925145341     0.002538622972     0.001500996397
      12        0.000002191565     0.000000701263    -0.000000865081
      13        0.000002534845     0.000002189316     0.000007950389
      14        0.000007946522     0.000005129685     0.000008244909
      15       -0.000005306369     0.000004866759    -0.000003865085
      16        0.000001314959    -0.000006198450    -0.000006785535
      17        0.000000825955    -0.000000240218    -0.000000142020
      18        0.000003644764     0.000001424538    -0.000002309442
      19        0.000003092132     0.000001804281    -0.000001795249

  **** Optimization is complete! (in 7 steps) ****
    Final optimized geometry and variables:
    Molecular point group: c1

    Geometry (in Angstrom), charge = 0, multiplicity = 1:

    O           -2.033694078020    -1.373576982452    -0.247185640786
    C           -1.630871015169    -0.291021309175     0.030116047453
    C           -0.308627538992    -0.108407514769     0.748749128116
    C           -2.401084957498     0.956974191409    -0.330390253923
    C            0.861858103276    -0.092347982799    -0.239875656816
    H           -0.316354799635     0.812256917930     1.322596676623
    H           -0.191113726534    -0.937059797358     1.435720979019
    C            2.233838220969     0.009926689264     0.445299801440
    H            0.749450550249     0.716614199191    -0.955865666190
    H            0.820736260779    -1.001082548420    -0.830274853923
    C            3.238988232817     0.846779943776    -0.339535069437
    H            2.113472322739     0.457365364497     1.427631076934
    H            2.629965474998    -0.984887094312     0.616083974305
    H            2.890555139907     1.868458639619    -0.445570615264
    H            3.394998477232     0.446517177698    -1.336109105273
    H            4.200801448014     0.873373911893     0.159332604823
    H           -3.235733934690     0.707575227045    -0.967329396869
    H           -1.757484081165     1.676032010335    -0.824507351356
    H           -2.766511823877     1.424814808534     0.578228920032

  Mulliken Charges: (a.u.)
   Center  Symbol    Alpha    Beta     Spin     Total
       1     O     4.17701  4.17701  0.00000 -0.35401
       2     C     2.85882  2.85882  0.00000  0.28236
       3     C     3.09771  3.09771  0.00000 -0.19541
       4     C     3.15543  3.15543  0.00000 -0.31086
       5     C     3.10149  3.10149  0.00000 -0.20297
       6     H     0.44938  0.44938  0.00000  0.10125
       7     H     0.43874  0.43874  0.00000  0.12251
       8     C     3.08619  3.08619  0.00000 -0.17238
       9     H     0.45212  0.45212  0.00000  0.09577
      10     H     0.44021  0.44021  0.00000  0.11958
      11     C     3.14855  3.14855  0.00000 -0.29711
      12     H     0.45513  0.45513  0.00000  0.08973
      13     H     0.44755  0.44755  0.00000  0.10490
      14     H     0.45591  0.45591  0.00000  0.08817
      15     H     0.45283  0.45283  0.00000  0.09434
      16     H     0.44778  0.44778  0.00000  0.10445
      17     H     0.43597  0.43597  0.00000  0.12805
      18     H     0.45077  0.45077  0.00000  0.09845
      19     H     0.44841  0.44841  0.00000  0.10317

   Total alpha = 28.00000, Total beta = 28.00000, Total charge =  0.00000
