  ==> Input File <==

--------------------------------------------------------------------------
set {
	reference rhf
	basis 6-31G*
}

set_num_threads( 4 )
memory 2 gb

molecule MOL {
0 1

H	 -3.135461	 -1.215070	 0.001379
O	 -2.310168	 -0.871793	 -0.309793
C	 -2.026376	 0.340750	 0.341611
C	 -0.673256	 0.843270	 -0.132153
H	 -2.792215	 1.080697	 0.115987
H	 -2.013526	 0.200402	 1.421792
C	 0.486613	 -0.083066	 0.235839
H	 -0.715586	 0.970948	 -1.210718
H	 -0.508072	 1.829858	 0.297090
C	 1.840406	 0.433480	 -0.254303
H	 0.300215	 -1.068318	 -0.178947
H	 0.519509	 -0.203625	 1.318070
C	 1.933774	 0.506125	 -1.778008
H	 2.021292	 1.421069	 0.164821
H	 2.633221	 -0.208394	 0.125021
H	 1.175154	 1.168469	 -2.185051
H	 2.903072	 0.877627	 -2.096430
H	 1.791238	 -0.473083	 -2.226724

	symmetry c1
}
set optking {
	frozen_dihedral = ("
		14 10 7 11
	")
}

ee = optimize('scf')
oeprop('DIPOLE', 'QUADRUPOLE', 'MULLIKEN_CHARGES')
f=open( 'psi4out.xyz', 'w' )
f.write( "18  " )
f.write( str(ee) + "\n" )
f.write( MOL.save_string_xyz() )
f.close()
--------------------------------------------------------------------------

    Molecular point group: c1
  Charge       = 0
  Multiplicity = 1
  Basis Set: 6-31G*
  Basis Set:
  @DF-RHF Final Energy:  -271.17763283758802
    Total Energy =                       -271.1776328375879075
    Molecular point group: c1
  Basis Set: 6-31G*
  Basis Set:
  Basis Set: 6-31G*
  Basis Set:
  @DF-RHF Final Energy:  -271.17793583613025
    Total Energy =                       -271.1779358361304730
  Basis Set: 6-31G*
  Basis Set:
  Basis Set: 6-31G*
  Basis Set:
  @DF-RHF Final Energy:  -271.17830525957334
    Total Energy =                       -271.1783052595731078
  Basis Set: 6-31G*
  Basis Set:
  Basis Set: 6-31G*
  Basis Set:
  @DF-RHF Final Energy:  -271.17832421466858
    Total Energy =                       -271.1783242146689190
  Basis Set: 6-31G*
  Basis Set:
  Basis Set: 6-31G*
  Basis Set:
  @DF-RHF Final Energy:  -271.17832567768971
    Total Energy =                       -271.1783256776895428
  Basis Set: 6-31G*
  Basis Set:
  Charge       = 0
  Multiplicity = 1
  Basis Set: 6-31G*
  Basis Set:

    Orbital Energies (a.u.)
    -----------------------

    Doubly Occupied:

       1A    -20.552973     2A    -11.267981     3A    -11.211540
       4A    -11.211056     5A    -11.206666     6A    -11.203573
       7A     -1.359680     8A     -1.074316     9A     -1.005821
      10A     -0.914018    11A     -0.828672    12A     -0.771812
      13A     -0.704033    14A     -0.642158    15A     -0.612750
      16A     -0.602346    17A     -0.564020    18A     -0.554667
      19A     -0.522409    20A     -0.502761    21A     -0.491662
      22A     -0.461810    23A     -0.455585    24A     -0.448886
      25A     -0.427775

  @DF-RHF Final Energy:  -271.17832617295915

   => Energetics <=

    Nuclear Repulsion Energy =            252.0171837052679393
    One-Electron Energy =                -867.1930787962008935
    Two-Electron Energy =                 343.9975689179739220
    DFT Exchange-Correlation Energy =       0.0000000000000000
    Empirical Dispersion Energy =           0.0000000000000000
    PCM Polarization Energy =               0.0000000000000000
    EFP Energy =                            0.0000000000000000
    Total Energy =                       -271.1783261729590322
    Molecular point group: c1
  Basis Set: 6-31G*
  Basis Set:

  -Total Gradient:
     Atom            X                  Y                   Z
    ------   -----------------  -----------------  -----------------
       1        0.000001396714    -0.000001928698     0.000001618715
       2        0.000021733900    -0.000018186770     0.000009577593
       3       -0.000020988120     0.000017353722    -0.000040385604
       4        0.000011669214     0.000010057646     0.000023091684
       5        0.000005509193     0.000011615846     0.000006104007
       6        0.000006337941    -0.000003482333    -0.000004397575
       7       -0.000010638649     0.000022896829    -0.000030459092
       8       -0.000007949012     0.000000566134    -0.000003552059
       9        0.000001383406     0.000001927558     0.000002038212
      10       -0.000016796930     0.000002647107    -0.000030913408
      11        0.000015157204    -0.000024669660     0.000020266629
      12        0.000011853926    -0.000003296209    -0.000001150907
      13       -0.000012994082    -0.000006142783     0.000013002059
      14       -0.000003710826    -0.000018874044     0.000022045719
      15        0.000010841566     0.000004095180     0.000006782391
      16       -0.000009801888     0.000009920762    -0.000002065974
      17        0.000004943605    -0.000009453245     0.000005062443
      18       -0.000007947157     0.000004952961     0.000003335168

  **** Optimization is complete! (in 6 steps) ****
    Final optimized geometry and variables:
    Molecular point group: c1

    Geometry (in Angstrom), charge = 0, multiplicity = 1:

    H           -2.966344459009    -1.398639267870     0.419584273522
    O           -2.154937625877    -1.056119773070     0.073008223937
    C           -1.852955750307     0.166781935073     0.696298516077
    C           -0.521724079744     0.668978326629     0.163044267920
    H           -2.630866668759     0.899847482262     0.490105394019
    H           -1.797857861114     0.041467137249     1.776982528625
    C            0.651966911613    -0.251690151869     0.506269820594
    H           -0.614326689147     0.784569268787    -0.912152472789
    H           -0.343347584118     1.660730365610     0.575622688921
    C            2.018911312151     0.273304133105     0.052824915779
    H            0.475463295387    -1.230855670438     0.072706960658
    H            0.677356172559    -0.393232064048     1.585481216602
    C            2.196377509586     0.352662498017    -1.464689556322
    H            2.193259327734     1.255239545002     0.489057649214
    H            2.788509214982    -0.378504373021     0.459230103708
    H            1.518977919653     1.069754608376    -1.916467785710
    H            3.207538571732     0.655738513706    -1.719176913340
    H            2.013388420785    -0.612428515277    -1.928952069712

  Mulliken Charges: (a.u.)
   Center  Symbol    Alpha    Beta     Spin     Total
       1     H     0.28059  0.28059  0.00000  0.43881
       2     O     4.36966  4.36966  0.00000 -0.73931
       3     C     2.99727  2.99727  0.00000  0.00546
       4     C     3.16183  3.16183  0.00000 -0.32367
       5     H     0.42930  0.42930  0.00000  0.14140
       6     H     0.43269  0.43269  0.00000  0.13462
       7     C     3.15427  3.15427  0.00000 -0.30854
       8     H     0.41299  0.41299  0.00000  0.17402
       9     H     0.42466  0.42466  0.00000  0.15068
      10     C     3.15283  3.15283  0.00000 -0.30567
      11     H     0.40859  0.40859  0.00000  0.18282
      12     H     0.42601  0.42601  0.00000  0.14797
      13     C     3.24071  3.24071  0.00000 -0.48142
      14     H     0.42556  0.42556  0.00000  0.14888
      15     H     0.42138  0.42138  0.00000  0.15723
      16     H     0.42079  0.42079  0.00000  0.15842
      17     H     0.42057  0.42057  0.00000  0.15886
      18     H     0.42028  0.42028  0.00000  0.15945

   Total alpha = 25.00000, Total beta = 25.00000, Total charge = -0.00000
