  ==> Input File <==

--------------------------------------------------------------------------
set {
	reference rhf
	basis 6-31G*
}

set_num_threads( 4 )
memory 2 gb

molecule MOL {
0 1

O	 -2.323531	 1.364012	 -0.276951
C	 -2.105580	 0.205039	 -0.093339
C	 -0.888888	 -0.465064	 -0.707285
C	 -3.003540	 -0.643120	 0.779397
C	 0.379448	 -0.143569	 0.099626
H	 -0.780231	 -0.087037	 -1.718024
H	 -1.031628	 -1.540553	 -0.761837
C	 1.631333	 -0.777471	 -0.511575
H	 0.483460	 0.934367	 0.150804
H	 0.262134	 -0.497032	 1.122880
C	 2.915987	 -0.544314	 0.291766
H	 1.766672	 -0.399098	 -1.523130
H	 1.471257	 -1.849544	 -0.605828
C	 3.373361	 0.914346	 0.347591
H	 3.708709	 -1.142521	 -0.150311
H	 2.780642	 -0.921148	 1.303579
H	 3.506512	 1.320010	 -0.651625
H	 4.322697	 0.999599	 0.867103
H	 2.660624	 1.545032	 0.868198
H	 -3.497480	 -1.396795	 0.171728
H	 -3.748669	 -0.022591	 1.257427
H	 -2.423013	 -1.168867	 1.531981

	symmetry c1
}
set optking {
	frozen_dihedral = ("
		3 5 8 12
	")
}

ee = optimize('scf')
oeprop('DIPOLE', 'QUADRUPOLE', 'MULLIKEN_CHARGES')
f=open( 'psi4out.xyz', 'w' )
f.write( "22  " )
f.write( str(ee) + "\n" )
f.write( MOL.save_string_xyz() )
f.close()
--------------------------------------------------------------------------

    Molecular point group: c1
  Charge       = 0
  Multiplicity = 1
  Basis Set: 6-31G*
  Basis Set:
  @DF-RHF Final Energy:  -348.09833228047853
    Total Energy =                       -348.0983322804783029
    Molecular point group: c1
  Basis Set: 6-31G*
  Basis Set:
  Basis Set: 6-31G*
  Basis Set:
  @DF-RHF Final Energy:  -348.09813668659046
    Total Energy =                       -348.0981366865901236
  Basis Set: 6-31G*
  Basis Set:
  Basis Set: 6-31G*
  Basis Set:
  @DF-RHF Final Energy:  -348.09833142196800
    Total Energy =                       -348.0983314219679983
  Basis Set: 6-31G*
  Basis Set:
  Basis Set: 6-31G*
  Basis Set:
  @DF-RHF Final Energy:  -348.09724537361416
    Total Energy =                       -348.0972453736141574
  Basis Set: 6-31G*
  Basis Set:
  @DF-RHF Final Energy:  -348.09802783476124
    Total Energy =                       -348.0980278347615808
  Basis Set: 6-31G*
  Basis Set:
  @DF-RHF Final Energy:  -348.09832873033560
    Total Energy =                       -348.0983287303357656
  Basis Set: 6-31G*
  Basis Set:
  Basis Set: 6-31G*
  Basis Set:
  @DF-RHF Final Energy:  -348.09833233861241
    Total Energy =                       -348.0983323386124084
  Basis Set: 6-31G*
  Basis Set:
  Basis Set: 6-31G*
  Basis Set:
  @DF-RHF Final Energy:  -348.09833369934569
    Total Energy =                       -348.0983336993459716
  Basis Set: 6-31G*
  Basis Set:
  Charge       = 0
  Multiplicity = 1
  Basis Set: 6-31G*
  Basis Set:

    Orbital Energies (a.u.)
    -----------------------

    Doubly Occupied:

       1A    -20.547365     2A    -11.324503     3A    -11.229577
       4A    -11.229001     5A    -11.228226     6A    -11.222399
       7A    -11.220659     8A    -11.211070     9A     -1.393134
      10A     -1.095650    11A     -1.044245    12A     -0.999490
      13A     -0.937690    14A     -0.857630    15A     -0.786459
      16A     -0.732935    17A     -0.662753    18A     -0.643715
      19A     -0.625937    20A     -0.620676    21A     -0.596736
      22A     -0.583078    23A     -0.562846    24A     -0.541173
      25A     -0.534505    26A     -0.519416    27A     -0.497805
      28A     -0.488059    29A     -0.470739    30A     -0.464130
      31A     -0.459798    32A     -0.396227

  @DF-RHF Final Energy:  -348.09833396674640

   => Energetics <=

    Nuclear Repulsion Energy =            372.9533687017185457
    One-Electron Energy =               -1210.6481511312194925
    Two-Electron Energy =                 489.5964484627546085
    DFT Exchange-Correlation Energy =       0.0000000000000000
    Empirical Dispersion Energy =           0.0000000000000000
    PCM Polarization Energy =               0.0000000000000000
    EFP Energy =                            0.0000000000000000
    Total Energy =                       -348.0983339667463383
    Molecular point group: c1
  Basis Set: 6-31G*
  Basis Set:

  -Total Gradient:
     Atom            X                  Y                   Z
    ------   -----------------  -----------------  -----------------
       1        0.000003993167     0.000002008354     0.000003233174
       2       -0.000008628821    -0.000006166274    -0.000008209201
       3       -0.000003605760     0.000018057659    -0.000012120255
       4       -0.000001424383     0.000001874759    -0.000000328730
       5       -0.000008522686    -0.000042324122     0.000017865587
       6       -0.000002811909    -0.000001887355    -0.000001643713
       7       -0.000001363157     0.000002785649    -0.000000450272
       8        0.000023448537     0.000048511451    -0.000005711054
       9        0.000004589654    -0.000008250958    -0.000003524726
      10        0.000000640501     0.000003122721     0.000005431280
      11       -0.000002476641    -0.000007661700     0.000018033299
      12       -0.000018323500    -0.000026101101    -0.000017049443
      13       -0.000008136686     0.000009656867     0.000000897740
      14        0.000009470362     0.000003038868    -0.000003667931
      15       -0.000001552602     0.000004291345     0.000003244252
      16        0.000008188476    -0.000006403993     0.000005052161
      17        0.000004089256     0.000005795019    -0.000001175029
      18       -0.000002699251     0.000004346826     0.000000036003
      19        0.000003928569    -0.000004250129    -0.000002203350
      20        0.000001021330    -0.000000079457     0.000000177858
      21       -0.000000469907    -0.000000466763     0.000001206862
      22        0.000000645449     0.000000102332     0.000000905488

  **** Optimization is complete! (in 9 steps) ****
    Final optimized geometry and variables:
    Molecular point group: c1

    Geometry (in Angstrom), charge = 0, multiplicity = 1:

    O           -2.325482018504     1.362203244589    -0.279128237865
    C           -2.105275994259     0.204350967987    -0.091541357208
    C           -0.888822052237    -0.466345913860    -0.705438578443
    C           -3.003857159680    -0.643810301921     0.780752953188
    C            0.379934018696    -0.143775113444     0.100192267278
    H           -0.781030001388    -0.089629293977    -1.716783175692
    H           -1.031676526962    -1.541902610591    -0.758563765276
    C            1.631568270359    -0.778655918905    -0.510531210624
    H            0.484193470707     0.934216434845     0.149621790315
    H            0.263293810483    -0.495350985096     1.124187214090
    C            2.916571340086    -0.545221368016     0.292130906177
    H            1.766482736976    -0.401848133615    -1.522787032188
    H            1.470760712116    -1.850764706522    -0.603423175436
    C            3.373175565304     0.913689243517     0.348767225081
    H            3.709526543967    -1.142603666440    -0.150666714205
    H            2.782350360202    -0.922687893607     1.303866853659
    H            3.506035859508     1.319835512787    -0.650249604446
    H            4.322501213883     0.999110820958     0.868259239345
    H            2.660134846887     1.543787435225     0.869659191225
    H           -3.496099745208    -1.398603605715     0.173147267339
    H           -3.750278438795    -0.023370826994     1.256837356567
    H           -2.424034574512    -1.168130187478     1.534845396323

  Mulliken Charges: (a.u.)
   Center  Symbol    Alpha    Beta     Spin     Total
       1     O     4.26244  4.26244  0.00000 -0.52487
       2     C     2.73717  2.73717  0.00000  0.52566
       3     C     3.19958  3.19958  0.00000 -0.39917
       4     C     3.28951  3.28951  0.00000 -0.57901
       5     C     3.16408  3.16408  0.00000 -0.32816
       6     H     0.40116  0.40116  0.00000  0.19768
       7     H     0.41699  0.41699  0.00000  0.16601
       8     C     3.15259  3.15259  0.00000 -0.30518
       9     H     0.40360  0.40360  0.00000  0.19279
      10     H     0.42138  0.42138  0.00000  0.15724
      11     C     3.15332  3.15332  0.00000 -0.30665
      12     H     0.42060  0.42060  0.00000  0.15879
      13     H     0.42195  0.42195  0.00000  0.15611
      14     C     3.24206  3.24206  0.00000 -0.48412
      15     H     0.41955  0.41955  0.00000  0.16090
      16     H     0.42301  0.42301  0.00000  0.15398
      17     H     0.42074  0.42074  0.00000  0.15851
      18     H     0.41825  0.41825  0.00000  0.16349
      19     H     0.41831  0.41831  0.00000  0.16339
      20     H     0.40686  0.40686  0.00000  0.18629
      21     H     0.39710  0.39710  0.00000  0.20581
      22     H     0.40975  0.40975  0.00000  0.18050

   Total alpha = 32.00000, Total beta = 32.00000, Total charge = -0.00000
