                              Psi4 1.0.54 Driver

  ==> Input File <==

--------------------------------------------------------------------------
set {
	reference rhf
	basis cc-pvtz
}

set_num_threads( 4 )
memory 2 gb

molecule MOL {
0 1

H	 -2.650137	 0.008579	 0.000002
C	 -1.665113	 -0.439414	 -0.000001
C	 -0.600880	 0.658675	 -0.000002
H	 -1.573422	 -1.066333	 -0.876728
H	 -1.573418	 -1.066335	 0.876725
C	 0.763477	 0.112207	 -0.000006
H	 -0.701673	 1.291732	 -0.871789
H	 -0.701669	 1.291731	 0.871787
N	 1.806077	 -0.317201	 0.000007

	symmetry c1
}
ee,wfn = energy('scf', return_wfn=True)
oeprop( wfn, 'DIPOLE', 'QUADRUPOLE', 'MULLIKEN_CHARGES')
oeprop( wfn, 'GRID_ESP')
f=open( 'psi4out.xyz', 'w' )
f.write( "9  " )
f.write( str(ee) + "\n" )
f.write( MOL.save_string_xyz() )
f.close()
--------------------------------------------------------------------------

    Molecular point group: c1

    Geometry (in Angstrom), charge = 0, multiplicity = 1:

       Center              X                  Y                   Z               Mass
    ------------   -----------------  -----------------  -----------------  -----------------
           H         -2.650205604858     0.008600882503     0.000002236218     1.007825032070
           C         -1.665181604858    -0.439392117497    -0.000000763782    12.000000000000
           C         -0.600948604858     0.658696882503    -0.000001763782    12.000000000000
           H         -1.573490604858    -1.066311117497    -0.876727763782     1.007825032070
           H         -1.573486604858    -1.066313117497     0.876725236218     1.007825032070
           C          0.763408395142     0.112228882503    -0.000005763782    12.000000000000
           H         -0.701741604858     1.291753882503    -0.871788763782     1.007825032070
           H         -0.701737604858     1.291752882503     0.871787236218     1.007825032070
           N          1.806008395142    -0.317179117497     0.000007236218    14.003074004780

  Charge       = 0
  Multiplicity = 1
  Basis Set: CC-PVTZ
  Basis Set:

    Orbital Energies (a.u.)
    -----------------------

    Doubly Occupied:

       1A    -15.556519     2A    -11.282566     3A    -11.261111
       4A    -11.244525     5A     -1.229105     6A     -1.084328
       7A     -0.913393     8A     -0.700321     9A     -0.661261
      10A     -0.589806    11A     -0.563052    12A     -0.545396
      13A     -0.540096    14A     -0.463946    15A     -0.463866

  @DF-RHF Final Energy:  -171.02346177634391

   => Energetics <=

    Nuclear Repulsion Energy =            103.7350103750020196
    One-Electron Energy =                -435.3182669370976328
    Two-Electron Energy =                 160.5597947857515919
    DFT Exchange-Correlation Energy =       0.0000000000000000
    Empirical Dispersion Energy =           0.0000000000000000
    PCM Polarization Energy =               0.0000000000000000
    EFP Energy =                            0.0000000000000000
    Total Energy =                       -171.0234617763439928

  Mulliken Charges: (a.u.)
   Center  Symbol    Alpha    Beta     Spin     Total
       1     H     0.44612  0.44612  0.00000  0.10775
       2     C     3.13543  3.13543  0.00000 -0.27086
       3     C     3.07958  3.07958  0.00000 -0.15916
       4     H     0.44486  0.44486  0.00000  0.11027
       5     H     0.44486  0.44486  0.00000  0.11027
       6     C     3.04250  3.04250  0.00000 -0.08500
       7     H     0.43207  0.43207  0.00000  0.13586
       8     H     0.43207  0.43207  0.00000  0.13586
       9     N     3.54250  3.54250  0.00000 -0.08500

   Total alpha = 15.00000, Total beta = 15.00000, Total charge =  0.00000

*** Psi4 exiting successfully. Buy a developer a beer!
