  ==> Input File <==

--------------------------------------------------------------------------
set {
	reference rhf
	basis 6-31G*
}

set_num_threads( 4 )
memory 2 gb

molecule MOL {
0 1

H	 1.035040	 0.189664	 1.366400
C	 0.131337	 -0.381923	 1.182142
N	 -0.528168	 0.128977	 -0.000000
H	 -0.517053	 -0.260662	 2.042330
H	 0.413278	 -1.435812	 1.110775
C	 0.248044	 -0.037491	 -1.209632
H	 -1.419906	 -0.311910	 -0.107003
H	 0.998722	 0.743888	 -1.266824
H	 -0.398417	 0.061950	 -2.074060
H	 0.763621	 -0.999315	 -1.275517

	symmetry c1
}
set optking {
	frozen_dihedral = ("
		2 3 6 8
	")
}

ee = optimize('scf')
oeprop('DIPOLE', 'QUADRUPOLE', 'MULLIKEN_CHARGES')
f=open( 'psi4out.xyz', 'w' )
f.write( "10  " )
f.write( str(ee) + "\n" )
f.write( MOL.save_string_xyz() )
f.close()
--------------------------------------------------------------------------

    Molecular point group: c1
  Charge       = 0
  Multiplicity = 1
  Basis Set: 6-31G*
  Basis Set:
  @DF-RHF Final Energy:  -134.23787909928819
    Total Energy =                       -134.2378790992882216
    Molecular point group: c1
  Basis Set: 6-31G*
  Basis Set:
  Basis Set: 6-31G*
  Basis Set:
  @DF-RHF Final Energy:  -134.23795556712767
    Total Energy =                       -134.2379555671275853
  Basis Set: 6-31G*
  Basis Set:
  Basis Set: 6-31G*
  Basis Set:
  @DF-RHF Final Energy:  -134.23796275685626
    Total Energy =                       -134.2379627568562910
  Basis Set: 6-31G*
  Basis Set:
  Charge       = 0
  Multiplicity = 1
  Basis Set: 6-31G*
  Basis Set:

    Orbital Energies (a.u.)
    -----------------------

    Doubly Occupied:

       1A    -15.538427     2A    -11.235982     3A    -11.235959
       4A     -1.199345     5A     -0.948099     6A     -0.853787
       7A     -0.661104     8A     -0.613843     9A     -0.591100
      10A     -0.541137    11A     -0.508500    12A     -0.505193
      13A     -0.362900

  @DF-RHF Final Energy:  -134.23796316699679

   => Energetics <=

    Nuclear Repulsion Energy =             84.6048474793987424
    One-Electron Energy =                -348.0948686124404503
    Two-Electron Energy =                 129.2520579660449584
    DFT Exchange-Correlation Energy =       0.0000000000000000
    Empirical Dispersion Energy =           0.0000000000000000
    PCM Polarization Energy =               0.0000000000000000
    EFP Energy =                            0.0000000000000000
    Total Energy =                       -134.2379631669967353
    Molecular point group: c1
  Basis Set: 6-31G*
  Basis Set:

  -Total Gradient:
     Atom            X                  Y                   Z
    ------   -----------------  -----------------  -----------------
       1       -0.000001578285     0.000001081506     0.000000477589
       2       -0.001020643025    -0.002029694221    -0.000402655790
       3        0.000923039516     0.003285541575     0.000097460536
       4       -0.000000929203     0.000001011484     0.000002865531
       5        0.000016822354    -0.000012277911     0.000011301240
       6        0.002021401569    -0.002993688792     0.001794544913
       7        0.000001391989     0.000006272144     0.000016783700
       8       -0.001934443436     0.001730599893    -0.001488162018
       9       -0.000008708730     0.000012225632    -0.000026396671
      10        0.000003647249    -0.000001071310    -0.000006219030

  **** Optimization is complete! (in 4 steps) ****
    Final optimized geometry and variables:
    Molecular point group: c1

    Geometry (in Angstrom), charge = 0, multiplicity = 1:

    H            1.076278799381     0.308573666010     1.382664949873
    C            0.172881499110    -0.263171957403     1.196305531221
    N           -0.485355844186     0.244400265590     0.011399138995
    H           -0.476941299668    -0.141218031483     2.055339143667
    H            0.455826479243    -1.316431391387     1.124437856332
    C            0.294890364285     0.078953801703    -1.198499318829
    H           -1.367581895119    -0.214888427925    -0.095655143826
    H            1.046814123252     0.858898693046    -1.264075986129
    H           -0.351960618262     0.193377704187    -2.061279760927
    H            0.791589074578    -0.890641087882    -1.273693635731

  Mulliken Charges: (a.u.)
   Center  Symbol    Alpha    Beta     Spin     Total
       1     H     0.41797  0.41797  0.00000  0.16407
       2     C     3.14591  3.14591  0.00000 -0.29182
       3     N     3.83776  3.83776  0.00000 -0.67553
       4     H     0.41679  0.41679  0.00000  0.16642
       5     H     0.43429  0.43429  0.00000  0.13142
       6     C     3.14565  3.14565  0.00000 -0.29129
       7     H     0.33257  0.33257  0.00000  0.33486
       8     H     0.41694  0.41694  0.00000  0.16611
       9     H     0.41882  0.41882  0.00000  0.16236
      10     H     0.43330  0.43330  0.00000  0.13341

   Total alpha = 13.00000, Total beta = 13.00000, Total charge = -0.00000
