  ==> Input File <==

--------------------------------------------------------------------------
set {
	reference rhf
	basis 6-31G*
}

set_num_threads( 4 )
memory 2 gb

molecule MOL {
0 1

H	 2.176868	 -0.646004	 -0.217325
O	 1.337496	 -0.537251	 0.205931
C	 0.702312	 0.627605	 -0.264544
C	 -0.714990	 0.596302	 0.266387
H	 0.682322	 0.642550	 -1.350929
H	 1.215941	 1.520383	 0.085680
O	 -1.405996	 -0.526611	 -0.195820
H	 -1.257453	 1.468809	 -0.075599
H	 -0.688972	 0.618407	 1.353696
H	 -2.062966	 -0.228090	 -0.811684

	symmetry c1
}
set optking {
	frozen_dihedral = ("
		10 7 4 3
	")
}

ee = optimize('scf')
oeprop('DIPOLE', 'QUADRUPOLE', 'MULLIKEN_CHARGES')
f=open( 'psi4out.xyz', 'w' )
f.write( "10  " )
f.write( str(ee) + "\n" )
f.write( MOL.save_string_xyz() )
f.close()
--------------------------------------------------------------------------

    Molecular point group: c1
  Charge       = 0
  Multiplicity = 1
  Basis Set: 6-31G*
  Basis Set:
  @DF-RHF Final Energy:  -228.91514735524612
    Total Energy =                       -228.9151473552461198
    Molecular point group: c1
  Basis Set: 6-31G*
  Basis Set:
  Basis Set: 6-31G*
  Basis Set:
  @DF-RHF Final Energy:  -228.91688450368227
    Total Energy =                       -228.9168845036822688
  Basis Set: 6-31G*
  Basis Set:
  Basis Set: 6-31G*
  Basis Set:
  @DF-RHF Final Energy:  -228.91709415143265
    Total Energy =                       -228.9170941514325932
  Basis Set: 6-31G*
  Basis Set:
  Basis Set: 6-31G*
  Basis Set:
  @DF-RHF Final Energy:  -228.91711290752716
    Total Energy =                       -228.9171129075272404
  Basis Set: 6-31G*
  Basis Set:
  Basis Set: 6-31G*
  Basis Set:
  @DF-RHF Final Energy:  -228.91711412633757
    Total Energy =                       -228.9171141263375091
  Basis Set: 6-31G*
  Basis Set:
  Charge       = 0
  Multiplicity = 1
  Basis Set: 6-31G*
  Basis Set:

    Orbital Energies (a.u.)
    -----------------------

    Doubly Occupied:

       1A    -20.553005     2A    -20.551941     3A    -11.270628
       4A    -11.269880     5A     -1.370490     6A     -1.350554
       7A     -1.001097     8A     -0.836386     9A     -0.721486
      10A     -0.684970    11A     -0.642996    12A     -0.593815
      13A     -0.573143    14A     -0.517244    15A     -0.492559
      16A     -0.442573    17A     -0.429444

  @DF-RHF Final Energy:  -228.91711427027801

   => Energetics <=

    Nuclear Repulsion Energy =            133.1564444646726599
    One-Electron Energy =                -577.5426954743749093
    Two-Electron Energy =                 215.4691367394241297
    DFT Exchange-Correlation Energy =       0.0000000000000000
    Empirical Dispersion Energy =           0.0000000000000000
    PCM Polarization Energy =               0.0000000000000000
    EFP Energy =                            0.0000000000000000
    Total Energy =                       -228.9171142702781481
    Molecular point group: c1
  Basis Set: 6-31G*
  Basis Set:

  -Total Gradient:
     Atom            X                  Y                   Z
    ------   -----------------  -----------------  -----------------
       1        0.000010276185    -0.000001851538     0.000006468240
       2       -0.000010760099    -0.000004323218    -0.000011941752
       3        0.000205120554    -0.000352858047     0.000489880448
       4       -0.000426074231     0.000521205684    -0.000485861307
       5        0.000003969272     0.000002250653    -0.000013336000
       6       -0.000007841013    -0.000003444565    -0.000004018798
       7        0.000872338227    -0.000243560808    -0.000738283014
       8       -0.000002658881    -0.000007779956     0.000000853738
       9        0.000001259774     0.000006000107     0.000007562572
      10       -0.000645629790     0.000084361688     0.000748675874

  **** Optimization is complete! (in 6 steps) ****
    Final optimized geometry and variables:
    Molecular point group: c1

    Geometry (in Angstrom), charge = 0, multiplicity = 1:

    H            2.242129308813    -0.620620303841    -0.158749499513
    O            1.409293937686    -0.518863637803     0.278678006150
    C            0.717350552341     0.569345143919    -0.264918061179
    C           -0.698235844854     0.558873729974     0.272685760555
    H            0.688099858128     0.515097199539    -1.351309467481
    H            1.194786500141     1.509127589854     0.013234258445
    O           -1.435754549848    -0.526847520349    -0.225037253909
    H           -1.176828588403     1.504151620712     0.027559060114
    H           -0.659094767799     0.476529248297     1.352388673091
    H           -2.096738741249    -0.221599269947    -0.826929354594

  Mulliken Charges: (a.u.)
   Center  Symbol    Alpha    Beta     Spin     Total
       1     H     0.27985  0.27985  0.00000  0.44030
       2     O     4.36447  4.36447  0.00000 -0.72895
       3     C     2.99633  2.99633  0.00000  0.00735
       4     C     3.00416  3.00416  0.00000 -0.00831
       5     H     0.43153  0.43153  0.00000  0.13695
       6     H     0.43421  0.43421  0.00000  0.13158
       7     O     4.36595  4.36595  0.00000 -0.73190
       8     H     0.43188  0.43188  0.00000  0.13625
       9     H     0.41105  0.41105  0.00000  0.17789
      10     H     0.28058  0.28058  0.00000  0.43885

   Total alpha = 17.00000, Total beta = 17.00000, Total charge = -0.00000
