  ==> Input File <==

--------------------------------------------------------------------------
set {
	reference rhf
	basis cc-pvtz
}

set_num_threads( 4 )
memory 2 gb

molecule MOL {
0 1

H	 -3.043836	 -0.312389	 0.865836
C	 -2.777907	 -0.260049	 -0.187457
O	 -1.401606	 -0.295183	 -0.366624
H	 -3.199417	 -1.115245	 -0.695255
H	 -3.213011	 0.645086	 -0.607339
C	 -0.718530	 0.758693	 0.228682
C	 0.718529	 0.758687	 -0.228709
H	 -1.176498	 1.708665	 -0.046615
H	 -0.748705	 0.673525	 1.312779
O	 1.401606	 -0.295166	 0.366636
H	 0.748705	 0.673477	 -1.312803
H	 1.176496	 1.708671	 0.046552
C	 2.714315	 -0.441627	 -0.061017
H	 2.765292	 -0.641548	 -1.128869
H	 3.305661	 0.447341	 0.150952
H	 3.143725	 -1.278506	 0.470147

	symmetry c1
}
set optking {
	frozen_dihedral = ("
		2 3 6 7
	")
}

ee = optimize('scf')
oeprop('DIPOLE', 'QUADRUPOLE', 'MULLIKEN_CHARGES')
f=open( 'psi4out.xyz', 'w' )
f.write( "16  " )
f.write( str(ee) + "\n" )
f.write( MOL.save_string_xyz() )
f.close()
--------------------------------------------------------------------------

    Molecular point group: c1
  Charge       = 0
  Multiplicity = 1
  Basis Set: CC-PVTZ
  Basis Set:
  @DF-RHF Final Energy:  -307.09749256172188
    Total Energy =                       -307.0974925617219924
    Molecular point group: c1
  Basis Set: CC-PVTZ
  Basis Set:
  Basis Set: CC-PVTZ
  Basis Set:
  @DF-RHF Final Energy:  -307.09751255964926
    Total Energy =                       -307.0975125596494308
  Basis Set: CC-PVTZ
  Basis Set:
  Charge       = 0
  Multiplicity = 1
  Basis Set: CC-PVTZ
  Basis Set:

    Orbital Energies (a.u.)
    -----------------------

    Doubly Occupied:

       1A    -20.547897     2A    -20.547616     3A    -11.267769
       4A    -11.267086     5A    -11.262201     6A    -11.261453
       7A     -1.391609     8A     -1.374574     9A     -1.032146
      10A     -0.937132    11A     -0.893149    12A     -0.823979
      13A     -0.687509    14A     -0.681718    15A     -0.659571
      16A     -0.639473    17A     -0.631088    18A     -0.598588
      19A     -0.553721    20A     -0.534057    21A     -0.509305
      22A     -0.478976    23A     -0.466703    24A     -0.423250
      25A     -0.413236

  @DF-RHF Final Energy:  -307.09751497080617

   => Energetics <=

    Nuclear Repulsion Energy =            258.6043403926482824
    One-Electron Energy =                -931.6361025082089782
    Two-Electron Energy =                 365.9342471447545222
    DFT Exchange-Correlation Energy =       0.0000000000000000
    Empirical Dispersion Energy =           0.0000000000000000
    PCM Polarization Energy =               0.0000000000000000
    EFP Energy =                            0.0000000000000000
    Total Energy =                       -307.0975149708061736
    Molecular point group: c1
  Basis Set: CC-PVTZ
  Basis Set:

  -Total Gradient:
     Atom            X                  Y                   Z
    ------   -----------------  -----------------  -----------------
       1       -0.000014676937    -0.000009290953    -0.000001681466
       2       -0.000126746681     0.000820975228    -0.001214389167
       3        0.000061293325    -0.000884455579     0.001323846605
       4        0.000031722646    -0.000009721027     0.000006696017
       5        0.000006584619     0.000001877560     0.000002960517
       6        0.000309278769    -0.000628384153     0.000912821905
       7       -0.000380335657     0.000880067555    -0.001093716940
       8        0.000026347305    -0.000021371653     0.000003164334
       9       -0.000008390042    -0.000016557723    -0.000011943269
      10        0.000086944315    -0.000086945584     0.000039298598
      11       -0.000012833616     0.000003874507     0.000022290816
      12       -0.000008787737    -0.000011706413    -0.000005098731
      13        0.000022982945    -0.000044621004     0.000012317344
      14       -0.000004593456     0.000001117119     0.000004104820
      15       -0.000000468170     0.000003886139     0.000002022797
      16        0.000011678375     0.000001255983    -0.000002694182

  **** Optimization is complete! (in 3 steps) ****
    Final optimized geometry and variables:
    Molecular point group: c1

    Geometry (in Angstrom), charge = 0, multiplicity = 1:

    H           -3.037750762040    -0.330096302611     0.911799385667
    C           -2.768005783940    -0.291313143268    -0.141549168176
    O           -1.391571299051    -0.327599737960    -0.319333873542
    H           -3.188018888738    -1.153893987759    -0.637937975033
    H           -3.201705582836     0.608139242598    -0.574106255128
    C           -0.707459060735     0.727935235374     0.272766828433
    C            0.730699510179     0.728011048471    -0.181733932967
    H           -1.157728390207     1.677401761089    -0.016234656319
    H           -0.748654181334     0.653557762334     1.357222096868
    O            1.412855832279    -0.331749014227     0.404262052748
    H            0.761145288567     0.652528253590    -1.266432142892
    H            1.189438680998     1.674972147920     0.102997782290
    C            2.727200796697    -0.472414576218    -0.020201889616
    H            2.782263580523    -0.659862490425    -1.090137094115
    H            3.317052093183     0.414543014953     0.204221636453
    H            3.155295116211    -1.315074084392     0.502764430978

  Mulliken Charges: (a.u.)
   Center  Symbol    Alpha    Beta     Spin     Total
       1     H     0.47129  0.47129  0.00000  0.05742
       2     C     3.03212  3.03212  0.00000 -0.06425
       3     O     4.16991  4.16991  0.00000 -0.33983
       4     H     0.44629  0.44629  0.00000  0.10743
       5     H     0.47277  0.47277  0.00000  0.05445
       6     C     2.96031  2.96031  0.00000  0.07938
       7     C     2.96025  2.96025  0.00000  0.07950
       8     H     0.47878  0.47878  0.00000  0.04244
       9     H     0.46811  0.46811  0.00000  0.06377
      10     O     4.16996  4.16996  0.00000 -0.33993
      11     H     0.47114  0.47114  0.00000  0.05772
      12     H     0.47664  0.47664  0.00000  0.04671
      13     C     3.03205  3.03205  0.00000 -0.06410
      14     H     0.47038  0.47038  0.00000  0.05924
      15     H     0.47381  0.47381  0.00000  0.05239
      16     H     0.44617  0.44617  0.00000  0.10766

   Total alpha = 25.00000, Total beta = 25.00000, Total charge = -0.00000
