                              Psi4 1.0.54 Driver

  ==> Input File <==

--------------------------------------------------------------------------
set {
	reference rhf
	basis cc-pvtz
}

set_num_threads( 4 )
memory 2 gb

molecule MOL {
0 1

H	 -2.644180	 -0.653737	 1.272255
C	 -2.092774	 -0.380414	 0.391915
O	 -0.808934	 -0.154049	 0.752536
F	 -2.163230	 -1.351640	 -0.507133
F	 -2.627232	 0.691260	 -0.169301
C	 -0.290091	 -0.859075	 1.816980
C	 0.495367	 0.126508	 2.678931
Cl	 0.773549	 -2.165929	 1.263500
H	 -1.054133	 -1.304506	 2.429743
F	 1.004767	 -0.480622	 3.720529
F	 -0.319979	 1.058263	 3.112933
F	 1.460419	 0.703162	 2.016815

	symmetry c1
}
set optking {
	frozen_dihedral = ("
		6 3 2 4
	")
}

ee,wfn = optimize('scf', return_wfn=True)
oeprop( wfn, 'DIPOLE', 'QUADRUPOLE', 'MULLIKEN_CHARGES')
f=open( 'psi4out.xyz', 'w' )
f.write( "12  " )
f.write( str(ee) + "\n" )
f.write( MOL.save_string_xyz() )
f.close()
--------------------------------------------------------------------------

    Molecular point group: c1
  Charge       = 0
  Multiplicity = 1
  Basis Set: CC-PVTZ
  Basis Set:
  @DF-RHF Final Energy: -1146.61407034853210
    Total Energy =                      -1146.6140703485323229
    Molecular point group: c1
  Basis Set: CC-PVTZ
  Basis Set:
  Basis Set: CC-PVTZ
  Basis Set:
  @DF-RHF Final Energy: -1146.61570873819119
    Total Energy =                      -1146.6157087381907331
  Basis Set: CC-PVTZ
  Basis Set:
  Basis Set: CC-PVTZ
  Basis Set:
  @DF-RHF Final Energy: -1146.61630526713952
    Total Energy =                      -1146.6163052671397509
  Basis Set: CC-PVTZ
  Basis Set:
  Basis Set: CC-PVTZ
  Basis Set:
  @DF-RHF Final Energy: -1146.61644800276963
    Total Energy =                      -1146.6164480027696300
  Basis Set: CC-PVTZ
  Basis Set:
  @DF-RHF Final Energy: -1146.61659123594063
    Total Energy =                      -1146.6165912359410868
  Basis Set: CC-PVTZ
  Basis Set:
  @DF-RHF Final Energy: -1146.61655079604634
    Total Energy =                      -1146.6165507960456580
  Basis Set: CC-PVTZ
  Basis Set:
  Basis Set: CC-PVTZ
  Basis Set:
  @DF-RHF Final Energy: -1146.61666771026307
    Total Energy =                      -1146.6166677102637550
  Basis Set: CC-PVTZ
  Basis Set:
  Basis Set: CC-PVTZ
  Basis Set:
  @DF-RHF Final Energy: -1146.61667764553795
    Total Energy =                      -1146.6166776455379477
  Basis Set: CC-PVTZ
  Basis Set:
  Charge       = 0
  Multiplicity = 1
  Basis Set: CC-PVTZ
  Basis Set:

    Orbital Energies (a.u.)
    -----------------------

    Doubly Occupied:

       1A   -104.860913     2A    -26.359274     3A    -26.358210
       4A    -26.356929     5A    -26.341296     6A    -26.337264
       7A    -20.643566     8A    -11.525230     9A    -11.485943
      10A    -11.409002    11A    -10.586468    12A     -8.053244
      13A     -8.051265    14A     -8.051201    15A     -1.772386
      16A     -1.723020    17A     -1.667216    18A     -1.665650
      19A     -1.643377    20A     -1.492272    21A     -1.179808
      22A     -1.057700    23A     -0.988927    24A     -0.936433
      25A     -0.866098    26A     -0.863901    27A     -0.855461
      28A     -0.831074    29A     -0.815481    30A     -0.796875
      31A     -0.738410    32A     -0.734962    33A     -0.709423
      34A     -0.698772    35A     -0.689219    36A     -0.684351
      37A     -0.668220    38A     -0.665139    39A     -0.655457
      40A     -0.645801    41A     -0.615489    42A     -0.565897
      43A     -0.524892    44A     -0.483106    45A     -0.475346

  @DF-RHF Final Energy: -1146.61667857409020

   => Energetics <=

    Nuclear Repulsion Energy =            728.3225470953296963
    One-Electron Energy =               -3039.6185180283246154
    Two-Electron Energy =                1164.6792923589050588
    DFT Exchange-Correlation Energy =       0.0000000000000000
    Empirical Dispersion Energy =           0.0000000000000000
    PCM Polarization Energy =               0.0000000000000000
    EFP Energy =                            0.0000000000000000
    Total Energy =                      -1146.6166785740897467
    Molecular point group: c1
  Basis Set: CC-PVTZ
  Basis Set:

  -Total Gradient:
     Atom            X                  Y                   Z
    ------   -----------------  -----------------  -----------------
       1       -0.000013653769     0.000023822855    -0.000055366410
       2        0.000010823032    -0.000093834893     0.000089246958
       3        0.000039070499    -0.000060070748    -0.000115281699
       4       -0.000033728613     0.000063863970    -0.000023241002
       5        0.000006978847    -0.000032089117     0.000025819568
       6       -0.000089273668     0.000147739302     0.000056068020
       7        0.000052779283    -0.000118594250     0.000008310403
       8        0.000010602129    -0.000073789859    -0.000057068785
       9       -0.000004633304    -0.000009333357    -0.000032061036
      10       -0.000017333425     0.000161178166    -0.000035878127
      11        0.000118826471    -0.000000296967    -0.000005626977
      12       -0.000080457423    -0.000008595273     0.000145079080

  **** Optimization is complete! (in 9 steps) ****
    Final optimized geometry and variables:
    Molecular point group: c1

    Geometry (in Angstrom), charge = 0, multiplicity = 1:

    H           -2.379863937084    -0.594103163053    -0.315862761477
    C           -1.813813214323    -0.034888278181    -1.046915934124
    O           -0.615883571091     0.387806112091    -0.564372029523
    F           -1.642712745372    -0.784048964217    -2.118980301689
    F           -2.483852866368     1.033738718469    -1.407093414812
    C            0.028745327717    -0.383728210319     0.361341326565
    C            0.915482719502     0.548625987635     1.185362437743
    CL           1.010883559534    -1.667603876517    -0.379751618175
    H           -0.656517272190    -0.869786131455     1.038678507525
    F            1.541304628874    -0.125254619537     2.116644783773
    F            0.158199946283     1.442944933251     1.775657187265
    F            1.795256879127     1.171086860551     0.453874091394

  Mulliken Charges: (a.u.)
   Center  Symbol    Alpha    Beta     Spin     Total
       1     H     0.48667  0.48667  0.00000  0.02666
       2     C     2.73758  2.73758  0.00000  0.52483
       3     O     4.13811  4.13811  0.00000 -0.27622
       4     F     4.60848  4.60848  0.00000 -0.21696
       5     F     4.60078  4.60078  0.00000 -0.20155
       6     C     2.94744  2.94744  0.00000  0.10511
       7     C     2.66713  2.66713  0.00000  0.66573
       8    CL     8.57236  8.57236  0.00000 -0.14472
       9     H     0.43698  0.43698  0.00000  0.12604
      10     F     4.60214  4.60214  0.00000 -0.20428
      11     F     4.60460  4.60460  0.00000 -0.20921
      12     F     4.59772  4.59772  0.00000 -0.19544

   Total alpha = 45.00000, Total beta = 45.00000, Total charge =  0.00000

*** Psi4 exiting successfully. Buy a developer a beer!
