  ==> Input File <==

--------------------------------------------------------------------------
set {
	reference rhf
	basis 6-31G*
}

set_num_threads( 4 )
memory 2 gb

molecule MOL {
0 1

H	 2.160404	 -0.367654	 0.693081
O	 1.586534	 -0.678666	 -0.000226
C	 0.489431	 0.077273	 0.000046
C	 -0.764129	 -0.759190	 0.000191
O	 0.537743	 1.263962	 0.000257
C	 -2.038368	 0.075731	 -0.000248
H	 -0.717284	 -1.412404	 -0.866059
H	 -0.717458	 -1.411724	 0.866967
H	 -2.086483	 0.712501	 -0.875098
H	 -2.908485	 -0.571682	 -0.000042
H	 -2.086576	 0.713280	 0.874068

	symmetry c1
}
set optking {
	frozen_dihedral = ("
		1 2 3 5
	")
}

ee = optimize('scf')
oeprop('DIPOLE', 'QUADRUPOLE', 'MULLIKEN_CHARGES')
f=open( 'psi4out.xyz', 'w' )
f.write( "11  " )
f.write( str(ee) + "\n" )
f.write( MOL.save_string_xyz() )
f.close()
--------------------------------------------------------------------------

    Molecular point group: c1
  Charge       = 0
  Multiplicity = 1
  Basis Set: 6-31G*
  Basis Set:
  @DF-RHF Final Energy:  -266.83336267773529
    Total Energy =                       -266.8333626777353516
    Molecular point group: c1
  Basis Set: 6-31G*
  Basis Set:
  Basis Set: 6-31G*
  Basis Set:
  @DF-RHF Final Energy:  -266.83149786049398
    Total Energy =                       -266.8314978604939824
  Basis Set: 6-31G*
  Basis Set:
  Basis Set: 6-31G*
  Basis Set:
  @DF-RHF Final Energy:  -266.83441164120603
    Total Energy =                       -266.8344116412060885
  Basis Set: 6-31G*
  Basis Set:
  Basis Set: 6-31G*
  Basis Set:
  @DF-RHF Final Energy:  -266.83450619077331
    Total Energy =                       -266.8345061907732543
  Basis Set: 6-31G*
  Basis Set:
  Basis Set: 6-31G*
  Basis Set:
  @DF-RHF Final Energy:  -266.83451173202570
    Total Energy =                       -266.8345117320259305
  Basis Set: 6-31G*
  Basis Set:
  Basis Set: 6-31G*
  Basis Set:
  @DF-RHF Final Energy:  -266.83451291867573
    Total Energy =                       -266.8345129186755571
  Basis Set: 6-31G*
  Basis Set:
  Charge       = 0
  Multiplicity = 1
  Basis Set: 6-31G*
  Basis Set:

    Orbital Energies (a.u.)
    -----------------------

    Doubly Occupied:

       1A    -20.603530     2A    -20.558296     3A    -11.382228
       4A    -11.243673     5A    -11.220132     6A     -1.466474
       7A     -1.368014     8A     -1.063824     9A     -0.913702
      10A     -0.802482    11A     -0.705933    12A     -0.683394
      13A     -0.658242    14A     -0.608796    15A     -0.573713
      16A     -0.526831    17A     -0.525303    18A     -0.504233
      19A     -0.483776    20A     -0.445650

  @DF-RHF Final Energy:  -266.83451311406554

   => Energetics <=

    Nuclear Repulsion Energy =            179.3229719752795575
    One-Electron Energy =                -719.6385208998028702
    Two-Electron Energy =                 273.4810358104577972
    DFT Exchange-Correlation Energy =       0.0000000000000000
    Empirical Dispersion Energy =           0.0000000000000000
    PCM Polarization Energy =               0.0000000000000000
    EFP Energy =                            0.0000000000000000
    Total Energy =                       -266.8345131140655440
    Molecular point group: c1
  Basis Set: 6-31G*
  Basis Set:

  -Total Gradient:
     Atom            X                  Y                   Z
    ------   -----------------  -----------------  -----------------
       1       -0.004448872515    -0.007712794318     0.007932636838
       2        0.005262218923     0.009635685346    -0.014878635980
       3        0.000129560617    -0.002165525741     0.017561488230
       4       -0.000071116465     0.000004059877    -0.000040587225
       5       -0.000916101100     0.000243875657    -0.010605199354
       6        0.000012345063     0.000016747260     0.000018301692
       7        0.000020270580    -0.000015635543     0.000029736291
       8        0.000004271840    -0.000013624271    -0.000019123732
       9       -0.000000666951     0.000003324438    -0.000006161343
      10        0.000019800920    -0.000007195290     0.000000749710
      11       -0.000011710915     0.000011082584     0.000006794872

  **** Optimization is complete! (in 7 steps) ****
    Final optimized geometry and variables:
    Molecular point group: c1

    Geometry (in Angstrom), charge = 0, multiplicity = 1:

    H            2.255301075345    -0.398340446575     0.558503721298
    O            1.601448882362    -0.673556104892    -0.073834732374
    C            0.490374883345     0.084268867150     0.037007978043
    C           -0.762784358432    -0.752085127621     0.003049020709
    O            0.528188435402     1.267043866096     0.054479227289
    C           -2.040489871193     0.075264680295    -0.047752859703
    H           -0.681357798769    -1.415339680780    -0.853028500828
    H           -0.742391338513    -1.398512570253     0.876469096215
    H           -2.063679128460     0.700612198132    -0.932037272129
    H           -2.907492149505    -0.576125476503    -0.067137801535
    H           -2.119974053947     0.724034673615     0.816049966538

  Mulliken Charges: (a.u.)
   Center  Symbol    Alpha    Beta     Spin     Total
       1     H     0.26612  0.26612  0.00000  0.46775
       2     O     4.36062  4.36062  0.00000 -0.72124
       3     C     2.63067  2.63067  0.00000  0.73865
       4     C     3.20750  3.20750  0.00000 -0.41500
       5     O     4.26034  4.26034  0.00000 -0.52067
       6     C     3.23975  3.23975  0.00000 -0.47950
       7     H     0.39667  0.39667  0.00000  0.20666
       8     H     0.40285  0.40285  0.00000  0.19430
       9     H     0.40880  0.40880  0.00000  0.18241
      10     H     0.41686  0.41686  0.00000  0.16628
      11     H     0.40982  0.40982  0.00000  0.18036

   Total alpha = 20.00000, Total beta = 20.00000, Total charge = -0.00000
