  ==> Input File <==

--------------------------------------------------------------------------
set {
	reference rhf
	basis cc-pvtz
}

set_num_threads( 4 )
memory 2 gb

molecule MOL {
0 1

H	 0.453000	 2.133000	 0.000000
C	 -0.091000	 1.207000	 -0.000000
C	 -1.474000	 1.203000	 0.000000
C	 0.599000	 -0.000000	 -0.000000
H	 -2.011000	 2.134000	 0.000000
C	 -2.164000	 0.000000	 -0.000000
C	 2.044000	 -0.000000	 -0.000000
C	 -0.091000	 -1.207000	 0.000000
H	 -3.239000	 0.000000	 0.000000
C	 -1.474000	 -1.202000	 0.000000
N	 3.181000	 0.000000	 0.000000
H	 0.453000	 -2.133000	 0.000000
H	 -2.011000	 -2.133000	 -0.000000

	symmetry c1
}
ee = optimize('scf')
oeprop('DIPOLE', 'QUADRUPOLE', 'MULLIKEN_CHARGES')
f=open( 'psi4out.xyz', 'w' )
f.write( "13  " )
f.write( str(ee) + "\n" )
f.write( MOL.save_string_xyz() )
f.close()
--------------------------------------------------------------------------

    Molecular point group: c1
  Charge       = 0
  Multiplicity = 1
  Basis Set: CC-PVTZ
  Basis Set:
  @DF-RHF Final Energy:  -322.54339665411072
    Total Energy =                       -322.5433966541106656
    Molecular point group: c1
  Basis Set: CC-PVTZ
  Basis Set:
  Basis Set: CC-PVTZ
  Basis Set:
  @DF-RHF Final Energy:  -322.54369884507639
    Total Energy =                       -322.5436988450761646
  Basis Set: CC-PVTZ
  Basis Set:
  Basis Set: CC-PVTZ
  Basis Set:
  @DF-RHF Final Energy:  -322.54369452355530
    Total Energy =                       -322.5436945235551320
  Basis Set: CC-PVTZ
  Basis Set:
  Basis Set: CC-PVTZ
  Basis Set:
  @DF-RHF Final Energy:  -322.54370273686436
    Total Energy =                       -322.5437027368642475
  Basis Set: CC-PVTZ
  Basis Set:
  @DF-RHF Final Energy:  -322.21462809497018
    Total Energy =                       -322.2146280949703510
  @DF-RHF Final Energy:  -322.25514156569153
    Total Energy =                       -322.2551415656917584
  @DF-RHF Final Energy:  -322.39403671171817
    Total Energy =                       -322.3940367117182291
  @DF-RHF Final Energy:  -322.52171716706761
    Total Energy =                       -322.5217171670675498
  @DF-RHF Final Energy:  -322.39639160097812
    Total Energy =                       -322.3963916009781769
  @DF-RHF Final Energy:  -322.52939843329284
    Total Energy =                       -322.5293984332928403
  @DF-RHF Final Energy:  -322.54354407586470
    Total Energy =                       -322.5435440758647587
  @DF-RHF Final Energy:  -322.54367393463093
    Total Energy =                       -322.5436739346312152
  @DF-RHF Final Energy:  -322.54350530152931
    Total Energy =                       -322.5435053015294216
  @DF-RHF Final Energy:  -322.54340533602300
    Total Energy =                       -322.5434053360227722
  @DF-RHF Final Energy:  -322.54352444809928
    Total Energy =                       -322.5435244480994470
  @DF-RHF Final Energy:  -322.54337858209436
    Total Energy =                       -322.5433785820943058
  @DF-RHF Final Energy:  -322.54226175407780
    Total Energy =                       -322.5422617540775718
  @DF-RHF Final Energy:  -322.54311482741048
    Total Energy =                       -322.5431148274105908
  @DF-RHF Final Energy:  -322.54237808006718
    Total Energy =                       -322.5423780800671807
  @DF-RHF Final Energy:  -322.54229975666732
    Total Energy =                       -322.5422997566670347
  @DF-RHF Final Energy:  -322.54366609107996
    Total Energy =                       -322.5436660910798423
  @DF-RHF Final Energy:  -322.54366130941389
    Total Energy =                       -322.5436613094137783
  @DF-RHF Final Energy:  -322.54362796731488
    Total Energy =                       -322.5436279673144782
  @DF-RHF Final Energy:  -322.54367026254687
    Total Energy =                       -322.5436702625467547
  @DF-RHF Final Energy:  -322.54370086070105
    Total Energy =                       -322.5437008607011649
  @DF-RHF Final Energy:  -322.54020102645364
    Total Energy =                       -322.5402010264537580
  @DF-RHF Final Energy:  -322.54170480033605
    Total Energy =                       -322.5417048003359923
  @DF-RHF Final Energy:  -322.54327956190201
    Total Energy =                       -322.5432795619019544
  @DF-RHF Final Energy:  -322.54368061613440
    Total Energy =                       -322.5436806161342247
  @DF-RHF Final Energy:  -322.53455871259223
    Total Energy =                       -322.5345587125925135
  @DF-RHF Final Energy:  -322.54093104617328
    Total Energy =                       -322.5409310461733412
  @DF-RHF Final Energy:  -322.54298079623345
    Total Energy =                       -322.5429807962333371
  @DF-RHF Final Energy:  -322.54365899538095
    Total Energy =                       -322.5436589953810653
  @DF-RHF Final Energy:  -322.54334605719839
    Total Energy =                       -322.5433460571983915
  @DF-RHF Final Energy:  -322.54357492841751
    Total Energy =                       -322.5435749284172857
  @DF-RHF Final Energy:  -322.54370071396056
    Total Energy =                       -322.5437007139607317
  Basis Set: CC-PVTZ
  Basis Set:
  @DF-RHF Final Energy:  -322.54354682973542
    Total Energy =                       -322.5435468297353054
  Basis Set: CC-PVTZ
  Basis Set:
  Basis Set: CC-PVTZ
  Basis Set:
  @DF-RHF Final Energy:  -322.54369352749728
    Total Energy =                       -322.5436935274972257
  Basis Set: CC-PVTZ
  Basis Set:
  Basis Set: CC-PVTZ
  Basis Set:
  @DF-RHF Final Energy:  -322.54360748900461
    Total Energy =                       -322.5436074890046712
  Basis Set: CC-PVTZ
  Basis Set:
  Charge       = 0
  Multiplicity = 1
  Basis Set: CC-PVTZ
  Basis Set:

    Orbital Energies (a.u.)
    -----------------------

    Doubly Occupied:

       1A    -15.562010     2A    -11.286466     3A    -11.265843
       4A    -11.265277     5A    -11.264067     6A    -11.260044
       7A    -11.255597     8A    -11.254939     9A     -1.236629
      10A     -1.189464    11A     -1.064487    12A     -1.050537
      13A     -0.885898    14A     -0.861748    15A     -0.767741
      16A     -0.698799    17A     -0.664127    18A     -0.638209
      19A     -0.620687    20A     -0.563847    21A     -0.558066
      22A     -0.534416    23A     -0.530942    24A     -0.488654
      25A     -0.476180    26A     -0.367064    27A     -0.360897

  @DF-RHF Final Energy:  -322.54329921364035

   => Energetics <=

    Nuclear Repulsion Energy =            302.5398941444879028
    One-Electron Energy =               -1034.2211233527382319
    Two-Electron Energy =                 409.1379299946099763
    DFT Exchange-Correlation Energy =       0.0000000000000000
    Empirical Dispersion Energy =           0.0000000000000000
    PCM Polarization Energy =               0.0000000000000000
    EFP Energy =                            0.0000000000000000
    Total Energy =                       -322.5432992136403527
    Molecular point group: c1
  Basis Set: CC-PVTZ
  Basis Set:

  -Total Gradient:
     Atom            X                  Y                   Z
    ------   -----------------  -----------------  -----------------
       1        0.000115200247    -0.000265335785     0.000005907318
       2        0.002656564906     0.002217960438     0.000186858967
       3        0.000832572536    -0.000856921676    -0.000121696212
       4       -0.000007185551    -0.008603258723     0.000457202357
       5        0.000285271808     0.000071586994    -0.000004153461
       6       -0.000015016995    -0.000683316974    -0.000038502425
       7        0.004804906268     0.010487494012    -0.001030208596
       8       -0.002840562477     0.002015515388     0.000001398391
       9        0.000015762683    -0.000063213504     0.000021054382
      10       -0.000719089868    -0.001056599098     0.000026299809
      11       -0.004753176514    -0.003024995084     0.000487455371
      12       -0.000122782978    -0.000292604011     0.000026823041
      13       -0.000252464065     0.000053688026    -0.000018438941

    Molecular point group: c1

    Geometry (in Angstrom), charge = 0, multiplicity = 1:

    H            0.401213462388     2.117865005743    -0.000030470892
    C           -0.146159960499     1.196299690857    -0.001293347349
    C           -1.525443399530     1.197402774586    -0.009226042822
    C            0.536747045436    -0.010472179152     0.004052415673
    H           -2.057005012612     2.128805414595    -0.013939664187
    C           -2.219071227872     0.000848141392    -0.010575967768
    C            1.978657088044    -0.003583522227     0.010769419366
    C           -0.156618773930    -1.210646840721     0.002821244616
    H           -3.291975714688     0.005599693685    -0.016309933337
    C           -1.536178297500    -1.201380735272    -0.004094612985
    N            3.107175896666     0.027990866219     0.008463561322
    H            0.382178054272    -2.137510533290     0.007547102711
    H           -2.075646622653    -2.128220374258    -0.005003178391

  Mulliken Charges: (a.u.)
   Center  Symbol    Alpha    Beta     Spin     Total
       1     H     0.41395  0.41395  0.00000  0.17211
       2     C     3.08640  3.08640  0.00000 -0.17279
       3     C     3.06670  3.06670  0.00000 -0.13339
       4     C     2.93648  2.93648  0.00000  0.12703
       5     H     0.41801  0.41801  0.00000  0.16398
       6     C     3.07454  3.07454  0.00000 -0.14908
       7     C     3.02843  3.02843  0.00000 -0.05687
       8     C     3.08434  3.08434  0.00000 -0.16868
       9     H     0.41785  0.41785  0.00000  0.16430
      10     C     3.06627  3.06627  0.00000 -0.13254
      11     N     3.57565  3.57565  0.00000 -0.15130
      12     H     0.41383  0.41383  0.00000  0.17235
      13     H     0.41757  0.41757  0.00000  0.16487

   Total alpha = 27.00000, Total beta = 27.00000, Total charge = -0.00000
