  ==> Input File <==

--------------------------------------------------------------------------
set {
	reference rhf
	basis 6-31G*
}

set_num_threads( 1 )
memory 2 gb

molecule MOL {
0 1

H	 3.089270	 -1.380733	 0.000000
O	 2.178328	 -1.639175	 0.000000
C	 1.368216	 -0.558384	 0.000000
C	 1.734606	 0.646269	 -0.586409
C	 0.133669	 -0.682150	 0.613193
H	 2.695821	 0.740477	 -1.063093
C	 0.867119	 1.725343	 -0.559309
H	 -0.150577	 -1.612081	 1.066523
C	 -0.728885	 0.402996	 0.635912
H	 1.161734	 2.652483	 -1.016464
C	 -0.368635	 1.610576	 0.051325
C	 -2.056729	 0.276874	 1.293021
H	 -1.044014	 2.447460	 0.073541
O	 -2.457097	 -0.711249	 1.820149
H	 -2.672709	 1.180759	 1.264595

	symmetry c1
}
set optking {
	frozen_dihedral = ("
		11 9 12 14
	")
}

ee = energy('scf')
oeprop('DIPOLE', 'QUADRUPOLE', 'MULLIKEN_CHARGES')
f=open( 'psi4out.xyz', 'w' )
f.write( "15  " )
f.write( str(ee) + "\n" )
f.write( MOL.save_string_xyz() )
f.close()
--------------------------------------------------------------------------

    Molecular point group: c1

    Geometry (in Angstrom), charge = 0, multiplicity = 1:

       Center              X                  Y                   Z               Mass
    ------------   -----------------  -----------------  -----------------  -----------------
           H          3.007023745428    -1.442381168041    -0.383602140285     1.007825032070
           O          2.096081745428    -1.700823168041    -0.383602140285    15.994914619560
           C          1.285969745428    -0.620032168041    -0.383602140285    12.000000000000
           C          1.652359745428     0.584620831959    -0.970011140285    12.000000000000
           C          0.051422745428    -0.743798168041     0.229590859715    12.000000000000
           H          2.613574745428     0.678828831959    -1.446695140285     1.007825032070
           C          0.784872745428     1.663694831959    -0.942911140285    12.000000000000
           H         -0.232823254572    -1.673729168041     0.682920859715     1.007825032070
           C         -0.811131254572     0.341347831959     0.252309859715    12.000000000000
           H          1.079487745428     2.590834831959    -1.400066140285     1.007825032070
           C         -0.450881254572     1.548927831959    -0.332277140285    12.000000000000
           C         -2.138975254572     0.215225831959     0.909418859715    12.000000000000
           H         -1.126260254572     2.385811831959    -0.310061140285     1.007825032070
           O         -2.539343254572    -0.772897168041     1.436546859715    15.994914619560
           H         -2.754955254572     1.119110831959     0.880992859715     1.007825032070

  Charge       = 0
  Multiplicity = 1
  Basis Set: 6-31G*
  Basis Set:

    Orbital Energies (a.u.)
    -----------------------

    Doubly Occupied:

       1A    -20.598214     2A    -20.564259     3A    -11.332388
       4A    -11.310409     5A    -11.252708     6A    -11.251354
       7A    -11.249776     8A    -11.247521     9A    -11.239942
      10A     -1.418979    11A     -1.404944    12A     -1.169492
      13A     -1.048494    14A     -1.026682    15A     -0.899052
      16A     -0.845784    17A     -0.811417    18A     -0.736853
      19A     -0.701151    20A     -0.685341    21A     -0.640051
      22A     -0.636481    23A     -0.614147    24A     -0.606287
      25A     -0.562862    26A     -0.549652    27A     -0.541296
      28A     -0.510377    29A     -0.486293    30A     -0.423250
      31A     -0.353060    32A     -0.328869

  @DF-RHF Final Energy:  -418.28505205600078

   => Energetics <=

    Nuclear Repulsion Energy =            403.1597684357373623
    One-Electron Energy =               -1368.7948772676350018
    Two-Electron Energy =                 547.3500567758972011
    DFT Exchange-Correlation Energy =       0.0000000000000000
    Empirical Dispersion Energy =           0.0000000000000000
    PCM Polarization Energy =               0.0000000000000000
    EFP Energy =                            0.0000000000000000
    Total Energy =                       -418.2850520560004952

  Mulliken Charges: (a.u.)
   Center  Symbol    Alpha    Beta     Spin     Total
       1     H     0.27079  0.27079  0.00000  0.45841
       2     O     4.37777  4.37777  0.00000 -0.75553
       3     C     2.80033  2.80033  0.00000  0.39935
       4     C     3.12920  3.12920  0.00000 -0.25841
       5     C     3.11195  3.11195  0.00000 -0.22389
       6     H     0.39685  0.39685  0.00000  0.20630
       7     C     3.09647  3.09647  0.00000 -0.19294
       8     H     0.37037  0.37037  0.00000  0.25927
       9     C     3.04726  3.04726  0.00000 -0.09452
      10     H     0.39309  0.39309  0.00000  0.21383
      11     C     3.11339  3.11339  0.00000 -0.22679
      12     C     2.83249  2.83249  0.00000  0.33503
      13     H     0.39291  0.39291  0.00000  0.21417
      14     O     4.24514  4.24514  0.00000 -0.49029
      15     H     0.42199  0.42199  0.00000  0.15602

   Total alpha = 32.00000, Total beta = 32.00000, Total charge =  0.00000
