  ==> Input File <==

--------------------------------------------------------------------------
set {
	reference rhf
	basis 6-31G*
}

set_num_threads( 4 )
memory 2 gb

molecule MOL {
0 1

O	 -2.324811	 1.361668	 -0.277141
C	 -2.105949	 0.203097	 -0.092081
C	 -0.889235	 -0.467034	 -0.705952
C	 -3.002726	 -0.644460	 0.782455
C	 -0.510063	 0.199723	 -2.038170
H	 -1.140040	 -1.507653	 -0.880630
H	 -0.047224	 -0.432419	 -0.020499
C	 0.694214	 -0.473358	 -2.700962
H	 -1.374397	 0.165006	 -2.691702
H	 -0.284891	 1.251802	 -1.870318
C	 1.158677	 0.196054	 -3.999505
H	 0.456486	 -1.516736	 -2.899897
H	 1.524269	 -0.478439	 -1.997520
C	 0.155896	 0.109995	 -5.151469
H	 2.089541	 -0.271177	 -4.310760
H	 1.395088	 1.239582	 -3.801393
H	 -0.106378	 -0.922827	 -5.364112
H	 0.574221	 0.537054	 -6.057573
H	 -0.761721	 0.645990	 -4.933572
H	 -3.496582	 -1.399307	 0.176174
H	 -3.747939	 -0.023774	 1.260148
H	 -2.421318	 -1.168775	 1.535358

	symmetry c1
}
set optking {
	frozen_dihedral = ("
		6 3 2 1
	")
}

ee = optimize('scf')
oeprop('DIPOLE', 'QUADRUPOLE', 'MULLIKEN_CHARGES')
f=open( 'psi4out.xyz', 'w' )
f.write( "22  " )
f.write( str(ee) + "\n" )
f.write( MOL.save_string_xyz() )
f.close()
--------------------------------------------------------------------------

    Molecular point group: c1
  Charge       = 0
  Multiplicity = 1
  Basis Set: 6-31G*
  Basis Set:
  @DF-RHF Final Energy:  -348.09840656275418
    Total Energy =                       -348.0984065627545192
    Molecular point group: c1
  Basis Set: 6-31G*
  Basis Set:
  Basis Set: 6-31G*
  Basis Set:
  @DF-RHF Final Energy:  -348.09912758939242
    Total Energy =                       -348.0991275893921966
  Basis Set: 6-31G*
  Basis Set:
  Basis Set: 6-31G*
  Basis Set:
  @DF-RHF Final Energy:  -348.09882121665800
    Total Energy =                       -348.0988212166580524
  Basis Set: 6-31G*
  Basis Set:
  Basis Set: 6-31G*
  Basis Set:
  @DF-RHF Final Energy:  -348.09973889473378
    Total Energy =                       -348.0997388947336049
  Basis Set: 6-31G*
  Basis Set:
  @DF-RHF Final Energy:  -348.09947479104676
    Total Energy =                       -348.0994747910469869
  @DF-RHF Final Energy:  -348.09962622279892
    Total Energy =                       -348.0996262227992020
  Basis Set: 6-31G*
  Basis Set:
  @DF-RHF Final Energy:  -348.09975108080545
    Total Energy =                       -348.0997510808052198
  Basis Set: 6-31G*
  Basis Set:
  Basis Set: 6-31G*
  Basis Set:
  @DF-RHF Final Energy:  -348.09974720825772
    Total Energy =                       -348.0997472082573267
  Basis Set: 6-31G*
  Basis Set:
  Basis Set: 6-31G*
  Basis Set:
  @DF-RHF Final Energy:  -348.09975160675492
    Total Energy =                       -348.0997516067551487
  Basis Set: 6-31G*
  Basis Set:
  Charge       = 0
  Multiplicity = 1
  Basis Set: 6-31G*
  Basis Set:

    Orbital Energies (a.u.)
    -----------------------

    Doubly Occupied:

       1A    -20.549373     2A    -11.326294     3A    -11.231718
       4A    -11.228608     5A    -11.218358     6A    -11.217744
       7A    -11.216657     8A    -11.208639     9A     -1.395100
      10A     -1.090950    11A     -1.042969    12A     -1.001112
      13A     -0.935322    14A     -0.854818    15A     -0.781935
      16A     -0.731054    17A     -0.654512    18A     -0.650827
      19A     -0.629616    20A     -0.610722    21A     -0.603351
      22A     -0.580881    23A     -0.558337    24A     -0.548967
      25A     -0.521919    26A     -0.516240    27A     -0.498152
      28A     -0.481854    29A     -0.464618    30A     -0.462060
      31A     -0.459210    32A     -0.398630

  @DF-RHF Final Energy:  -348.09975173018893

   => Energetics <=

    Nuclear Repulsion Energy =            372.2141175104541162
    One-Electron Energy =               -1209.2866496309179638
    Two-Electron Energy =                 488.9727803902751475
    DFT Exchange-Correlation Energy =       0.0000000000000000
    Empirical Dispersion Energy =           0.0000000000000000
    PCM Polarization Energy =               0.0000000000000000
    EFP Energy =                            0.0000000000000000
    Total Energy =                       -348.0997517301887001
    Molecular point group: c1
  Basis Set: 6-31G*
  Basis Set:

  -Total Gradient:
     Atom            X                  Y                   Z
    ------   -----------------  -----------------  -----------------
       1        0.000828522727     0.000362911189     0.001044467448
       2       -0.001025095110    -0.000551402838    -0.001192759888
       3       -0.000321819680     0.000484343993    -0.001102918264
       4        0.000003172424    -0.000009277543     0.000007920922
       5       -0.000020433125    -0.000004998068     0.000013680577
       6        0.000555862669    -0.000284897759     0.001223480604
       7       -0.000021279265     0.000003331075    -0.000009687123
       8        0.000003870291    -0.000003164996     0.000002998757
       9       -0.000003170580     0.000005358943     0.000007975923
      10       -0.000000855022     0.000006219921     0.000007755185
      11       -0.000011957849     0.000007032795     0.000003969912
      12       -0.000006546382     0.000001949492     0.000004800123
      13        0.000018802222    -0.000005855967    -0.000010964477
      14        0.000000510682    -0.000001786135    -0.000004361063
      15        0.000004614614     0.000001295611     0.000007095998
      16       -0.000007878411     0.000001362032     0.000001183102
      17       -0.000003865444    -0.000002767303    -0.000000048212
      18        0.000003566005    -0.000004195559     0.000001061266
      19        0.000009414964     0.000001403738    -0.000005377304
      20       -0.000001752247    -0.000001542920     0.000002068756
      21       -0.000001880264    -0.000002281181    -0.000005114342
      22       -0.000001803217    -0.000003038520     0.000002772096

  **** Optimization is complete! (in 10 steps) ****
    Final optimized geometry and variables:
    Molecular point group: c1

    Geometry (in Angstrom), charge = 0, multiplicity = 1:

    O           -1.535376360051     1.291083775768     1.505069759492
    C           -1.270586248499     0.143298452969     1.694102080307
    C           -0.092307399889    -0.531274080729     1.013228681729
    C           -2.073402932206    -0.705415510330     2.656246959635
    C            0.328149311577     0.130531523598    -0.297382877327
    H           -0.310767120279    -1.587291374396     0.873124868568
    H            0.729914440103    -0.499860566889     1.729014799032
    C            1.550053423509    -0.546764845228    -0.922777920616
    H           -0.510542642433     0.107639507381    -0.986167768394
    H            0.539818411933     1.177473930792    -0.110153400295
    C            2.064984221350     0.129266138056    -2.198653935180
    H            1.319125638439    -1.589065768393    -1.138904030332
    H            2.355940258925    -0.560585044344    -0.191328654925
    C            1.103440570315     0.060225113482    -3.386415669594
    H            3.003440524126    -0.341226313801    -2.481442571359
    H            2.299523782026     1.169458799754    -1.983292770704
    H            0.839429931871    -0.968879535222    -3.615687044087
    H            1.557953416628     0.488915269229    -4.274196615196
    H            0.184268483483     0.604403813512    -3.197508155729
    H           -2.626878545013    -1.459404638006     2.102872109394
    H           -2.767655750161    -0.084295180008     3.204924674481
    H           -1.419968500422    -1.229119387976     3.347706768809

  Mulliken Charges: (a.u.)
   Center  Symbol    Alpha    Beta     Spin     Total
       1     O     4.26275  4.26275  0.00000 -0.52550
       2     C     2.73395  2.73395  0.00000  0.53210
       3     C     3.21041  3.21041  0.00000 -0.42083
       4     C     3.28775  3.28775  0.00000 -0.57549
       5     C     3.15233  3.15233  0.00000 -0.30466
       6     H     0.41345  0.41345  0.00000  0.17310
       7     H     0.40570  0.40570  0.00000  0.18860
       8     C     3.15428  3.15428  0.00000 -0.30856
       9     H     0.41575  0.41575  0.00000  0.16850
      10     H     0.40611  0.40611  0.00000  0.18777
      11     C     3.15244  3.15244  0.00000 -0.30487
      12     H     0.42531  0.42531  0.00000  0.14939
      13     H     0.42271  0.42271  0.00000  0.15459
      14     C     3.24204  3.24204  0.00000 -0.48409
      15     H     0.42089  0.42089  0.00000  0.15823
      16     H     0.42112  0.42112  0.00000  0.15776
      17     H     0.42307  0.42307  0.00000  0.15387
      18     H     0.41855  0.41855  0.00000  0.16290
      19     H     0.41784  0.41784  0.00000  0.16431
      20     H     0.40670  0.40670  0.00000  0.18660
      21     H     0.39691  0.39691  0.00000  0.20619
      22     H     0.40995  0.40995  0.00000  0.18009

   Total alpha = 32.00000, Total beta = 32.00000, Total charge =  0.00000
