                              Psi4 1.0.54 Driver

  ==> Input File <==

--------------------------------------------------------------------------
set {
	reference rhf
	basis cc-pvtz
}

set_num_threads( 4 )
memory 2 gb

molecule MOL {
0 1

H	 -2.597259	 1.803201	 1.668035
O	 -1.913231	 1.220624	 1.394347
C	 -2.302264	 0.528872	 0.237390
C	 -1.175688	 -0.398187	 -0.171891
H	 -3.206519	 -0.046706	 0.423953
H	 -2.518902	 1.226808	 -0.568701
C	 0.196029	 0.106276	 0.266738
H	 -1.201873	 -0.515469	 -1.250677
H	 -1.365975	 -1.378728	 0.252664
C	 1.330220	 -0.826136	 -0.155230
H	 0.359542	 1.097229	 -0.145561
H	 0.212134	 0.218135	 1.348778
C	 2.719700	 -0.407669	 0.328325
H	 1.339388	 -0.911200	 -1.239363
H	 1.119001	 -1.821953	 0.224128
C	 3.241564	 0.893452	 -0.276737
H	 3.418299	 -1.204729	 0.093035
H	 2.711776	 -0.323368	 1.411960
H	 3.254204	 0.841071	 -1.360784
H	 2.634460	 1.745075	 0.005842
H	 4.254264	 1.092401	 0.054971

	symmetry c1
}
set optking {
	frozen_dihedral = ("
		2 3 4 8
	")
}

ee,wfn = optimize('scf', return_wfn=True)
oeprop( wfn, 'DIPOLE', 'QUADRUPOLE', 'MULLIKEN_CHARGES')
f=open( 'psi4out.xyz', 'w' )
f.write( "21  " )
f.write( str(ee) + "\n" )
f.write( MOL.save_string_xyz() )
f.close()
--------------------------------------------------------------------------

    Molecular point group: c1
  Charge       = 0
  Multiplicity = 1
  Basis Set: CC-PVTZ
  Basis Set:
  @DF-RHF Final Energy:  -310.32665726100282
    Total Energy =                       -310.3266572610028788
    Molecular point group: c1
  Basis Set: CC-PVTZ
  Basis Set:
  Basis Set: CC-PVTZ
  Basis Set:
  @DF-RHF Final Energy:  -310.32734022124777
    Total Energy =                       -310.3273402212478231
  Basis Set: CC-PVTZ
  Basis Set:
  Basis Set: CC-PVTZ
  Basis Set:
  @DF-RHF Final Energy:  -310.32809387883947
    Total Energy =                       -310.3280938788394678
  Basis Set: CC-PVTZ
  Basis Set:
  Basis Set: CC-PVTZ
  Basis Set:
  @DF-RHF Final Energy:  -310.32812914175145
    Total Energy =                       -310.3281291417516741
  Basis Set: CC-PVTZ
  Basis Set:
  Basis Set: CC-PVTZ
  Basis Set:
  @DF-RHF Final Energy:  -310.32813242711057
    Total Energy =                       -310.3281324271102335
  Basis Set: CC-PVTZ
  Basis Set:
  Basis Set: CC-PVTZ
  Basis Set:
  @DF-RHF Final Energy:  -310.32813465341809
    Total Energy =                       -310.3281346534183740
  Basis Set: CC-PVTZ
  Basis Set:
  Charge       = 0
  Multiplicity = 1
  Basis Set: CC-PVTZ
  Basis Set:

    Orbital Energies (a.u.)
    -----------------------

    Doubly Occupied:

       1A    -20.546069     2A    -11.266558     3A    -11.211029
       4A    -11.207743     5A    -11.205361     6A    -11.201658
       7A    -11.201042     8A     -1.364255     9A     -1.080259
      10A     -1.028574    11A     -0.952785    12A     -0.875933
      13A     -0.800541    14A     -0.772412    15A     -0.700860
      16A     -0.656353    17A     -0.617426    18A     -0.604577
      19A     -0.585869    20A     -0.566886    21A     -0.532317
      22A     -0.524861    23A     -0.499519    24A     -0.492828
      25A     -0.479311    26A     -0.455879    27A     -0.451031
      28A     -0.435985    29A     -0.429999

  @DF-RHF Final Energy:  -310.32813445465655

   => Energetics <=

    Nuclear Repulsion Energy =            318.5018192268333337
    One-Electron Energy =               -1052.1640638086780655
    Two-Electron Energy =                 423.3341101271883531
    DFT Exchange-Correlation Energy =       0.0000000000000000
    Empirical Dispersion Energy =           0.0000000000000000
    PCM Polarization Energy =               0.0000000000000000
    EFP Energy =                            0.0000000000000000
    Total Energy =                       -310.3281344546564355
    Molecular point group: c1
  Basis Set: CC-PVTZ
  Basis Set:

  -Total Gradient:
     Atom            X                  Y                   Z
    ------   -----------------  -----------------  -----------------
       1        0.000046201584    -0.000041200553    -0.000026861148
       2        0.002080507493     0.003713925611    -0.002710880058
       3       -0.001921325108    -0.003765223216     0.003574025195
       4       -0.004155727822    -0.004931487389    -0.000289142599
       5        0.000002685294    -0.000025593944    -0.000040860098
       6        0.000006227244    -0.000030272703    -0.000019774306
       7        0.000041600459     0.000040437111    -0.000003291689
       8        0.003923925937     0.005039538022    -0.000460330652
       9       -0.000017912509    -0.000007116127    -0.000008797135
      10       -0.000003231421     0.000019406050    -0.000011580755
      11       -0.000012992702    -0.000043006511     0.000006924165
      12        0.000003621108    -0.000000509741    -0.000035278214
      13       -0.000022477792     0.000018517317     0.000033239596
      14       -0.000005438533     0.000017870666     0.000011593856
      15        0.000000180417     0.000001260073    -0.000016623275
      16        0.000016153552     0.000005321632    -0.000006835937
      17       -0.000013464220    -0.000004608530     0.000009620896
      18        0.000001799376     0.000010335961     0.000004277790
      19       -0.000002902875     0.000003825874    -0.000000214176
      20        0.000031958540    -0.000016546483    -0.000000617592
      21        0.000000611977    -0.000004873118    -0.000008593863

  **** Optimization is complete! (in 7 steps) ****
    Final optimized geometry and variables:
    Molecular point group: c1

    Geometry (in Angstrom), charge = 0, multiplicity = 1:

    H           -2.981355686171     1.567836893915     1.445938908051
    O           -2.250918672150     1.032414215251     1.197878468194
    C           -2.560089675977     0.321007564960     0.027225459589
    C           -1.411221246719    -0.614555177264    -0.351903746733
    H           -3.474912595209    -0.250707940283     0.154138464917
    H           -2.727637929759     1.025240267958    -0.784605316275
    C           -0.025951467459    -0.097127797388     0.040893952307
    H           -1.417395644309    -0.716919140578    -1.432921101156
    H           -1.565701317956    -1.597105251129     0.080206629117
    C            1.089285653554    -1.012681358503    -0.460569045829
    H            0.103488901277     0.903520040541    -0.357621887315
    H            0.036302101384    -0.004985624285     1.117847487039
    C            2.496059486487    -0.608457491244    -0.016016998412
    H            1.059682866990    -1.061441882999    -1.547227456292
    H            0.896040989507    -2.022699230022    -0.108300356921
    C            2.991076404471     0.715622073602    -0.592960981535
    H            3.187310414262    -1.394047526908    -0.306250298699
    H            2.528362721356    -0.562341458258     1.069208687874
    H            2.960710032503     0.703101122891    -1.678020283895
    H            2.393257692164     1.553166930396    -0.254913905890
    H            4.015954033514     0.905758296109    -0.294795476692

  Mulliken Charges: (a.u.)
   Center  Symbol    Alpha    Beta     Spin     Total
       1     H     0.39787  0.39787  0.00000  0.20427
       2     O     4.19316  4.19316  0.00000 -0.38632
       3     C     2.97113  2.97113  0.00000  0.05775
       4     C     3.09759  3.09759  0.00000 -0.19517
       5     H     0.46740  0.46740  0.00000  0.06521
       6     H     0.47346  0.47346  0.00000  0.05308
       7     C     3.08731  3.08731  0.00000 -0.17462
       8     H     0.45634  0.45634  0.00000  0.08731
       9     H     0.45266  0.45266  0.00000  0.09467
      10     C     3.09563  3.09563  0.00000 -0.19126
      11     H     0.45340  0.45340  0.00000  0.09321
      12     H     0.44381  0.44381  0.00000  0.11238
      13     C     3.08925  3.08925  0.00000 -0.17851
      14     H     0.45650  0.45650  0.00000  0.08701
      15     H     0.45137  0.45137  0.00000  0.09726
      16     C     3.15269  3.15269  0.00000 -0.30538
      17     H     0.44995  0.44995  0.00000  0.10009
      18     H     0.45461  0.45461  0.00000  0.09078
      19     H     0.45627  0.45627  0.00000  0.08747
      20     H     0.45225  0.45225  0.00000  0.09549
      21     H     0.44735  0.44735  0.00000  0.10529

   Total alpha = 29.00000, Total beta = 29.00000, Total charge = -0.00000

*** Psi4 exiting successfully. Buy a developer a beer!
