  ==> Input File <==

--------------------------------------------------------------------------
set {
	reference rhf
	basis 6-31G*
}

set_num_threads( 4 )
memory 2 gb

molecule MOL {
0 1

O	 0.074228	 1.262779	 -0.000085
C	 0.028650	 0.075053	 -0.000277
C	 -1.233602	 -0.752807	 0.000328
O	 1.109162	 -0.694619	 -0.000298
C	 -2.501530	 0.091881	 0.000126
H	 -1.193807	 -1.406641	 -0.865785
H	 -1.193516	 -1.405779	 0.867015
H	 -2.545121	 0.729328	 -0.874513
H	 -3.377167	 -0.548497	 0.000561
H	 -2.544818	 0.730135	 0.874258
C	 2.353676	 -0.055100	 0.218309
H	 2.543425	 0.679497	 -0.550960
H	 3.097128	 -0.835984	 0.181388
H	 2.367239	 0.429776	 1.183805

	symmetry c1
}
set optking {
	frozen_dihedral = ("
		11 4 2 3
	")
}

ee = optimize('scf')
oeprop('DIPOLE', 'QUADRUPOLE', 'MULLIKEN_CHARGES')
f=open( 'psi4out.xyz', 'w' )
f.write( "14  " )
f.write( str(ee) + "\n" )
f.write( MOL.save_string_xyz() )
f.close()
--------------------------------------------------------------------------

    Molecular point group: c1
  Charge       = 0
  Multiplicity = 1
  Basis Set: 6-31G*
  Basis Set:
  @DF-RHF Final Energy:  -305.87155011993013
    Total Energy =                       -305.8715501199301912
    Molecular point group: c1
  Basis Set: 6-31G*
  Basis Set:
  Basis Set: 6-31G*
  Basis Set:
  @DF-RHF Final Energy:  -305.87047840384196
    Total Energy =                       -305.8704784038419007
  Basis Set: 6-31G*
  Basis Set:
  Basis Set: 6-31G*
  Basis Set:
  @DF-RHF Final Energy:  -305.87164173187034
    Total Energy =                       -305.8716417318703975
  Basis Set: 6-31G*
  Basis Set:
  Basis Set: 6-31G*
  Basis Set:
  @DF-RHF Final Energy:  -305.87166174667885
    Total Energy =                       -305.8716617466787966
  Basis Set: 6-31G*
  Basis Set:
  Basis Set: 6-31G*
  Basis Set:
  @DF-RHF Final Energy:  -305.87167468072641
    Total Energy =                       -305.8716746807261870
  Basis Set: 6-31G*
  Basis Set:
  Charge       = 0
  Multiplicity = 1
  Basis Set: 6-31G*
  Basis Set:

    Orbital Energies (a.u.)
    -----------------------

    Doubly Occupied:

       1A    -20.604168     2A    -20.546512     3A    -11.373019
       4A    -11.281704     5A    -11.238873     6A    -11.216780
       7A     -1.469984     8A     -1.363821     9A     -1.064442
      10A     -0.980255    11A     -0.878717    12A     -0.768874
      13A     -0.700683    14A     -0.682608    15A     -0.671833
      16A     -0.621232    17A     -0.602709    18A     -0.545297
      19A     -0.537628    20A     -0.521607    21A     -0.513826
      22A     -0.496463    23A     -0.457302    24A     -0.439243

  @DF-RHF Final Energy:  -305.87167535780645

   => Energetics <=

    Nuclear Repulsion Energy =            247.1085531603355037
    One-Electron Energy =                -906.8052970104621409
    Two-Electron Energy =                 353.8250684923202130
    DFT Exchange-Correlation Energy =       0.0000000000000000
    Empirical Dispersion Energy =           0.0000000000000000
    PCM Polarization Energy =               0.0000000000000000
    EFP Energy =                            0.0000000000000000
    Total Energy =                       -305.8716753578063958
    Molecular point group: c1
  Basis Set: 6-31G*
  Basis Set:

  -Total Gradient:
     Atom            X                  Y                   Z
    ------   -----------------  -----------------  -----------------
       1        0.000026132122    -0.000051802169    -0.000014363654
       2       -0.000238851341     0.000037661605    -0.001989239157
       3        0.000056463371    -0.000133785418     0.002278544345
       4        0.000343311753     0.000697146169    -0.002764733751
       5        0.000009066710    -0.000018686896    -0.000005023787
       6       -0.000002237194    -0.000004499368    -0.000002257940
       7        0.000003979264    -0.000011861225    -0.000004080604
       8        0.000004258714     0.000002796242    -0.000002068498
       9        0.000000910577     0.000002145931     0.000003327270
      10       -0.000003559629     0.000001818846     0.000000025745
      11       -0.000209165691    -0.000535505938     0.002535963094
      12       -0.000003705975     0.000002784614    -0.000014216499
      13       -0.000005018444     0.000000347158    -0.000013828131
      14        0.000018415760     0.000011440453    -0.000008048432

  **** Optimization is complete! (in 6 steps) ****
    Final optimized geometry and variables:
    Molecular point group: c1

    Geometry (in Angstrom), charge = 0, multiplicity = 1:

    O            0.073246440484     1.262642556287     0.093992970750
    C            0.029187774525     0.080232869720    -0.017232783628
    C           -1.231208555367    -0.749980409973    -0.037789837970
    O            1.111362409511    -0.683851854410    -0.098092783890
    C           -2.500561322113     0.091144341071    -0.087290381577
    H           -1.171015071905    -1.430356142355    -0.881206707379
    H           -1.208748448724    -1.375085726394     0.850591243039
    H           -2.529495923180     0.701291788940    -0.982332610849
    H           -3.374907501720    -0.550874787883    -0.084503322966
    H           -2.560600029871     0.755672842803     0.765548931626
    C            2.360006553693    -0.055475727445     0.129046489924
    H            2.551822168654     0.696582711621    -0.622407841980
    H            3.099538026633    -0.838800600642     0.070988259123
    H            2.378621741210     0.405610608364     1.106351159597

  Mulliken Charges: (a.u.)
   Center  Symbol    Alpha    Beta     Spin     Total
       1     O     4.28463  4.28463  0.00000 -0.56925
       2     C     2.60818  2.60818  0.00000  0.78365
       3     C     3.20514  3.20514  0.00000 -0.41028
       4     O     4.30619  4.30619  0.00000 -0.61238
       5     C     3.23933  3.23933  0.00000 -0.47866
       6     H     0.40028  0.40028  0.00000  0.19943
       7     H     0.40022  0.40022  0.00000  0.19956
       8     H     0.41128  0.41128  0.00000  0.17743
       9     H     0.41779  0.41779  0.00000  0.16442
      10     H     0.40825  0.40825  0.00000  0.18350
      11     C     3.09234  3.09234  0.00000 -0.18469
      12     H     0.40769  0.40769  0.00000  0.18462
      13     H     0.40832  0.40832  0.00000  0.18336
      14     H     0.41035  0.41035  0.00000  0.17930

   Total alpha = 24.00000, Total beta = 24.00000, Total charge =  0.00000
