  ==> Input File <==

--------------------------------------------------------------------------
set {
	reference rhf
	basis 6-31G*
}

set_num_threads( 4 )
memory 2 gb

molecule MOL {
0 1

H	 -3.829952	 0.301167	 -0.373894
O	 -2.986938	 0.639344	 -0.639861
C	 -2.026376	 0.340750	 0.341611
C	 -0.673256	 0.843270	 -0.132153
H	 -2.286047	 0.819185	 1.284271
H	 -1.982772	 -0.733081	 0.519485
C	 0.486613	 -0.083066	 0.235839
H	 -0.715586	 0.970948	 -1.210718
H	 -0.508072	 1.829858	 0.297090
C	 1.840406	 0.433480	 -0.254303
H	 0.300215	 -1.068318	 -0.178947
H	 0.519509	 -0.203625	 1.318070
C	 3.000220	 -0.489290	 0.118523
H	 1.809207	 0.553576	 -1.335192
H	 2.021860	 1.424500	 0.157276
H	 2.864959	 -1.479103	 -0.307933
H	 3.946603	 -0.099227	 -0.243630
H	 3.080049	 -0.602997	 1.196117

	symmetry c1
}
set optking {
	frozen_dihedral = ("
		2 3 4 8
	")
}

ee = optimize('scf')
oeprop('DIPOLE', 'QUADRUPOLE', 'MULLIKEN_CHARGES')
f=open( 'psi4out.xyz', 'w' )
f.write( "18  " )
f.write( str(ee) + "\n" )
f.write( MOL.save_string_xyz() )
f.close()
--------------------------------------------------------------------------

    Molecular point group: c1
  Charge       = 0
  Multiplicity = 1
  Basis Set: 6-31G*
  Basis Set:
  @DF-RHF Final Energy:  -271.17533714155843
    Total Energy =                       -271.1753371415585434
    Molecular point group: c1
  Basis Set: 6-31G*
  Basis Set:
  Basis Set: 6-31G*
  Basis Set:
  @DF-RHF Final Energy:  -271.17571656185794
    Total Energy =                       -271.1757165618578256
  Basis Set: 6-31G*
  Basis Set:
  Basis Set: 6-31G*
  Basis Set:
  @DF-RHF Final Energy:  -271.17577766235615
    Total Energy =                       -271.1757776623562677
  Basis Set: 6-31G*
  Basis Set:
  Basis Set: 6-31G*
  Basis Set:
  @DF-RHF Final Energy:  -271.17577598298692
    Total Energy =                       -271.1757759829872043
  Basis Set: 6-31G*
  Basis Set:
  Basis Set: 6-31G*
  Basis Set:
  @DF-RHF Final Energy:  -271.17578378889539
    Total Energy =                       -271.1757837888951030
  Basis Set: 6-31G*
  Basis Set:
  Charge       = 0
  Multiplicity = 1
  Basis Set: 6-31G*
  Basis Set:

    Orbital Energies (a.u.)
    -----------------------

    Doubly Occupied:

       1A    -20.551726     2A    -11.267437     3A    -11.215708
       4A    -11.214895     5A    -11.210559     6A    -11.208426
       7A     -1.358044     8A     -1.079234     9A     -1.009373
      10A     -0.912892    11A     -0.820572    12A     -0.792383
      13A     -0.697631    14A     -0.650897    15A     -0.623867
      16A     -0.584089    17A     -0.570980    18A     -0.558420
      19A     -0.529264    20A     -0.495843    21A     -0.489655
      22A     -0.469627    23A     -0.463213    24A     -0.450715
      25A     -0.429876

  @DF-RHF Final Energy:  -271.17578387863387

   => Energetics <=

    Nuclear Repulsion Energy =            245.2345667716879234
    One-Electron Energy =                -853.5100523210849133
    Two-Electron Energy =                 337.0997016707628973
    DFT Exchange-Correlation Energy =       0.0000000000000000
    Empirical Dispersion Energy =           0.0000000000000000
    PCM Polarization Energy =               0.0000000000000000
    EFP Energy =                            0.0000000000000000
    Total Energy =                       -271.1757838786340926
    Molecular point group: c1
  Basis Set: 6-31G*
  Basis Set:

  -Total Gradient:
     Atom            X                  Y                   Z
    ------   -----------------  -----------------  -----------------
       1        0.000005174060    -0.000000558029     0.000000597932
       2        0.000535154119    -0.002973695776    -0.001422241467
       3       -0.000961562841     0.004704670272     0.001968616557
       4        0.001707739244    -0.005791017246    -0.001036738520
       5       -0.000000137558    -0.000005242355    -0.000000506290
       6       -0.000022381213    -0.000000608429    -0.000009072430
       7        0.000007306058     0.000010947946     0.000007964112
       8       -0.001268863425     0.004063235841     0.000498235898
       9        0.000006192783     0.000000715108     0.000001909477
      10       -0.000003640033    -0.000018303045    -0.000023639148
      11        0.000001336420     0.000017227503    -0.000002005165
      12        0.000003865108    -0.000005262300     0.000007928261
      13       -0.000000057241     0.000003813885     0.000015052403
      14       -0.000004796319    -0.000004046556    -0.000004168941
      15       -0.000005755520    -0.000002056480    -0.000003361559
      16        0.000002770041     0.000003324121    -0.000006009127
      17       -0.000000845953     0.000005200134     0.000006030761
      18       -0.000001497729    -0.000008344594     0.000001407248

  **** Optimization is complete! (in 6 steps) ****
    Final optimized geometry and variables:
    Molecular point group: c1

    Geometry (in Angstrom), charge = 0, multiplicity = 1:

    H           -3.733817293825     0.110713506463    -0.234891820793
    O           -2.879678830023     0.354710358552    -0.562265461279
    C           -1.903311240286     0.060634725901     0.405689269836
    C           -0.547382853263     0.549955463175    -0.104657423054
    H           -2.147413284453     0.529364821610     1.356559463268
    H           -1.869397648730    -1.014611200366     0.576327478056
    C            0.615716445230    -0.363520355039     0.279880301736
    H           -0.621299876700     0.660112971550    -1.181654585708
    H           -0.361617983498     1.551708913841     0.276135613354
    C            1.974010063872     0.165774365114    -0.182013308466
    H            0.451088608724    -1.352087973865    -0.144885936703
    H            0.633056324070    -0.495898795708     1.361321260146
    C            3.133204967527    -0.756453739118     0.193652905224
    H            1.956513195822     0.303668725986    -1.260854062142
    H            2.142004265867     1.150544089839     0.248525088188
    H            3.013119110625    -1.739310008262    -0.253279258554
    H            4.082412401995    -0.353177216297    -0.145310534560
    H            3.195975011299    -0.889238705514     1.270156074723

  Mulliken Charges: (a.u.)
   Center  Symbol    Alpha    Beta     Spin     Total
       1     H     0.28178  0.28178  0.00000  0.43643
       2     O     4.37155  4.37155  0.00000 -0.74311
       3     C     2.99267  2.99267  0.00000  0.01466
       4     C     3.16463  3.16463  0.00000 -0.32927
       5     H     0.43077  0.43077  0.00000  0.13845
       6     H     0.43085  0.43085  0.00000  0.13830
       7     C     3.15837  3.15837  0.00000 -0.31674
       8     H     0.40560  0.40560  0.00000  0.18880
       9     H     0.41984  0.41984  0.00000  0.16032
      10     C     3.15177  3.15177  0.00000 -0.30354
      11     H     0.42131  0.42131  0.00000  0.15737
      12     H     0.42510  0.42510  0.00000  0.14980
      13     C     3.23942  3.23942  0.00000 -0.47884
      14     H     0.42103  0.42103  0.00000  0.15795
      15     H     0.42257  0.42257  0.00000  0.15486
      16     H     0.42151  0.42151  0.00000  0.15698
      17     H     0.41898  0.41898  0.00000  0.16205
      18     H     0.42224  0.42224  0.00000  0.15551

   Total alpha = 25.00000, Total beta = 25.00000, Total charge =  0.00000
