                              Psi4 1.0.54 Driver

  ==> Input File <==

--------------------------------------------------------------------------
set {
	reference rhf
	basis cc-pvtz
}

set_num_threads( 4 )
memory 2 gb

molecule MOL {
0 1

H	 -2.698799	 -0.000846	 0.036018
C	 -1.694291	 -0.000483	 0.434279
O	 -0.828718	 -0.000608	 -0.655022
H	 -1.576855	 0.881100	 1.056504
H	 -1.576401	 -0.881658	 1.057001
C	 0.557892	 0.000078	 -0.420099
C	 0.920438	 0.575732	 0.944252
C	 1.193186	 -1.364898	 -0.659873
H	 0.936479	 0.677541	 -1.175304
H	 0.423180	 1.525748	 1.096771
H	 1.990439	 0.738623	 1.001795
H	 0.647588	 -0.089246	 1.755387
H	 0.885150	 -1.760670	 -1.619833
H	 2.273118	 -1.272596	 -0.660537
H	 0.927485	 -2.081380	 0.108630

	symmetry c1
}
set optking {
	frozen_dihedral = ("
		9 6 3 2
	")
}

ee,wfn = optimize('scf', return_wfn=True)
oeprop( wfn, 'DIPOLE', 'QUADRUPOLE', 'MULLIKEN_CHARGES')
f=open( 'psi4out.xyz', 'w' )
f.write( "15  " )
f.write( str(ee) + "\n" )
f.write( MOL.save_string_xyz() )
f.close()
--------------------------------------------------------------------------

    Molecular point group: c1
  Charge       = 0
  Multiplicity = 1
  Basis Set: CC-PVTZ
  Basis Set:
  @DF-RHF Final Energy:  -232.22121445075311
    Total Energy =                       -232.2212144507530525
    Molecular point group: c1
  Basis Set: CC-PVTZ
  Basis Set:
  Basis Set: CC-PVTZ
  Basis Set:
  @DF-RHF Final Energy:  -232.22135726883326
    Total Energy =                       -232.2213572688334011
  Basis Set: CC-PVTZ
  Basis Set:
  Basis Set: CC-PVTZ
  Basis Set:
  @DF-RHF Final Energy:  -232.22304653251337
    Total Energy =                       -232.2230465325134787
  Basis Set: CC-PVTZ
  Basis Set:
  Basis Set: CC-PVTZ
  Basis Set:
  @DF-RHF Final Energy:  -232.22311695616708
    Total Energy =                       -232.2231169561670754
  Basis Set: CC-PVTZ
  Basis Set:
  Basis Set: CC-PVTZ
  Basis Set:
  @DF-RHF Final Energy:  -232.22312713809768
    Total Energy =                       -232.2231271380977660
  Basis Set: CC-PVTZ
  Basis Set:
  Basis Set: CC-PVTZ
  Basis Set:
  @DF-RHF Final Energy:  -232.22313101229918
    Total Energy =                       -232.2231310122992340
  Basis Set: CC-PVTZ
  Basis Set:
  Charge       = 0
  Multiplicity = 1
  Basis Set: CC-PVTZ
  Basis Set:

    Orbital Energies (a.u.)
    -----------------------

    Doubly Occupied:

       1A    -20.539452     2A    -11.272967     3A    -11.259573
       4A    -11.212678     5A    -11.204908     6A     -1.370499
       7A     -1.052918     8A     -0.947286     9A     -0.922111
      10A     -0.781526    11A     -0.676265    12A     -0.644055
      13A     -0.633424    14A     -0.580105    15A     -0.555528
      16A     -0.547552    17A     -0.535668    18A     -0.506685
      19A     -0.493561    20A     -0.446584    21A     -0.403449

  @DF-RHF Final Energy:  -232.22313133215593

   => Energetics <=

    Nuclear Repulsion Energy =            198.5679054566509478
    One-Electron Energy =                -708.4084801272011873
    Two-Electron Energy =                 277.6174433383943096
    DFT Exchange-Correlation Energy =       0.0000000000000000
    Empirical Dispersion Energy =           0.0000000000000000
    PCM Polarization Energy =               0.0000000000000000
    EFP Energy =                            0.0000000000000000
    Total Energy =                       -232.2231313321559583
    Molecular point group: c1
  Basis Set: CC-PVTZ
  Basis Set:

  -Total Gradient:
     Atom            X                  Y                   Z
    ------   -----------------  -----------------  -----------------
       1        0.000001277006     0.000004932621    -0.000001441787
       2       -0.000187770634     0.003101050179    -0.000256946065
       3        0.000147846715    -0.004110979743     0.000802463284
       4        0.000000851350    -0.000012576196    -0.000012238328
       5       -0.000005055062     0.000001882458     0.000005351251
       6        0.000735713171    -0.001835713722    -0.002556412905
       7        0.000023626351    -0.000020067593     0.000000447417
       8       -0.000006049308    -0.000000873920     0.000030733410
       9       -0.000696006459     0.002876581520     0.001988735819
      10       -0.000001395331    -0.000014340103    -0.000009648873
      11       -0.000009385937     0.000000490149    -0.000002719623
      12        0.000009532822     0.000001088912     0.000003041520
      13       -0.000000820245     0.000016529334     0.000007667073
      14       -0.000022599861     0.000006520671     0.000000528715
      15        0.000010235422    -0.000014524568     0.000000439094

  **** Optimization is complete! (in 7 steps) ****
    Final optimized geometry and variables:
    Molecular point group: c1

    Geometry (in Angstrom), charge = 0, multiplicity = 1:

    H           -2.711607746010    -0.056023914576    -0.181437717723
    C           -1.766386733811     0.101309452617     0.318390818604
    O           -0.785372440542     0.070604017869    -0.666198508589
    H           -1.808990155373     1.054698560855     0.833647138272
    H           -1.641028754618    -0.685985293592     1.057330733750
    C            0.580113754303     0.174488952776    -0.324760448260
    C            0.858435305220     0.866308467762     1.005714731270
    C            1.221337056335    -1.203073307626    -0.395724960108
    H            1.007300467910     0.809854254262    -1.092578741774
    H            0.414463160216     1.853334110960     1.039026297475
    H            1.929374239949     0.982801802139     1.119995704761
    H            0.497172260114     0.296544577916     1.853370387085
    H            1.029730582645    -1.652898444049    -1.361215084370
    H            2.294240881413    -1.139734693304    -0.251095351288
    H            0.815031554878    -1.857211069562     0.368808798522

  Mulliken Charges: (a.u.)
   Center  Symbol    Alpha    Beta     Spin     Total
       1     H     0.44209  0.44209  0.00000  0.11582
       2     C     3.03786  3.03786  0.00000 -0.07571
       3     O     4.18864  4.18864  0.00000 -0.37728
       4     H     0.46799  0.46799  0.00000  0.06402
       5     H     0.47135  0.47135  0.00000  0.05730
       6     C     2.92888  2.92888  0.00000  0.14225
       7     C     3.17103  3.17103  0.00000 -0.34205
       8     C     3.14147  3.14147  0.00000 -0.28294
       9     H     0.45036  0.45036  0.00000  0.09927
      10     H     0.44456  0.44456  0.00000  0.11089
      11     H     0.44439  0.44439  0.00000  0.11123
      12     H     0.45099  0.45099  0.00000  0.09802
      13     H     0.44597  0.44597  0.00000  0.10806
      14     H     0.45701  0.45701  0.00000  0.08598
      15     H     0.45742  0.45742  0.00000  0.08515

   Total alpha = 21.00000, Total beta = 21.00000, Total charge = -0.00000

*** Psi4 exiting successfully. Buy a developer a beer!
