  ==> Input File <==

--------------------------------------------------------------------------
set {
	reference rhf
	basis cc-pvtz
}

set_num_threads( 4 )
memory 2 gb

molecule MOL {
0 1

H	 3.295829	 -0.417489	 0.025692
C	 2.237431	 -0.239384	 0.019596
C	 1.409373	 -1.035040	 -0.757955
C	 1.708527	 0.780001	 0.785514
H	 1.827874	 -1.825316	 -1.350505
C	 0.051063	 -0.809916	 -0.768629
H	 2.351437	 1.393746	 1.385897
C	 0.344172	 1.004872	 0.773756
H	 -0.605126	 -1.413971	 -1.362927
C	 -0.486398	 0.214248	 0.000000
H	 -0.074196	 1.796502	 1.367444
C	 -1.946525	 0.470130	 0.000000
O	 -2.779618	 -0.371226	 0.000000
H	 -2.227127	 1.528393	 0.000000

	symmetry c1
}
set optking {
	frozen_dihedral = ("
		8 10 12 14
	")
}

ee = optimize('scf')
oeprop('DIPOLE', 'QUADRUPOLE', 'MULLIKEN_CHARGES')
f=open( 'psi4out.xyz', 'w' )
f.write( "14  " )
f.write( str(ee) + "\n" )
f.write( MOL.save_string_xyz() )
f.close()
--------------------------------------------------------------------------

    Molecular point group: c1
  Charge       = 0
  Multiplicity = 1
  Basis Set: CC-PVTZ
  Basis Set:
  @DF-RHF Final Energy:  -343.54486342980090
    Total Energy =                       -343.5448634298011257
    Molecular point group: c1
  Basis Set: CC-PVTZ
  Basis Set:
  Basis Set: CC-PVTZ
  Basis Set:
  @DF-RHF Final Energy:  -343.54243787652479
    Total Energy =                       -343.5424378765250708
  Basis Set: CC-PVTZ
  Basis Set:
  Basis Set: CC-PVTZ
  Basis Set:
  @DF-RHF Final Energy:  -343.54547715951145
    Total Energy =                       -343.5454771595111652
  Basis Set: CC-PVTZ
  Basis Set:
  Basis Set: CC-PVTZ
  Basis Set:
  @DF-RHF Final Energy:  -343.54554436687141
    Total Energy =                       -343.5455443668712974
  Basis Set: CC-PVTZ
  Basis Set:
  Charge       = 0
  Multiplicity = 1
  Basis Set: CC-PVTZ
  Basis Set:

    Orbital Energies (a.u.)
    -----------------------

    Doubly Occupied:

       1A    -20.556381     2A    -11.328771     3A    -11.250755
       4A    -11.247336     5A    -11.247256     6A    -11.245471
       7A    -11.243223     8A    -11.241702     9A     -1.411721
      10A     -1.176131    11A     -1.050639    12A     -1.035093
      13A     -0.891799    14A     -0.847090    15A     -0.795780
      16A     -0.725558    17A     -0.681516    18A     -0.657024
      19A     -0.630878    20A     -0.621987    21A     -0.605667
      22A     -0.553289    23A     -0.530373    24A     -0.511351
      25A     -0.508167    26A     -0.426236    27A     -0.354181
      28A     -0.352009

  @DF-RHF Final Energy:  -343.54554521770717

   => Energetics <=

    Nuclear Repulsion Energy =            323.9135162612197973
    One-Electron Energy =               -1107.4633581167006469
    Two-Electron Energy =                 440.0042966377732796
    DFT Exchange-Correlation Energy =       0.0000000000000000
    Empirical Dispersion Energy =           0.0000000000000000
    PCM Polarization Energy =               0.0000000000000000
    EFP Energy =                            0.0000000000000000
    Total Energy =                       -343.5455452177075699
    Molecular point group: c1
  Basis Set: CC-PVTZ
  Basis Set:

  -Total Gradient:
     Atom            X                  Y                   Z
    ------   -----------------  -----------------  -----------------
       1       -0.000003333731    -0.000017197888     0.000020035999
       2        0.000021055810     0.000096979375    -0.000034117526
       3       -0.000038855914     0.000036233294    -0.000084107145
       4        0.000029036014    -0.000096639596     0.000077941385
       5        0.000001768570    -0.000007149833     0.000013100747
       6        0.000028173380    -0.000113550270     0.000110280365
       7        0.000003980543     0.000011824410    -0.000010331058
       8       -0.000435604113    -0.003474979549     0.003860097399
       9        0.000001820145     0.000047471950    -0.000032926710
      10        0.000486142654     0.005194938002    -0.007742044331
      11        0.000002628634    -0.000007279543    -0.000003648195
      12        0.000041709663    -0.001897419261     0.010252726077
      13        0.000012413817    -0.000014643199     0.000006223292
      14       -0.000150935470     0.000241412108    -0.006433230298

  **** Optimization is complete! (in 5 steps) ****
    Final optimized geometry and variables:
    Molecular point group: c1

    Geometry (in Angstrom), charge = 0, multiplicity = 1:

    H            3.289920045241    -0.434340544864     0.040321013699
    C            2.233614524628    -0.244909916764     0.026495188987
    C            1.402215765754    -1.031348850405    -0.753905409734
    C            1.708072668344     0.778847331820     0.790179790074
    H            1.814484068494    -1.828226375879    -1.342155599672
    C            0.043288006686    -0.799262958815    -0.763746438148
    H            2.351241917624     1.379871150552     1.403280117169
    C            0.348737573324     1.027970278943     0.759527283677
    H           -0.615107882926    -1.417128272505    -1.341804151183
    C           -0.484406244388     0.247363038045    -0.022288860499
    H           -0.062634798756     1.829984727780     1.344583259317
    C           -1.954736844465     0.466094588042     0.023837580295
    O           -2.757292523264    -0.399410105179    -0.056166325291
    H           -2.271929646262     1.513163668528     0.071585601610

  Mulliken Charges: (a.u.)
   Center  Symbol    Alpha    Beta     Spin     Total
       1     H     0.41999  0.41999  0.00000  0.16003
       2     C     3.07414  3.07414  0.00000 -0.14828
       3     C     3.06819  3.06819  0.00000 -0.13639
       4     C     3.07171  3.07171  0.00000 -0.14342
       5     H     0.42015  0.42015  0.00000  0.15971
       6     C     3.08582  3.08582  0.00000 -0.17164
       7     H     0.42067  0.42067  0.00000  0.15866
       8     C     3.09064  3.09064  0.00000 -0.18128
       9     H     0.41226  0.41226  0.00000  0.17548
      10     C     2.96836  2.96836  0.00000  0.06329
      11     H     0.42341  0.42341  0.00000  0.15318
      12     C     2.92191  2.92191  0.00000  0.15618
      13     O     4.16634  4.16634  0.00000 -0.33267
      14     H     0.45643  0.45643  0.00000  0.08715

   Total alpha = 28.00000, Total beta = 28.00000, Total charge = -0.00000
