  ==> Input File <==

--------------------------------------------------------------------------
set {
	reference rhf
	basis 6-31G*
}

set_num_threads( 1 )
memory 2 gb

molecule MOL {
0 1

H	 -2.743162	 0.177291	 -0.482200
O	 -2.035884	 -0.060112	 0.102722
C	 -0.955155	 0.788182	 -0.092531
C	 0.353668	 0.040312	 -0.004810
H	 -0.985057	 1.290372	 -1.054184
H	 -0.974469	 1.533190	 0.688632
F	 0.394464	 -0.937475	 -0.903053
F	 1.368604	 0.853376	 -0.249821
F	 0.546173	 -0.502608	 1.179981

	symmetry c1
}
set optking {
	frozen_dihedral = ("
		7 4 3 5
	")
}

ee = energy('scf')
oeprop('DIPOLE', 'QUADRUPOLE', 'MULLIKEN_CHARGES')
f=open( 'psi4out.xyz', 'w' )
f.write( "9  " )
f.write( str(ee) + "\n" )
f.write( MOL.save_string_xyz() )
f.close()
--------------------------------------------------------------------------

    Molecular point group: c1

    Geometry (in Angstrom), charge = 0, multiplicity = 1:

       Center              X                  Y                   Z               Mass
    ------------   -----------------  -----------------  -----------------  -----------------
           H         -2.736670584989     0.168709364020    -0.483555232188     1.007825032070
           O         -2.029392584989    -0.068693635980     0.101366767812    15.994914619560
           C         -0.948663584989     0.779600364020    -0.093886232188    12.000000000000
           C          0.360159415011     0.031730364020    -0.006165232188    12.000000000000
           H         -0.978565584989     1.281790364020    -1.055539232188     1.007825032070
           H         -0.967977584989     1.524608364020     0.687276767812     1.007825032070
           F          0.400955415011    -0.946056635980    -0.904408232188    18.998403224000
           F          1.375095415011     0.844794364020    -0.251176232188    18.998403224000
           F          0.552664415011    -0.511189635980     1.178625767812    18.998403224000

  Charge       = 0
  Multiplicity = 1
  Basis Set: 6-31G*
  Basis Set:

    Orbital Energies (a.u.)
    -----------------------

    Doubly Occupied:

       1A    -26.340775     2A    -26.334716     3A    -26.330006
       4A    -20.588154     5A    -11.497981     6A    -11.309437
       7A     -1.733504     8A     -1.634266     9A     -1.627000
      10A     -1.401080    11A     -1.047321    12A     -0.917310
      13A     -0.825483    14A     -0.822347    15A     -0.785933
      16A     -0.735169    17A     -0.706077    18A     -0.697692
      19A     -0.662741    20A     -0.651999    21A     -0.634987
      22A     -0.634120    23A     -0.597045    24A     -0.530387
      25A     -0.476408

  @DF-RHF Final Energy:  -450.65816864748990

   => Energetics <=

    Nuclear Repulsion Energy =            276.1457380416970864
    One-Electron Energy =               -1174.5640710551383563
    Two-Electron Energy =                 447.7601643659510842
    DFT Exchange-Correlation Energy =       0.0000000000000000
    Empirical Dispersion Energy =           0.0000000000000000
    PCM Polarization Energy =               0.0000000000000000
    EFP Energy =                            0.0000000000000000
    Total Energy =                       -450.6581686474901858

  Mulliken Charges: (a.u.)
   Center  Symbol    Alpha    Beta     Spin     Total
       1     H     0.27093  0.27093  0.00000  0.45814
       2     O     4.36279  4.36279  0.00000 -0.72559
       3     C     3.05472  3.05472  0.00000 -0.10945
       4     C     2.45400  2.45400  0.00000  1.09201
       5     H     0.41059  0.41059  0.00000  0.17881
       6     H     0.40705  0.40705  0.00000  0.18591
       7     F     4.68201  4.68201  0.00000 -0.36402
       8     F     4.68229  4.68229  0.00000 -0.36457
       9     F     4.67562  4.67562  0.00000 -0.35123

   Total alpha = 25.00000, Total beta = 25.00000, Total charge = -0.00000
