  ==> Input File <==

--------------------------------------------------------------------------
set {
	reference rhf
	basis 6-31G*
}

set_num_threads( 4 )
memory 2 gb

molecule MOL {
0 1

H	 1.129437	 3.918396	 2.290376
N	 0.301957	 3.358919	 2.214174
C	 0.441717	 2.372921	 1.152194
H	 -0.453930	 3.986041	 2.013716
C	 -0.779100	 1.460267	 1.102990
H	 1.324769	 1.779158	 1.367884
H	 0.598847	 2.821490	 0.168072
C	 -0.679275	 0.379305	 0.025956
H	 -0.906755	 1.005217	 2.080982
H	 -1.668264	 2.064642	 0.925632
C	 -1.903357	 -0.536963	 -0.023547
H	 0.210789	 -0.223204	 0.200936
H	 -0.543428	 0.846775	 -0.948141
C	 -3.225172	 0.228290	 0.028445
H	 -1.867824	 -1.134999	 -0.931459
H	 -1.860449	 -1.239604	 0.805977
H	 -3.313397	 0.915643	 -0.808262
H	 -4.073500	 -0.448134	 -0.008893
H	 -3.306061	 0.809945	 0.942516

	symmetry c1
}
set optking {
	frozen_dihedral = ("
		12 8 11 15
	")
}

ee = optimize('scf')
oeprop('DIPOLE', 'QUADRUPOLE', 'MULLIKEN_CHARGES')
f=open( 'psi4out.xyz', 'w' )
f.write( "19  " )
f.write( str(ee) + "\n" )
f.write( MOL.save_string_xyz() )
f.close()
--------------------------------------------------------------------------

    Molecular point group: c1
  Charge       = 0
  Multiplicity = 1
  Basis Set: 6-31G*
  Basis Set:
  @DF-RHF Final Energy:  -251.34715603382043
    Total Energy =                       -251.3471560338202835
    Molecular point group: c1
  Basis Set: 6-31G*
  Basis Set:
  Basis Set: 6-31G*
  Basis Set:
  @DF-RHF Final Energy:  -251.34781846209751
    Total Energy =                       -251.3478184620973934
  Basis Set: 6-31G*
  Basis Set:
  Basis Set: 6-31G*
  Basis Set:
  @DF-RHF Final Energy:  -251.34883234920008
    Total Energy =                       -251.3488323491999381
  Basis Set: 6-31G*
  Basis Set:
  Basis Set: 6-31G*
  Basis Set:
  @DF-RHF Final Energy:  -251.34890600579345
    Total Energy =                       -251.3489060057934239
  Basis Set: 6-31G*
  Basis Set:
  Basis Set: 6-31G*
  Basis Set:
  @DF-RHF Final Energy:  -251.34891182338188
    Total Energy =                       -251.3489118233819681
  Basis Set: 6-31G*
  Basis Set:
  Basis Set: 6-31G*
  Basis Set:
  @DF-RHF Final Energy:  -251.34891422633325
    Total Energy =                       -251.3489142263333065
  Basis Set: 6-31G*
  Basis Set:
  Charge       = 0
  Multiplicity = 1
  Basis Set: 6-31G*
  Basis Set:

    Orbital Energies (a.u.)
    -----------------------

    Doubly Occupied:

       1A    -15.532380     2A    -11.239622     3A    -11.214429
       4A    -11.213158     5A    -11.208793     6A    -11.206521
       7A     -1.176502     8A     -1.072063     9A     -0.994310
      10A     -0.903983    11A     -0.824384    12A     -0.773591
      13A     -0.665242    14A     -0.631824    15A     -0.618279
      16A     -0.602909    17A     -0.567195    18A     -0.545968
      19A     -0.520740    20A     -0.505045    21A     -0.486488
      22A     -0.458201    23A     -0.455237    24A     -0.450828
      25A     -0.380861

  @DF-RHF Final Energy:  -251.34891434988532

   => Energetics <=

    Nuclear Repulsion Energy =            249.4289314467177974
    One-Electron Energy =                -833.0585845430784957
    Two-Electron Energy =                 332.2807387464751514
    DFT Exchange-Correlation Energy =       0.0000000000000000
    Empirical Dispersion Energy =           0.0000000000000000
    PCM Polarization Energy =               0.0000000000000000
    EFP Energy =                            0.0000000000000000
    Total Energy =                       -251.3489143498855469
    Molecular point group: c1
  Basis Set: 6-31G*
  Basis Set:

  -Total Gradient:
     Atom            X                  Y                   Z
    ------   -----------------  -----------------  -----------------
       1       -0.000000584509     0.000000434447     0.000002657258
       2        0.000008802271    -0.000004516284     0.000002680505
       3        0.000000776022    -0.000001871371     0.000004034000
       4        0.000000803352    -0.000003018016    -0.000002123347
       5       -0.000019282923     0.000011177944    -0.000021094802
       6        0.000006721175     0.000003213687    -0.000000661750
       7       -0.000002641090     0.000000967684     0.000004695422
       8        0.000030241842     0.000008307960    -0.005078695187
       9       -0.000009154029    -0.000010219358    -0.000008967096
      10        0.000004713506     0.000003325974    -0.000009662938
      11        0.002553297529    -0.003117878776     0.003163427899
      12       -0.000417828300     0.000473841052     0.003844243640
      13       -0.000007642343    -0.000005320738    -0.000002200994
      14       -0.000002340940     0.000010055226     0.000005346503
      15       -0.002150814936     0.002635951402    -0.001900227821
      16        0.000002968819    -0.000008628120    -0.000012425064
      17        0.000000473121    -0.000004885517    -0.000003161773
      18       -0.000002787953     0.000000434240     0.000006028247
      19        0.000004279387     0.000008628566     0.000006107300

  **** Optimization is complete! (in 7 steps) ****
    Final optimized geometry and variables:
    Molecular point group: c1

    Geometry (in Angstrom), charge = 0, multiplicity = 1:

    H            2.196363689871     2.615272375029     1.557016542109
    N            1.337760642601     2.108758189245     1.457904598895
    C            1.449225244604     1.104575385734     0.409647940648
    H            0.630548062219     2.780587078234     1.226970213186
    C            0.175338560075     0.269581834558     0.328355868489
    H            2.286556157985     0.459873296425     0.658703797004
    H            1.665172051696     1.532106470188    -0.572849943884
    C            0.247290189112    -0.810428676700    -0.755792972172
    H            0.000101911227    -0.183497179861     1.300544236406
    H           -0.665495865987     0.933352240374     0.140210720180
    C           -0.936587489744    -1.788330897511    -0.769085261242
    H            1.156737512812    -1.383736387068    -0.587043347844
    H            0.341922234742    -0.338921713829    -1.731733446614
    C           -2.316715001294    -1.125163534811    -0.756437280299
    H           -0.870987070587    -2.388229611228    -1.673431705907
    H           -0.857244487477    -2.469218915590     0.074370984136
    H           -2.416123759971    -0.410368569215    -1.569428588720
    H           -3.097989185474    -1.869463000611    -0.876581516148
    H           -2.508205602481    -0.599321111540     0.172562973163

  Mulliken Charges: (a.u.)
   Center  Symbol    Alpha    Beta     Spin     Total
       1     H     0.33253  0.33253  0.00000  0.33494
       2     N     3.92190  3.92190  0.00000 -0.84381
       3     C     3.05997  3.05997  0.00000 -0.11994
       4     H     0.33541  0.33541  0.00000  0.32918
       5     C     3.15439  3.15439  0.00000 -0.30878
       6     H     0.42104  0.42104  0.00000  0.15791
       7     H     0.43490  0.43490  0.00000  0.13020
       8     C     3.15636  3.15636  0.00000 -0.31272
       9     H     0.41402  0.41402  0.00000  0.17197
      10     H     0.42501  0.42501  0.00000  0.14998
      11     C     3.15080  3.15080  0.00000 -0.30160
      12     H     0.42236  0.42236  0.00000  0.15527
      13     H     0.42405  0.42405  0.00000  0.15191
      14     C     3.24292  3.24292  0.00000 -0.48585
      15     H     0.42163  0.42163  0.00000  0.15673
      16     H     0.42153  0.42153  0.00000  0.15695
      17     H     0.42338  0.42338  0.00000  0.15323
      18     H     0.41953  0.41953  0.00000  0.16093
      19     H     0.41826  0.41826  0.00000  0.16348

   Total alpha = 25.00000, Total beta = 25.00000, Total charge =  0.00000
