  ==> Input File <==

--------------------------------------------------------------------------
set {
	reference rhf
	basis 6-31G*
}

set_num_threads( 4 )
memory 2 gb

molecule MOL {
0 1

H	 -2.698709	 -0.000305	 0.034435
C	 -1.693833	 0.000034	 0.434417
O	 -0.828952	 -0.000968	 -0.659236
H	 -1.574200	 0.882896	 1.055746
H	 -1.574147	 -0.881698	 1.057355
C	 -1.034397	 -0.949412	 -1.680387
C	 -0.843725	 -2.384430	 -1.193267
C	 -2.366185	 -0.753461	 -2.402122
H	 -0.240275	 -0.729647	 -2.384024
H	 0.086677	 -2.474402	 -0.642988
H	 -0.805142	 -3.061850	 -2.040526
H	 -1.655202	 -2.711668	 -0.550940
H	 -2.489892	 0.285524	 -2.687891
H	 -2.393150	 -1.359680	 -3.302253
H	 -3.212889	 -1.043571	 -1.788306

	symmetry c1
}
set optking {
	frozen_dihedral = ("
		6 3 2 1
	")
}

ee = optimize('scf')
oeprop('DIPOLE', 'QUADRUPOLE', 'MULLIKEN_CHARGES')
f=open( 'psi4out.xyz', 'w' )
f.write( "15  " )
f.write( str(ee) + "\n" )
f.write( MOL.save_string_xyz() )
f.close()
--------------------------------------------------------------------------

    Molecular point group: c1
  Charge       = 0
  Multiplicity = 1
  Basis Set: 6-31G*
  Basis Set:
  @DF-RHF Final Energy:  -232.13497851088280
    Total Energy =                       -232.1349785108827746
    Molecular point group: c1
  Basis Set: 6-31G*
  Basis Set:
  Basis Set: 6-31G*
  Basis Set:
  @DF-RHF Final Energy:  -232.13700824415369
    Total Energy =                       -232.1370082441538898
  Basis Set: 6-31G*
  Basis Set:
  Basis Set: 6-31G*
  Basis Set:
  @DF-RHF Final Energy:  -232.13762774440019
    Total Energy =                       -232.1376277444001062
  Basis Set: 6-31G*
  Basis Set:
  Basis Set: 6-31G*
  Basis Set:
  @DF-RHF Final Energy:  -232.13763661637779
    Total Energy =                       -232.1376366163779608
  Basis Set: 6-31G*
  Basis Set:
  Basis Set: 6-31G*
  Basis Set:
  @DF-RHF Final Energy:  -232.13764827642967
    Total Energy =                       -232.1376482764296725
  Basis Set: 6-31G*
  Basis Set:
  Charge       = 0
  Multiplicity = 1
  Basis Set: 6-31G*
  Basis Set:

    Orbital Energies (a.u.)
    -----------------------

    Doubly Occupied:

       1A    -20.548136     2A    -11.274363     3A    -11.261169
       4A    -11.211346     5A    -11.209757     6A     -1.370342
       7A     -1.050405     8A     -0.940039     9A     -0.930898
      10A     -0.781299    11A     -0.674623    12A     -0.640285
      13A     -0.633146    14A     -0.572654    15A     -0.564596
      16A     -0.552917    17A     -0.534431    18A     -0.498443
      19A     -0.496687    20A     -0.443206    21A     -0.406026

  @DF-RHF Final Energy:  -232.13764914255762

   => Energetics <=

    Nuclear Repulsion Energy =            198.8109857596065240
    One-Electron Energy =                -708.7077299915167714
    Two-Electron Energy =                 277.7590950893525701
    DFT Exchange-Correlation Energy =       0.0000000000000000
    Empirical Dispersion Energy =           0.0000000000000000
    PCM Polarization Energy =               0.0000000000000000
    EFP Energy =                            0.0000000000000000
    Total Energy =                       -232.1376491425576774
    Molecular point group: c1
  Basis Set: 6-31G*
  Basis Set:

  -Total Gradient:
     Atom            X                  Y                   Z
    ------   -----------------  -----------------  -----------------
       1        0.000114561436    -0.000718087864    -0.000075474394
       2       -0.000155074238     0.001197162271     0.000020681671
       3        0.000452799563    -0.000878824440     0.000356768430
       4       -0.000037666862    -0.000011598033     0.000044264456
       5        0.000016383761     0.000007810710    -0.000074184677
       6       -0.000367258226     0.000345594047    -0.000333784044
       7       -0.000025270986     0.000034901643     0.000052674989
       8        0.000013168354    -0.000028958013    -0.000016952287
       9        0.000012595812     0.000011407321    -0.000001506548
      10       -0.000006684262     0.000005498421     0.000018621966
      11        0.000003850012     0.000043837778     0.000009501538
      12       -0.000014197194    -0.000021907450     0.000009227604
      13       -0.000019549959     0.000003535502     0.000030338085
      14       -0.000010616720     0.000015904276    -0.000008676020
      15        0.000022959510    -0.000006276170    -0.000031500770

  **** Optimization is complete! (in 6 steps) ****
    Final optimized geometry and variables:
    Molecular point group: c1

    Geometry (in Angstrom), charge = 0, multiplicity = 1:

    H           -1.367272720928     0.683843482866     1.284900803833
    C           -0.314664823710     0.769440879275     1.537554833660
    O            0.503680493916     0.835795242578     0.410230924893
    H           -0.167596728562     1.689595625313     2.086678913874
    H           -0.048470832878    -0.062201145129     2.184057760872
    C            0.334226014152    -0.129400607364    -0.601757236802
    C            0.508898391277    -1.557475225569    -0.089933302162
    C           -0.975524013686     0.059642471962    -1.364901918219
    H            1.148423590682     0.081767387018    -1.284780202096
    H            1.427452601057    -1.645259543712     0.480424913166
    H            0.560807150513    -2.247743990001    -0.925974647197
    H           -0.317542434460    -1.869458388604     0.541101771492
    H           -1.082092031545     1.093795582024    -1.673282060539
    H           -0.982457259174    -0.564168601249    -2.253473476607
    H           -1.841906683083    -0.211259304173    -0.770224188425

  Mulliken Charges: (a.u.)
   Center  Symbol    Alpha    Beta     Spin     Total
       1     H     0.43049  0.43049  0.00000  0.13902
       2     C     3.08153  3.08153  0.00000 -0.16306
       3     O     4.31211  4.31211  0.00000 -0.62422
       4     H     0.41271  0.41271  0.00000  0.17457
       5     H     0.42813  0.42813  0.00000  0.14373
       6     C     2.90913  2.90913  0.00000  0.18174
       7     C     3.25500  3.25500  0.00000 -0.51001
       8     C     3.25100  3.25100  0.00000 -0.50200
       9     H     0.41528  0.41528  0.00000  0.16944
      10     H     0.41164  0.41164  0.00000  0.17671
      11     H     0.41855  0.41855  0.00000  0.16289
      12     H     0.42105  0.42105  0.00000  0.15790
      13     H     0.41126  0.41126  0.00000  0.17747
      14     H     0.42029  0.42029  0.00000  0.15942
      15     H     0.42180  0.42180  0.00000  0.15640

   Total alpha = 21.00000, Total beta = 21.00000, Total charge =  0.00000
