  ==> Input File <==

--------------------------------------------------------------------------
set {
	reference rhf
	basis cc-pvtz
}

set_num_threads( 4 )
memory 2 gb

molecule MOL {
0 1

H	 2.646708	 0.758099	 0.000000
O	 2.258158	 -0.097743	 0.000000
C	 0.911162	 -0.015915	 0.000000
C	 0.309113	 0.635917	 -1.063698
C	 0.136781	 -0.553535	 1.010801
H	 0.925545	 1.046772	 -1.838753
C	 -1.064064	 0.743887	 -1.106145
H	 0.603869	 -1.059427	 1.836363
C	 -1.240865	 -0.437595	 0.955045
H	 -1.525152	 1.250110	 -1.932908
C	 -1.850703	 0.209283	 -0.099269
H	 -1.834804	 -0.857995	 1.744239
H	 -2.918672	 0.297270	 -0.139223

	symmetry c1
}
set optking {
	frozen_dihedral = ("
		4 3 2 1
	")
}

ee = optimize('scf')
oeprop('DIPOLE', 'QUADRUPOLE', 'MULLIKEN_CHARGES')
f=open( 'psi4out.xyz', 'w' )
f.write( "13  " )
f.write( str(ee) + "\n" )
f.write( MOL.save_string_xyz() )
f.close()
--------------------------------------------------------------------------

    Molecular point group: c1
  Charge       = 0
  Multiplicity = 1
  Basis Set: CC-PVTZ
  Basis Set:
  @DF-RHF Final Energy:  -305.66591466780432
    Total Energy =                       -305.6659146678043157
    Molecular point group: c1
  Basis Set: CC-PVTZ
  Basis Set:
  Basis Set: CC-PVTZ
  Basis Set:
  @DF-RHF Final Energy:  -305.66722613828944
    Total Energy =                       -305.6672261382894931
  Basis Set: CC-PVTZ
  Basis Set:
  Basis Set: CC-PVTZ
  Basis Set:
  @DF-RHF Final Energy:  -305.66730980392509
    Total Energy =                       -305.6673098039250931
  Basis Set: CC-PVTZ
  Basis Set:
  Basis Set: CC-PVTZ
  Basis Set:
  @DF-RHF Final Energy:  -305.66731944143436
    Total Energy =                       -305.6673194414345289
  Basis Set: CC-PVTZ
  Basis Set:
  Charge       = 0
  Multiplicity = 1
  Basis Set: CC-PVTZ
  Basis Set:

    Orbital Energies (a.u.)
    -----------------------

    Doubly Occupied:

       1A    -20.574612     2A    -11.291004     3A    -11.234065
       4A    -11.233063     5A    -11.226253     6A    -11.224094
       7A    -11.223373     8A     -1.402316     9A     -1.153139
      10A     -1.022397    11A     -1.008379    12A     -0.842781
      13A     -0.827846    14A     -0.739055    15A     -0.685369
      16A     -0.652168    17A     -0.628578    18A     -0.597920
      19A     -0.591897    20A     -0.534258    21A     -0.517338
      22A     -0.497455    23A     -0.475764    24A     -0.342125
      25A     -0.325220

  @DF-RHF Final Energy:  -305.66732155180733

   => Energetics <=

    Nuclear Repulsion Energy =            273.4439413575824460
    One-Electron Energy =                -956.5215878306969444
    Two-Electron Energy =                 377.4103249213074491
    DFT Exchange-Correlation Energy =       0.0000000000000000
    Empirical Dispersion Energy =           0.0000000000000000
    PCM Polarization Energy =               0.0000000000000000
    EFP Energy =                            0.0000000000000000
    Total Energy =                       -305.6673215518071061
    Molecular point group: c1
  Basis Set: CC-PVTZ
  Basis Set:

  -Total Gradient:
     Atom            X                  Y                   Z
    ------   -----------------  -----------------  -----------------
       1       -0.000087584400     0.000075251052     0.002168991757
       2        0.000137253807    -0.000837989322    -0.003115079905
       3       -0.000080452036     0.002069221235     0.001855853800
       4       -0.000092820643    -0.001390401939    -0.000830719666
       5        0.000208576232     0.000022426782    -0.000024232549
       6       -0.000045194216    -0.000001954740     0.000016030839
       7        0.000107572425     0.000061427352    -0.000015105546
       8        0.000055817204     0.000006479325    -0.000018381651
       9       -0.000191301093     0.000078071981    -0.000088994423
      10       -0.000043201811    -0.000013956776    -0.000001983413
      11        0.000013020233    -0.000098988481     0.000130451657
      12        0.000022447748     0.000004964558    -0.000017040822
      13       -0.000004133446     0.000025448974    -0.000059790079

  **** Optimization is complete! (in 5 steps) ****
    Final optimized geometry and variables:
    Molecular point group: c1

    Geometry (in Angstrom), charge = 0, multiplicity = 1:

    H            2.687024619052     0.628454342417     0.069802449085
    O            2.258403424824    -0.208758893949     0.083799472853
    C            0.904413048829    -0.057655623148     0.035880874077
    C            0.295321990203     0.576072798682    -1.031607881771
    C            0.140053854696    -0.609785690006     1.044659530485
    H            0.898493072906     0.978238577145    -1.823449885778
    C           -1.082015983917     0.676430669692    -1.072987892747
    H            0.631550780308    -1.108426390705     1.856832978479
    C           -1.237676745879    -0.515724697549     0.988506067947
    H           -1.551452767860     1.172935585820    -1.900846062514
    C           -1.855017623960     0.130883900362    -0.065394736900
    H           -1.828712924441    -0.946732248741     1.774005489363
    H           -2.924479858608     0.204683864730    -0.104380036659

  Mulliken Charges: (a.u.)
   Center  Symbol    Alpha    Beta     Spin     Total
       1     H     0.38625  0.38625  0.00000  0.22749
       2     O     4.18873  4.18873  0.00000 -0.37745
       3     C     2.86948  2.86948  0.00000  0.26103
       4     C     3.11956  3.11956  0.00000 -0.23911
       5     C     3.10754  3.10754  0.00000 -0.21508
       6     H     0.42208  0.42208  0.00000  0.15584
       7     C     3.06806  3.06806  0.00000 -0.13612
       8     H     0.41651  0.41651  0.00000  0.16699
       9     C     3.06490  3.06490  0.00000 -0.12979
      10     H     0.42201  0.42201  0.00000  0.15598
      11     C     3.08972  3.08972  0.00000 -0.17943
      12     H     0.42186  0.42186  0.00000  0.15627
      13     H     0.42331  0.42331  0.00000  0.15338

   Total alpha = 25.00000, Total beta = 25.00000, Total charge = -0.00000
