                              Psi4 1.0.54 Driver

  ==> Input File <==

--------------------------------------------------------------------------
set {
	reference rhf
	basis cc-pvtz
}

set_num_threads( 4 )
memory 2 gb

molecule MOL {
0 1

H	 2.041543	 1.741302	 -1.681434
C	 1.319763	 1.568428	 -0.893761
C	 1.322304	 0.099773	 -0.484271
H	 1.578822	 2.210649	 -0.059609
H	 0.346890	 1.873183	 -1.262520
C	 0.308557	 -0.162619	 0.622645
H	 2.306022	 -0.188270	 -0.134894
H	 1.082042	 -0.525099	 -1.335592
N	 -1.069352	 -0.004081	 0.085342
H	 0.371632	 -1.172932	 0.991288
H	 0.400391	 0.548875	 1.426218
O	 -1.584901	 -0.965470	 -0.377818
O	 -1.548033	 1.079343	 0.130056

	symmetry c1
}
set optking {
	frozen_dihedral = ("
		7 3 6 9
	")
}

ee,wfn = optimize('scf', return_wfn=True)
oeprop( wfn, 'DIPOLE', 'QUADRUPOLE', 'MULLIKEN_CHARGES')
f=open( 'psi4out.xyz', 'w' )
f.write( "13  " )
f.write( str(ee) + "\n" )
f.write( MOL.save_string_xyz() )
f.close()
--------------------------------------------------------------------------

    Molecular point group: c1
  Charge       = 0
  Multiplicity = 1
  Basis Set: CC-PVTZ
  Basis Set:
  @DF-RHF Final Energy:  -321.85915594021168
    Total Energy =                       -321.8591559402115649
    Molecular point group: c1
  Basis Set: CC-PVTZ
  Basis Set:
  Basis Set: CC-PVTZ
  Basis Set:
  @DF-RHF Final Energy:  -321.85971725790159
    Total Energy =                       -321.8597172579015364
  Basis Set: CC-PVTZ
  Basis Set:
  Basis Set: CC-PVTZ
  Basis Set:
  @DF-RHF Final Energy:  -321.86032629435601
    Total Energy =                       -321.8603262943561276
  Basis Set: CC-PVTZ
  Basis Set:
  Basis Set: CC-PVTZ
  Basis Set:
  @DF-RHF Final Energy:  -321.86002863758142
    Total Energy =                       -321.8600286375813653
  Basis Set: CC-PVTZ
  Basis Set:
  @DF-RHF Final Energy:  -321.86068833914965
    Total Energy =                       -321.8606883391497604
  @DF-RHF Final Energy:  -321.86079684269367
    Total Energy =                       -321.8607968426937305
  @DF-RHF Final Energy:  -321.86088825485706
    Total Energy =                       -321.8608882548574002
  @DF-RHF Final Energy:  -321.86105175408727
    Total Energy =                       -321.8610517540871001
  Basis Set: CC-PVTZ
  Basis Set:
  @DF-RHF Final Energy:  -321.86113073491447
    Total Energy =                       -321.8611307349143544
  Basis Set: CC-PVTZ
  Basis Set:
  Basis Set: CC-PVTZ
  Basis Set:
  @DF-RHF Final Energy:  -321.86115013756887
    Total Energy =                       -321.8611501375688135
  Basis Set: CC-PVTZ
  Basis Set:
  Basis Set: CC-PVTZ
  Basis Set:
  @DF-RHF Final Energy:  -321.86115372791448
    Total Energy =                       -321.8611537279144841
  Basis Set: CC-PVTZ
  Basis Set:
  Charge       = 0
  Multiplicity = 1
  Basis Set: CC-PVTZ
  Basis Set:

    Orbital Energies (a.u.)
    -----------------------

    Doubly Occupied:

       1A    -20.592984     2A    -20.589250     3A    -15.837312
       4A    -11.297704     5A    -11.251715     6A    -11.229827
       7A     -1.636676     8A     -1.420877     9A     -1.132552
      10A     -1.021827    11A     -0.894065    12A     -0.824102
      13A     -0.761441    14A     -0.741881    15A     -0.729313
      16A     -0.648606    17A     -0.621847    18A     -0.595749
      19A     -0.532088    20A     -0.518418    21A     -0.513029
      22A     -0.487715    23A     -0.475149    24A     -0.454181

  @DF-RHF Final Energy:  -321.86115407419300

   => Energetics <=

    Nuclear Repulsion Energy =            252.8371546063073367
    One-Electron Energy =                -939.7800057028175615
    Two-Electron Energy =                 365.0816970223171438
    DFT Exchange-Correlation Energy =       0.0000000000000000
    Empirical Dispersion Energy =           0.0000000000000000
    PCM Polarization Energy =               0.0000000000000000
    EFP Energy =                            0.0000000000000000
    Total Energy =                       -321.8611540741931094
    Molecular point group: c1
  Basis Set: CC-PVTZ
  Basis Set:

  -Total Gradient:
     Atom            X                  Y                   Z
    ------   -----------------  -----------------  -----------------
       1       -0.000006108974    -0.000001133226     0.000005095334
       2        0.000003673571    -0.000015074366     0.000008460188
       3        0.000217369311     0.001160097798     0.000579145914
       4       -0.000002129312    -0.000001714184    -0.000002020376
       5        0.000002715966    -0.000001413923    -0.000002139549
       6       -0.000083351055     0.001082218642     0.000346719582
       7       -0.000161555466    -0.001252393806    -0.000597765308
       8        0.000000324459     0.000006070611     0.000006736991
       9        0.000001335322    -0.000909426821    -0.000263665013
      10        0.000004626458     0.000006249199    -0.000005996988
      11        0.000007766169    -0.000006372101    -0.000004348581
      12       -0.000003998103    -0.000034886978    -0.000038617001
      13        0.000019331654    -0.000032220844    -0.000031605193

  **** Optimization is complete! (in 12 steps) ****
    Final optimized geometry and variables:
    Molecular point group: c1

    Geometry (in Angstrom), charge = 0, multiplicity = 1:

    H            2.140712707506     1.697942546917    -1.617991936219
    C            1.462073264607     1.456892397703    -0.809761991097
    C            1.544061050101    -0.027921761452    -0.474381905458
    H            1.727629208182     2.069204586234     0.044540592459
    H            0.463838661517     1.738064392410    -1.123753526918
    C            0.639731257331    -0.448588154479     0.675220993533
    H            2.554703889197    -0.295508286418    -0.186810638456
    H            1.301187450708    -0.626577541044    -1.341780332600
    N           -0.799588233557    -0.349760645028     0.294725629721
    H            0.788847207300    -1.487619371705     0.926448579782
    H            0.757677370933     0.169248858842     1.548568137260
    O           -1.164124974683    -1.020588125843    -0.612528104643
    O           -1.484495833202     0.385563317907     0.921656923225

  Mulliken Charges: (a.u.)
   Center  Symbol    Alpha    Beta     Spin     Total
       1     H     0.44495  0.44495  0.00000  0.11010
       2     C     3.14389  3.14389  0.00000 -0.28779
       3     C     3.09913  3.09913  0.00000 -0.19827
       4     H     0.45305  0.45305  0.00000  0.09391
       5     H     0.44588  0.44588  0.00000  0.10823
       6     C     3.04889  3.04889  0.00000 -0.09777
       7     H     0.44546  0.44546  0.00000  0.10909
       8     H     0.43638  0.43638  0.00000  0.12725
       9     N     3.27900  3.27900  0.00000  0.44199
      10     H     0.42835  0.42835  0.00000  0.14330
      11     H     0.43218  0.43218  0.00000  0.13564
      12     O     4.17437  4.17437  0.00000 -0.34873
      13     O     4.16847  4.16847  0.00000 -0.33694

   Total alpha = 24.00000, Total beta = 24.00000, Total charge = -0.00000

*** Psi4 exiting successfully. Buy a developer a beer!
