  ==> Input File <==

--------------------------------------------------------------------------
set {
	reference rhf
	basis cc-pvtz
}

set_num_threads( 4 )
memory 2 gb

molecule MOL {
0 1

H	 -3.144994	 -1.202467	 -0.018751
O	 -2.321472	 -0.864941	 -0.318626
C	 -2.021813	 0.336996	 0.342658
C	 -0.669613	 0.837286	 -0.127252
H	 -2.780861	 1.084746	 0.127159
H	 -2.006390	 0.184138	 1.420053
C	 0.490865	 -0.082543	 0.241244
H	 -0.708709	 0.967192	 -1.204587
H	 -0.507562	 1.822272	 0.303070
C	 1.839800	 0.429565	 -0.255472
H	 0.305636	 -1.070211	 -0.165276
H	 0.527397	 -0.195943	 1.322876
C	 3.023867	 -0.286573	 0.385556
H	 1.891200	 0.313458	 -1.334629
H	 1.916286	 1.496257	 -0.060514
H	 2.994733	 -1.351088	 0.178492
H	 3.965943	 0.097743	 0.011257
H	 3.020546	 -0.160985	 1.463360

	symmetry c1
}
set optking {
	frozen_dihedral = ("
		14 10 7 11
	")
}

ee = optimize('scf')
oeprop('DIPOLE', 'QUADRUPOLE', 'MULLIKEN_CHARGES')
f=open( 'psi4out.xyz', 'w' )
f.write( "18  " )
f.write( str(ee) + "\n" )
f.write( MOL.save_string_xyz() )
f.close()
--------------------------------------------------------------------------

    Molecular point group: c1
  Charge       = 0
  Multiplicity = 1
  Basis Set: CC-PVTZ
  Basis Set:
  @DF-RHF Final Energy:  -271.28620796016264
    Total Energy =                       -271.2862079601622440
    Molecular point group: c1
  Basis Set: CC-PVTZ
  Basis Set:
  Basis Set: CC-PVTZ
  Basis Set:
  @DF-RHF Final Energy:  -271.28630036310017
    Total Energy =                       -271.2863003631006222
  Basis Set: CC-PVTZ
  Basis Set:
  Basis Set: CC-PVTZ
  Basis Set:
  @DF-RHF Final Energy:  -271.28632364812273
    Total Energy =                       -271.2863236481224476
  Basis Set: CC-PVTZ
  Basis Set:
  Charge       = 0
  Multiplicity = 1
  Basis Set: CC-PVTZ
  Basis Set:

    Orbital Energies (a.u.)
    -----------------------

    Doubly Occupied:

       1A    -20.546325     2A    -11.265886     3A    -11.210309
       4A    -11.209083     5A    -11.204930     6A    -11.202810
       7A     -1.364188     8A     -1.076329     9A     -1.010095
      10A     -0.914306    11A     -0.818241    12A     -0.784504
      13A     -0.708616    14A     -0.642295    15A     -0.627955
      16A     -0.583859    17A     -0.572540    18A     -0.557787
      19A     -0.524748    20A     -0.501466    21A     -0.489563
      22A     -0.468056    23A     -0.459571    24A     -0.449489
      25A     -0.430855

  @DF-RHF Final Energy:  -271.28632388510158

   => Energetics <=

    Nuclear Repulsion Energy =            249.2605835760775221
    One-Electron Energy =                -861.8461978413927227
    Two-Electron Energy =                 341.2992903802136766
    DFT Exchange-Correlation Energy =       0.0000000000000000
    Empirical Dispersion Energy =           0.0000000000000000
    PCM Polarization Energy =               0.0000000000000000
    EFP Energy =                            0.0000000000000000
    Total Energy =                       -271.2863238851014671
    Molecular point group: c1
  Basis Set: CC-PVTZ
  Basis Set:

  -Total Gradient:
     Atom            X                  Y                   Z
    ------   -----------------  -----------------  -----------------
       1       -0.000000540486    -0.000003637209    -0.000000942734
       2        0.000027504329    -0.000020674852     0.000025117298
       3       -0.000037319505     0.000026632411    -0.000068866866
       4        0.000016307261     0.000005084142     0.000066559522
       5       -0.000002032392     0.000013885725     0.000010996754
       6        0.000012042316    -0.000007156935    -0.000009197768
       7        0.001672933128    -0.001790504176     0.002549159915
       8       -0.000011300568    -0.000005791487     0.000012220691
       9       -0.000010046354     0.000020363849     0.000001540193
      10       -0.001493286015     0.003085253760    -0.000863717580
      11       -0.001159516307     0.001002731151    -0.002025939092
      12        0.000000175834     0.000009668163    -0.000017801588
      13       -0.000004565030     0.000013979076     0.000003424295
      14        0.000980145708    -0.002321735316     0.000303532587
      15       -0.000009869109    -0.000014357829     0.000004331937
      16        0.000002733223    -0.000004791082     0.000002555466
      17        0.000006658489    -0.000002522078     0.000002336014
      18        0.000009975474    -0.000006427314     0.000004690956

  **** Optimization is complete! (in 4 steps) ****
    Final optimized geometry and variables:
    Molecular point group: c1

    Geometry (in Angstrom), charge = 0, multiplicity = 1:

    H           -3.133540371794    -1.255399543123    -0.100646422126
    O           -2.308907894731    -0.907994697116    -0.385566135308
    C           -2.033044227980     0.294633142747     0.284868963686
    C           -0.677651716437     0.809808976589    -0.159012325648
    H           -2.795666062408     1.035533803304     0.058646393202
    H           -2.035064941762     0.137924000303     1.361852121577
    C            0.486436052718    -0.097888787504     0.232025769175
    H           -0.697712922246     0.938499596169    -1.237171117475
    H           -0.534538872505     1.796742174773     0.273232951257
    C            1.830888450746     0.404832373388    -0.290465752557
    H            0.294831276159    -1.088996073467    -0.162167010981
    H            0.523825661528    -0.184495959768     1.315385524420
    C            3.018878908475    -0.331897995045     0.321933232646
    H            1.862838360238     0.275376255888    -1.368446569343
    H            1.928954727663     1.469241552587    -0.096468645532
    H            2.954885317944    -1.398677654362     0.134168925883
    H            3.956900822671     0.020606772737    -0.091920278457
    H            3.056863203511    -0.189095397506     1.396826087240

  Mulliken Charges: (a.u.)
   Center  Symbol    Alpha    Beta     Spin     Total
       1     H     0.39564  0.39564  0.00000  0.20873
       2     O     4.19893  4.19893  0.00000 -0.39786
       3     C     2.97370  2.97370  0.00000  0.05259
       4     C     3.09083  3.09083  0.00000 -0.18167
       5     H     0.46520  0.46520  0.00000  0.06961
       6     H     0.47369  0.47369  0.00000  0.05263
       7     C     3.08752  3.08752  0.00000 -0.17505
       8     H     0.45235  0.45235  0.00000  0.09530
       9     H     0.45437  0.45437  0.00000  0.09126
      10     C     3.08385  3.08385  0.00000 -0.16769
      11     H     0.44394  0.44394  0.00000  0.11213
      12     H     0.45976  0.45976  0.00000  0.08048
      13     C     3.14962  3.14962  0.00000 -0.29924
      14     H     0.45313  0.45313  0.00000  0.09375
      15     H     0.45712  0.45712  0.00000  0.08577
      16     H     0.45452  0.45452  0.00000  0.09096
      17     H     0.44951  0.44951  0.00000  0.10098
      18     H     0.45633  0.45633  0.00000  0.08733

   Total alpha = 25.00000, Total beta = 25.00000, Total charge = -0.00000
