  ==> Input File <==

--------------------------------------------------------------------------
set {
	reference rhf
	basis 6-31G*
}

set_num_threads( 1 )
memory 2 gb

molecule MOL {
0 1

H	 -3.567279	 0.029986	 -1.148636
O	 -3.517110	 -0.026191	 -0.205115
C	 -2.306886	 0.532354	 0.237577
C	 -1.177863	 -0.397191	 -0.171080
H	 -2.156308	 1.517575	 -0.201710
H	 -2.315015	 0.655684	 1.319734
C	 0.198102	 0.111031	 0.262842
H	 -1.208843	 -0.518759	 -1.250427
H	 -1.368741	 -1.376554	 0.258909
C	 1.331804	 -0.827780	 -0.158768
H	 0.361943	 1.100838	 -0.156218
H	 0.217265	 0.229072	 1.345532
C	 2.723619	 -0.410569	 0.329459
H	 1.342964	 -0.912588	 -1.244120
H	 1.116806	 -1.824343	 0.220779
C	 3.243875	 0.895854	 -0.272975
H	 3.424222	 -1.207124	 0.091250
H	 2.714788	 -0.329854	 1.414619
H	 3.251977	 0.848779	 -1.358681
H	 2.637085	 1.747371	 0.016682
H	 4.259473	 1.094070	 0.055697

	symmetry c1
}
set optking {
	frozen_dihedral = ("
		2 3 4 8,
		8 4 7 10,
		4 7 10 14,
		16 13 10 14
	")
}

ee = energy('scf')
oeprop('DIPOLE', 'QUADRUPOLE', 'MULLIKEN_CHARGES')
f=open( 'psi4out.xyz', 'w' )
f.write( "21  " )
f.write( str(ee) + "\n" )
f.write( MOL.save_string_xyz() )
f.close()
--------------------------------------------------------------------------

    Molecular point group: c1

    Geometry (in Angstrom), charge = 0, multiplicity = 1:

       Center              X                  Y                   Z               Mass
    ------------   -----------------  -----------------  -----------------  -----------------
           H         -3.573884328262     0.035001775044    -1.136905775974     1.007825032070
           O         -3.523715328262    -0.021175224956    -0.193384775974    15.994914619560
           C         -2.313491328262     0.537369775044     0.249307224026    12.000000000000
           C         -1.184468328262    -0.392175224956    -0.159349775974    12.000000000000
           H         -2.162913328262     1.522590775044    -0.189979775974     1.007825032070
           H         -2.321620328262     0.660699775044     1.331464224026     1.007825032070
           C          0.191496671738     0.116046775044     0.274572224026    12.000000000000
           H         -1.215448328262    -0.513743224956    -1.238696775974     1.007825032070
           H         -1.375346328262    -1.371538224956     0.270639224026     1.007825032070
           C          1.325198671738    -0.822764224956    -0.147037775974    12.000000000000
           H          0.355337671738     1.105853775044    -0.144487775974     1.007825032070
           H          0.210659671738     0.234087775044     1.357262224026     1.007825032070
           C          2.717013671738    -0.405553224956     0.341189224026    12.000000000000
           H          1.336358671738    -0.907572224956    -1.232389775974     1.007825032070
           H          1.110200671738    -1.819327224956     0.232509224026     1.007825032070
           C          3.237269671738     0.900869775044    -0.261244775974    12.000000000000
           H          3.417616671738    -1.202108224956     0.102980224026     1.007825032070
           H          2.708182671738    -0.324838224956     1.426349224026     1.007825032070
           H          3.245371671738     0.853794775044    -1.346950775974     1.007825032070
           H          2.630479671738     1.752386775044     0.028412224026     1.007825032070
           H          4.252867671738     1.099085775044     0.067427224026     1.007825032070

  Charge       = 0
  Multiplicity = 1
  Basis Set: 6-31G*
  Basis Set:

    Orbital Energies (a.u.)
    -----------------------

    Doubly Occupied:

       1A    -20.551091     2A    -11.268149     3A    -11.217502
       4A    -11.216774     5A    -11.215723     6A    -11.213117
       7A    -11.209818     8A     -1.359458     9A     -1.088292
      10A     -1.034554    11A     -0.955274    12A     -0.878572
      13A     -0.817083    14A     -0.780600    15A     -0.695268
      16A     -0.644711    17A     -0.624679    18A     -0.611300
      19A     -0.593536    20A     -0.569297    21A     -0.549000
      22A     -0.522643    23A     -0.504797    24A     -0.498590
      25A     -0.476484    26A     -0.463688    27A     -0.462506
      28A     -0.457563    29A     -0.417903

  @DF-RHF Final Energy:  -310.21091021175698

   => Energetics <=

    Nuclear Repulsion Energy =            313.0145503794038859
    One-Electron Energy =               -1040.6550388328746521
    Two-Electron Energy =                 417.4295782417136138
    DFT Exchange-Correlation Energy =       0.0000000000000000
    Empirical Dispersion Energy =           0.0000000000000000
    PCM Polarization Energy =               0.0000000000000000
    EFP Energy =                            0.0000000000000000
    Total Energy =                       -310.2109102117571524

  Mulliken Charges: (a.u.)
   Center  Symbol    Alpha    Beta     Spin     Total
       1     H     0.28171  0.28171  0.00000  0.43659
       2     O     4.37054  4.37054  0.00000 -0.74107
       3     C     2.99291  2.99291  0.00000  0.01418
       4     C     3.16143  3.16143  0.00000 -0.32286
       5     H     0.43145  0.43145  0.00000  0.13709
       6     H     0.41610  0.41610  0.00000  0.16780
       7     C     3.16263  3.16263  0.00000 -0.32526
       8     H     0.42913  0.42913  0.00000  0.14174
       9     H     0.41348  0.41348  0.00000  0.17304
      10     C     3.15154  3.15154  0.00000 -0.30308
      11     H     0.42203  0.42203  0.00000  0.15594
      12     H     0.42273  0.42273  0.00000  0.15455
      13     C     3.15253  3.15253  0.00000 -0.30506
      14     H     0.42432  0.42432  0.00000  0.15137
      15     H     0.42091  0.42091  0.00000  0.15819
      16     C     3.24127  3.24127  0.00000 -0.48253
      17     H     0.42058  0.42058  0.00000  0.15884
      18     H     0.42303  0.42303  0.00000  0.15393
      19     H     0.42246  0.42246  0.00000  0.15509
      20     H     0.42044  0.42044  0.00000  0.15913
      21     H     0.41880  0.41880  0.00000  0.16240

   Total alpha = 29.00000, Total beta = 29.00000, Total charge = -0.00000
