  ==> Input File <==

--------------------------------------------------------------------------
set {
	reference rhf
	basis 6-31G*
}

set_num_threads( 4 )
memory 2 gb

molecule MOL {
0 1

O	 1.988689	 0.024782	 -0.808013
C	 1.122059	 0.121804	 -0.000188
C	 -0.170150	 -0.657997	 -0.000612
O	 1.182273	 0.951621	 1.033617
C	 -1.412532	 0.227344	 -0.000452
H	 -0.153702	 -1.313099	 -0.867402
H	 -0.153924	 -1.313811	 0.865644
C	 -2.706999	 -0.587347	 -0.000541
H	 -1.388000	 0.879466	 -0.868000
H	 -1.387972	 0.879138	 0.867341
C	 -3.956778	 0.291888	 0.000910
H	 -2.726114	 -1.239230	 -0.871609
H	 -2.725217	 -1.240844	 0.869333
H	 -3.985213	 0.933254	 -0.875158
H	 -4.860123	 -0.309979	 0.000519
H	 -3.984618	 0.931166	 0.878514
C	 2.348248	 1.746257	 1.152776
H	 3.224478	 1.122382	 1.255190
H	 2.208779	 2.343702	 2.040220
H	 2.464506	 2.382633	 0.287319

	symmetry c1
}
set optking {
	frozen_dihedral = ("
		1 2 3 6
	")
}

ee = optimize('scf')
oeprop('DIPOLE', 'QUADRUPOLE', 'MULLIKEN_CHARGES')
f=open( 'psi4out.xyz', 'w' )
f.write( "20  " )
f.write( str(ee) + "\n" )
f.write( MOL.save_string_xyz() )
f.close()
--------------------------------------------------------------------------

    Molecular point group: c1
  Charge       = 0
  Multiplicity = 1
  Basis Set: 6-31G*
  Basis Set:
  @DF-RHF Final Energy:  -383.93995200748304
    Total Energy =                       -383.9399520074834982
    Molecular point group: c1
  Basis Set: 6-31G*
  Basis Set:
  Basis Set: 6-31G*
  Basis Set:
  @DF-RHF Final Energy:  -383.93988071626620
    Total Energy =                       -383.9398807162660887
  Basis Set: 6-31G*
  Basis Set:
  Basis Set: 6-31G*
  Basis Set:
  @DF-RHF Final Energy:  -383.93972248193728
    Total Energy =                       -383.9397224819373378
  Basis Set: 6-31G*
  Basis Set:
  Basis Set: 6-31G*
  Basis Set:
  @DF-RHF Final Energy:  -383.94027070075600
    Total Energy =                       -383.9402707007558320
  Basis Set: 6-31G*
  Basis Set:
  Basis Set: 6-31G*
  Basis Set:
  @DF-RHF Final Energy:  -383.94027385392093
    Total Energy =                       -383.9402738539208713
  Basis Set: 6-31G*
  Basis Set:
  Charge       = 0
  Multiplicity = 1
  Basis Set: 6-31G*
  Basis Set:

    Orbital Energies (a.u.)
    -----------------------

    Doubly Occupied:

       1A    -20.604337     2A    -20.543772     3A    -11.371166
       4A    -11.281001     5A    -11.234541     6A    -11.227994
       7A    -11.223872     8A    -11.214240     9A     -1.468950
      10A     -1.361428    11A     -1.092611    12A     -1.025023
      13A     -0.966520    14A     -0.891335    15A     -0.807030
      16A     -0.774051    17A     -0.693493    18A     -0.680609
      19A     -0.673160    20A     -0.647525    21A     -0.596297
      22A     -0.591898    23A     -0.577374    24A     -0.550042
      25A     -0.532538    26A     -0.521675    27A     -0.509497
      28A     -0.486333    29A     -0.481052    30A     -0.474400
      31A     -0.454582    32A     -0.428829

  @DF-RHF Final Energy:  -383.94027483184249

   => Energetics <=

    Nuclear Repulsion Energy =            383.5235844577292141
    One-Electron Energy =               -1282.9533698945033393
    Two-Electron Energy =                 515.4895106049314109
    DFT Exchange-Correlation Energy =       0.0000000000000000
    Empirical Dispersion Energy =           0.0000000000000000
    PCM Polarization Energy =               0.0000000000000000
    EFP Energy =                            0.0000000000000000
    Total Energy =                       -383.9402748318427712
    Molecular point group: c1
  Basis Set: 6-31G*
  Basis Set:

  -Total Gradient:
     Atom            X                  Y                   Z
    ------   -----------------  -----------------  -----------------
       1        0.000202548109    -0.000326570768     0.000261885152
       2       -0.000292924209     0.000517438941    -0.000439382676
       3        0.000293959299    -0.000471436582     0.000434339942
       4       -0.000032232253     0.000021779988    -0.000001927660
       5        0.000038394199    -0.000014655749    -0.000012808437
       6       -0.000204434055     0.000314148028    -0.000237629314
       7        0.000001730753    -0.000009407947    -0.000023730940
       8       -0.000007341307    -0.000010511359     0.000001808360
       9       -0.000003485209    -0.000004610478     0.000029606770
      10        0.000020408548     0.000007344212     0.000004765611
      11       -0.000001601022    -0.000004053630    -0.000008516597
      12        0.000001327477    -0.000008846015     0.000001533000
      13       -0.000010135597     0.000002695890     0.000000874388
      14       -0.000002839054     0.000001466130    -0.000001193884
      15       -0.000005818376     0.000000851848    -0.000000272962
      16        0.000005457191    -0.000002353631    -0.000004593086
      17       -0.000010345736    -0.000020939864    -0.000005233158
      18        0.000005077727     0.000003408157     0.000001284507
      19        0.000000683783     0.000001431980     0.000000165053
      20        0.000001569731     0.000002820849    -0.000000974065

  **** Optimization is complete! (in 6 steps) ****
    Final optimized geometry and variables:
    Molecular point group: c1

    Geometry (in Angstrom), charge = 0, multiplicity = 1:

    O            2.139271282449    -0.254083509995    -1.000351105909
    C            1.289879360841    -0.156182779967    -0.174105723967
    C            0.002257622538    -0.942553274389    -0.161142895106
    O            1.381724095620     0.665250104853     0.864477625105
    C           -1.250662562387    -0.057377655912    -0.162612174387
    H            0.017655458568    -1.588021226281    -1.029714236987
    H            0.006145350554    -1.569282976971     0.726433443941
    C           -2.539347948593    -0.880600818834    -0.193460739390
    H           -1.223689952114     0.601483573026    -1.027832585196
    H           -1.243026372732     0.579246741066     0.715643770869
    C           -3.795351102452    -0.010349544935    -0.200872188919
    H           -2.538494731026    -1.521690401818    -1.072006407649
    H           -2.563648008273    -1.542941079085     0.669255991455
    H           -3.816894785549     0.639399395590    -1.071020768686
    H           -4.693538191594    -0.619351085508    -0.220602137472
    H           -3.841257569375     0.619237461509     0.683033247134
    C            2.555143582512     1.452165879976     0.959292621499
    H            3.429296507730     0.821949294524     1.037268209399
    H            2.441000437344     2.045987943090     1.852790069575
    H            2.654390721964     2.091821005108     0.094227040972

  Mulliken Charges: (a.u.)
   Center  Symbol    Alpha    Beta     Spin     Total
       1     O     4.28578  4.28578  0.00000 -0.57157
       2     C     2.61347  2.61347  0.00000  0.77306
       3     C     3.19867  3.19867  0.00000 -0.39735
       4     O     4.30259  4.30259  0.00000 -0.60517
       5     C     3.16203  3.16203  0.00000 -0.32406
       6     H     0.39851  0.39851  0.00000  0.20298
       7     H     0.40399  0.40399  0.00000  0.19203
       8     C     3.15338  3.15338  0.00000 -0.30676
       9     H     0.41591  0.41591  0.00000  0.16819
      10     H     0.40781  0.40781  0.00000  0.18437
      11     C     3.24001  3.24001  0.00000 -0.48001
      12     H     0.42012  0.42012  0.00000  0.15977
      13     H     0.42118  0.42118  0.00000  0.15764
      14     H     0.42008  0.42008  0.00000  0.15984
      15     H     0.41748  0.41748  0.00000  0.16504
      16     H     0.42032  0.42032  0.00000  0.15935
      17     C     3.09224  3.09224  0.00000 -0.18448
      18     H     0.40873  0.40873  0.00000  0.18253
      19     H     0.40887  0.40887  0.00000  0.18227
      20     H     0.40883  0.40883  0.00000  0.18234

   Total alpha = 32.00000, Total beta = 32.00000, Total charge =  0.00000
