                              Psi4 1.0.54 Driver

  ==> Input File <==

--------------------------------------------------------------------------
set {
	reference rhf
	basis cc-pvtz
}

set_num_threads( 4 )
memory 2 gb

molecule MOL {
0 1

H	 -3.258660	 -0.290394	 1.471450
C	 -3.307964	 -0.275695	 0.374072
C	 -2.653809	 0.914422	 -0.273689
O	 -3.855140	 -1.148880	 -0.205112
C	 -1.216901	 1.136108	 0.207794
H	 -2.700131	 0.790676	 -1.347875
H	 -3.256452	 1.781007	 -0.010713
C	 -0.247837	 0.040196	 -0.230469
H	 -0.872882	 2.093195	 -0.169002
H	 -1.209325	 1.218376	 1.291938
C	 1.181757	 0.280428	 0.247371
H	 -0.259600	 -0.030819	 -1.314870
H	 -0.591284	 -0.923375	 0.136958
C	 2.151032	 -0.811012	 -0.202643
H	 1.515939	 1.247397	 -0.115449
H	 1.191514	 0.341223	 1.333422
C	 3.580021	 -0.656538	 0.320835
H	 2.170545	 -0.847575	 -1.289412
H	 1.766632	 -1.772905	 0.124928
C	 3.824418	 0.603134	 1.148229
H	 4.256375	 -0.650908	 -0.528226
H	 3.842470	 -1.531343	 0.910024
H	 3.564158	 1.494521	 0.586365
H	 3.243833	 0.607563	 2.062880
H	 4.868972	 0.683002	 1.426604

	symmetry c1
}
set optking {
	frozen_dihedral = ("
		20 17 14 18
	")
}

ee,wfn = optimize('scf', return_wfn=True)
oeprop( wfn, 'DIPOLE', 'QUADRUPOLE', 'MULLIKEN_CHARGES')
f=open( 'psi4out.xyz', 'w' )
f.write( "25  " )
f.write( str(ee) + "\n" )
f.write( MOL.save_string_xyz() )
f.close()
--------------------------------------------------------------------------

    Molecular point group: c1
  Charge       = 0
  Multiplicity = 1
  Basis Set: CC-PVTZ
  Basis Set:
  @DF-RHF Final Energy:  -387.24990160282272
    Total Energy =                       -387.2499016028230017
    Molecular point group: c1
  Basis Set: CC-PVTZ
  Basis Set:
  Basis Set: CC-PVTZ
  Basis Set:
  @DF-RHF Final Energy:  -387.24439837380152
    Total Energy =                       -387.2443983738013458
  Basis Set: CC-PVTZ
  Basis Set:
  Basis Set: CC-PVTZ
  Basis Set:
  @DF-RHF Final Energy:  -387.25161140227016
    Total Energy =                       -387.2516114022696456
  Basis Set: CC-PVTZ
  Basis Set:
  Basis Set: CC-PVTZ
  Basis Set:
  @DF-RHF Final Energy:  -387.25187895799326
    Total Energy =                       -387.2518789579933127
  Basis Set: CC-PVTZ
  Basis Set:
  @DF-RHF Final Energy:  -387.24818051432084
    Total Energy =                       -387.2481805143211204
  @DF-RHF Final Energy:  -387.25186214139399
    Total Energy =                       -387.2518621413938718
  Basis Set: CC-PVTZ
  Basis Set:
  @DF-RHF Final Energy:  -387.25195630435502
    Total Energy =                       -387.2519563043548487
  Basis Set: CC-PVTZ
  Basis Set:
  Basis Set: CC-PVTZ
  Basis Set:
  @DF-RHF Final Energy:  -387.25196184916609
    Total Energy =                       -387.2519618491659230
  Basis Set: CC-PVTZ
  Basis Set:
  Basis Set: CC-PVTZ
  Basis Set:
  @DF-RHF Final Energy:  -387.25196617839970
    Total Energy =                       -387.2519661783993570
  Basis Set: CC-PVTZ
  Basis Set:
  Charge       = 0
  Multiplicity = 1
  Basis Set: CC-PVTZ
  Basis Set:

    Orbital Energies (a.u.)
    -----------------------

    Doubly Occupied:

       1A    -20.551305     2A    -11.320940     3A    -11.233710
       4A    -11.232691     5A    -11.221417     6A    -11.217682
       7A    -11.216421     8A    -11.215149     9A    -11.208994
      10A     -1.406280    11A     -1.104440    12A     -1.067501
      13A     -1.013650    14A     -0.943121    15A     -0.879052
      16A     -0.823514    17A     -0.788426    18A     -0.774425
      19A     -0.667834    20A     -0.665580    21A     -0.639319
      22A     -0.622966    23A     -0.605873    24A     -0.589137
      25A     -0.574763    26A     -0.554819    27A     -0.533080
      28A     -0.525953    29A     -0.516946    30A     -0.497151
      31A     -0.491154    32A     -0.482304    33A     -0.461796
      34A     -0.448828    35A     -0.443438    36A     -0.411789

  @DF-RHF Final Energy:  -387.25196596051973

   => Energetics <=

    Nuclear Repulsion Energy =            440.5139700663976896
    One-Electron Energy =               -1397.6289823942099702
    Two-Electron Energy =                 569.8630463672923270
    DFT Exchange-Correlation Energy =       0.0000000000000000
    Empirical Dispersion Energy =           0.0000000000000000
    PCM Polarization Energy =               0.0000000000000000
    EFP Energy =                            0.0000000000000000
    Total Energy =                       -387.2519659605200104
    Molecular point group: c1
  Basis Set: CC-PVTZ
  Basis Set:

  -Total Gradient:
     Atom            X                  Y                   Z
    ------   -----------------  -----------------  -----------------
       1       -0.000020489492    -0.000029820425     0.000097852050
       2        0.000093457652     0.000067170117    -0.000082030617
       3        0.000012703390     0.000016567779     0.000001606853
       4       -0.000078933195    -0.000094249310    -0.000038381142
       5        0.000006222126     0.000033150998    -0.000031802587
       6        0.000005134472     0.000009640459     0.000028312809
       7        0.000003953226     0.000011329145     0.000012799159
       8       -0.000003656501    -0.000005432259     0.000003650853
       9        0.000002099294    -0.000026461073     0.000001958793
      10       -0.000000375144     0.000014312002    -0.000011354711
      11       -0.000033839446    -0.000024251000     0.000050714533
      12        0.000004016147    -0.000001155067     0.000020262460
      13       -0.000000747874     0.000023321313    -0.000002352548
      14       -0.000045718640     0.001151206771     0.000393665374
      15        0.000024675046    -0.000010498455     0.000011407425
      16       -0.000041655557     0.000000388886    -0.000068864827
      17        0.000315041708     0.000431448391    -0.001040625885
      18       -0.000046557057    -0.001131619764    -0.000052917999
      19        0.000022758635     0.000028404839     0.000000775831
      20       -0.000258976797    -0.000409673293     0.000715514707
      21       -0.000013503233    -0.000010276142     0.000032800608
      22       -0.000006003211     0.000016794080    -0.000012278615
      23       -0.000021087003    -0.000081664526     0.000033921689
      24        0.000083823593     0.000000067414    -0.000070116220
      25       -0.000002342130     0.000021299118     0.000005482008

  **** Optimization is complete! (in 10 steps) ****
    Final optimized geometry and variables:
    Molecular point group: c1

    Geometry (in Angstrom), charge = 0, multiplicity = 1:

    H           -3.283569269629    -0.136404344492     1.221321043238
    C           -3.293812241778     0.050034879827     0.138537619894
    C           -2.497754530154     1.247011213153    -0.306018275675
    O           -3.909331523177    -0.660705073660    -0.577988202775
    C           -1.063747163600     1.238173947140     0.231454895671
    H           -2.518518994120     1.292293496547    -1.387129347896
    H           -3.016885427709     2.123681259790     0.075173334486
    C           -0.199840743452     0.119570459500    -0.347113679149
    H           -0.608344202246     2.197065922515     0.009193117155
    H           -1.086484422243     1.159125490707     1.315586165823
    C            1.230342046775     0.133725233222     0.186484287888
    H           -0.183688190419     0.208043467604    -1.430087219140
    H           -0.653565503959    -0.844432188587    -0.131833641223
    C            2.080643699977    -0.988695773366    -0.408308420560
    H            1.677849302937     1.098232618427    -0.032049474527
    H            1.203552238079     0.046664778665     1.268426219770
    C            3.560535526642    -1.084716085860     0.050992351857
    H            2.054062201736    -0.899673125055    -1.489575841812
    H            1.589222529536    -1.931092474750    -0.188627920345
    C            4.072980387903    -0.001609517776     1.000182768186
    H            4.197554003708    -1.093639848828    -0.826286187668
    H            3.713310316868    -2.045119847259     0.530968693444
    H            4.012257477663     0.987223226065     0.561352794193
    H            3.523444351271     0.015094955889     1.933396612039
    H            5.113943583500    -0.186649468168     1.239616537785

  Mulliken Charges: (a.u.)
   Center  Symbol    Alpha    Beta     Spin     Total
       1     H     0.46414  0.46414  0.00000  0.07172
       2     C     2.90487  2.90487  0.00000  0.19027
       3     C     3.08877  3.08877  0.00000 -0.17754
       4     O     4.16637  4.16637  0.00000 -0.33274
       5     C     3.11638  3.11638  0.00000 -0.23277
       6     H     0.44290  0.44290  0.00000  0.11420
       7     H     0.44056  0.44056  0.00000  0.11888
       8     C     3.09075  3.09075  0.00000 -0.18149
       9     H     0.44321  0.44321  0.00000  0.11359
      10     H     0.44999  0.44999  0.00000  0.10003
      11     C     3.08879  3.08879  0.00000 -0.17758
      12     H     0.45008  0.45008  0.00000  0.09984
      13     H     0.44857  0.44857  0.00000  0.10286
      14     C     3.10178  3.10178  0.00000 -0.20357
      15     H     0.45171  0.45171  0.00000  0.09659
      16     H     0.45274  0.45274  0.00000  0.09451
      17     C     3.08793  3.08793  0.00000 -0.17585
      18     H     0.45052  0.45052  0.00000  0.09896
      19     H     0.44989  0.44989  0.00000  0.10022
      20     C     3.15729  3.15729  0.00000 -0.31458
      21     H     0.45060  0.45060  0.00000  0.09881
      22     H     0.45123  0.45123  0.00000  0.09753
      23     H     0.45367  0.45367  0.00000  0.09265
      24     H     0.45355  0.45355  0.00000  0.09289
      25     H     0.44372  0.44372  0.00000  0.11257

   Total alpha = 36.00000, Total beta = 36.00000, Total charge = -0.00000

*** Psi4 exiting successfully. Buy a developer a beer!
