                              Psi4 1.0.54 Driver

  ==> Input File <==

--------------------------------------------------------------------------
set {
	reference rhf
	basis cc-pvtz
}

set_num_threads( 4 )
memory 2 gb

molecule MOL {
0 1

O	 -0.694481	 1.313155	 -0.204815
C	 -0.862519	 0.151932	 -0.046791
C	 -2.171428	 -0.477048	 0.339095
O	 0.085519	 -0.757083	 -0.192238
H	 -2.467997	 -1.191667	 -0.417688
H	 -2.923379	 0.287970	 0.444097
H	 -2.053854	 -1.015120	 1.270901
C	 1.392036	 -0.330828	 -0.560749
C	 1.708253	 -0.676148	 -2.001116
H	 2.112144	 -0.770364	 0.111612
H	 1.382049	 0.738945	 -0.415020
H	 2.681719	 -0.278211	 -2.264671
H	 1.728612	 -1.747556	 -2.146213
H	 0.972028	 -0.244716	 -2.668524

	symmetry c1
}
set optking {
	frozen_dihedral = ("
		10 8 4 2
	")
}

ee,wfn = optimize('scf', return_wfn=True)
oeprop( wfn, 'DIPOLE', 'QUADRUPOLE', 'MULLIKEN_CHARGES')
f=open( 'psi4out.xyz', 'w' )
f.write( "14  " )
f.write( str(ee) + "\n" )
f.write( MOL.save_string_xyz() )
f.close()
--------------------------------------------------------------------------

    Molecular point group: c1
  Charge       = 0
  Multiplicity = 1
  Basis Set: CC-PVTZ
  Basis Set:
  @DF-RHF Final Energy:  -305.98870603332932
    Total Energy =                       -305.9887060333294357
    Molecular point group: c1
  Basis Set: CC-PVTZ
  Basis Set:
  Basis Set: CC-PVTZ
  Basis Set:
  @DF-RHF Final Energy:  -305.98986402772124
    Total Energy =                       -305.9898640277214099
  Basis Set: CC-PVTZ
  Basis Set:
  Basis Set: CC-PVTZ
  Basis Set:
  @DF-RHF Final Energy:  -305.99033581462595
    Total Energy =                       -305.9903358146260643
  Basis Set: CC-PVTZ
  Basis Set:
  Basis Set: CC-PVTZ
  Basis Set:
  @DF-RHF Final Energy:  -305.99023585348368
    Total Energy =                       -305.9902358534835685
  Basis Set: CC-PVTZ
  Basis Set:
  Basis Set: CC-PVTZ
  Basis Set:
  @DF-RHF Final Energy:  -305.99034393648378
    Total Energy =                       -305.9903439364836686
  Basis Set: CC-PVTZ
  Basis Set:
  Charge       = 0
  Multiplicity = 1
  Basis Set: CC-PVTZ
  Basis Set:

    Orbital Energies (a.u.)
    -----------------------

    Doubly Occupied:

       1A    -20.593772     2A    -20.532629     3A    -11.368480
       4A    -11.281850     5A    -11.231295     6A    -11.219793
       7A     -1.469247     8A     -1.366098     9A     -1.057423
      10A     -1.000055    11A     -0.880264    12A     -0.773297
      13A     -0.700300    14A     -0.685802    15A     -0.660644
      16A     -0.613325    17A     -0.584156    18A     -0.569176
      19A     -0.562497    20A     -0.530192    21A     -0.520774
      22A     -0.495698    23A     -0.452147    24A     -0.443313

  @DF-RHF Final Energy:  -305.99034714448686

   => Energetics <=

    Nuclear Repulsion Energy =            247.3293119093499968
    One-Electron Energy =                -907.4548701089149745
    Two-Electron Energy =                 354.1352110550779457
    DFT Exchange-Correlation Energy =       0.0000000000000000
    Empirical Dispersion Energy =           0.0000000000000000
    PCM Polarization Energy =               0.0000000000000000
    EFP Energy =                            0.0000000000000000
    Total Energy =                       -305.9903471444869751
    Molecular point group: c1
  Basis Set: CC-PVTZ
  Basis Set:

  -Total Gradient:
     Atom            X                  Y                   Z
    ------   -----------------  -----------------  -----------------
       1        0.000026558580    -0.000017473300    -0.000012215135
       2        0.000224335003     0.000102598048     0.000873310649
       3        0.000000034138    -0.000003989206     0.000011524306
       4       -0.000300441061     0.000022980324    -0.001127804129
       5       -0.000006241676     0.000001312306    -0.000001669287
       6        0.000018429373    -0.000005556067    -0.000006733824
       7       -0.000002685747    -0.000002003702    -0.000009722889
       8        0.000143302755    -0.000892802351    -0.000311915377
       9        0.000020933766    -0.000014891204     0.000036709078
      10       -0.000123018460     0.000792963676     0.000534452720
      11       -0.000002620782    -0.000000192468    -0.000006670475
      12        0.000006573058     0.000000903629    -0.000000260642
      13       -0.000000097352     0.000006337005    -0.000002479175
      14       -0.000005061593     0.000009813310     0.000023474180

  **** Optimization is complete! (in 6 steps) ****
    Final optimized geometry and variables:
    Molecular point group: c1

    Geometry (in Angstrom), charge = 0, multiplicity = 1:

    O           -0.668341822330     1.455571067577     0.157914897214
    C           -0.794114539578     0.298443239517     0.371787776712
    C           -2.082482784682    -0.356025970633     0.784042862557
    O            0.182168289132    -0.588329188092     0.276222652719
    H           -2.349298409979    -1.117810443818     0.063031530637
    H           -2.861338613876     0.386280479242     0.846832913168
    H           -1.951464206370    -0.842165714699     1.742130724676
    C            1.492983291055    -0.163345773422    -0.078815914948
    C            1.836327917871    -0.638884010554    -1.473802352144
    H            2.153658453481    -0.598609508030     0.657476643937
    H            1.552256411989     0.909439511858    -0.005921579373
    H            2.856566255368    -0.363094102371    -1.715106835487
    H            1.745510395360    -1.715342670113    -1.548454452617
    H            1.179649825865    -0.184815204125    -2.205584599943

  Mulliken Charges: (a.u.)
   Center  Symbol    Alpha    Beta     Spin     Total
       1     O     4.19859  4.19859  0.00000 -0.39719
       2     C     2.80024  2.80024  0.00000  0.39953
       3     C     3.14002  3.14002  0.00000 -0.28004
       4     O     4.15836  4.15836  0.00000 -0.31672
       5     H     0.44603  0.44603  0.00000  0.10795
       6     H     0.43830  0.43830  0.00000  0.12340
       7     H     0.44587  0.44587  0.00000  0.10825
       8     C     2.98705  2.98705  0.00000  0.02591
       9     C     3.13952  3.13952  0.00000 -0.27904
      10     H     0.44886  0.44886  0.00000  0.10228
      11     H     0.44340  0.44340  0.00000  0.11321
      12     H     0.45299  0.45299  0.00000  0.09403
      13     H     0.45174  0.45174  0.00000  0.09652
      14     H     0.44904  0.44904  0.00000  0.10192

   Total alpha = 24.00000, Total beta = 24.00000, Total charge =  0.00000

*** Psi4 exiting successfully. Buy a developer a beer!
