  ==> Input File <==

--------------------------------------------------------------------------
set {
	reference rhf
	basis 6-31G*
}

set_num_threads( 4 )
memory 2 gb

molecule MOL {
0 1

O	 -2.821601	 1.309235	 -0.001213
C	 -2.668563	 0.129746	 -0.000350
C	 -3.801572	 -0.864014	 -0.000442
O	 -1.481751	 -0.454642	 0.000584
H	 -4.417280	 -0.689587	 -0.874708
H	 -3.443784	 -1.883046	 -0.000565
H	 -4.417179	 -0.689832	 0.873954
C	 -0.334255	 0.388708	 0.000906
C	 0.891947	 -0.504646	 0.000751
H	 -0.365390	 1.025305	 -0.873475
H	 -0.365484	 1.024911	 0.875569
C	 2.191998	 0.301789	 0.000897
H	 0.855148	 -1.151283	 -0.871571
H	 0.855132	 -1.151660	 0.872805
C	 2.913018	 0.269690	 1.349758
H	 2.858085	 -0.081724	 -0.770032
H	 1.978990	 1.335350	 -0.266423
C	 4.212186	 1.074070	 1.349456
H	 3.126958	 -0.762402	 1.618256
H	 2.249640	 0.654756	 2.120942
H	 4.910484	 0.691101	 0.610721
H	 4.699888	 1.032111	 2.318281
H	 4.026545	 2.118942	 1.117529

	symmetry c1
}
set optking {
	frozen_dihedral = ("
		16 12 9 13
	")
}

ee = optimize('scf')
oeprop('DIPOLE', 'QUADRUPOLE', 'MULLIKEN_CHARGES')
f=open( 'psi4out.xyz', 'w' )
f.write( "23  " )
f.write( str(ee) + "\n" )
f.write( MOL.save_string_xyz() )
f.close()
--------------------------------------------------------------------------

    Molecular point group: c1
  Charge       = 0
  Multiplicity = 1
  Basis Set: 6-31G*
  Basis Set:
  @DF-RHF Final Energy:  -422.97482334378890
    Total Energy =                       -422.9748233437894669
    Molecular point group: c1
  Basis Set: 6-31G*
  Basis Set:
  Basis Set: 6-31G*
  Basis Set:
  @DF-RHF Final Energy:  -422.97509184691444
    Total Energy =                       -422.9750918469142107
  Basis Set: 6-31G*
  Basis Set:
  Basis Set: 6-31G*
  Basis Set:
  @DF-RHF Final Energy:  -422.97515478517914
    Total Energy =                       -422.9751547851791429
  Basis Set: 6-31G*
  Basis Set:
  Basis Set: 6-31G*
  Basis Set:
  @DF-RHF Final Energy:  -422.97512241004347
    Total Energy =                       -422.9751224100432410
  Basis Set: 6-31G*
  Basis Set:
  Basis Set: 6-31G*
  Basis Set:
  @DF-RHF Final Energy:  -422.97515787785198
    Total Energy =                       -422.9751578778520980
  Basis Set: 6-31G*
  Basis Set:
  Basis Set: 6-31G*
  Basis Set:
  @DF-RHF Final Energy:  -422.97516628816675
    Total Energy =                       -422.9751662881667471
  Basis Set: 6-31G*
  Basis Set:
  Charge       = 0
  Multiplicity = 1
  Basis Set: 6-31G*
  Basis Set:

    Orbital Energies (a.u.)
    -----------------------

    Doubly Occupied:

       1A    -20.603073     2A    -20.540700     3A    -11.374260
       4A    -11.281975     5A    -11.232455     6A    -11.224144
       7A    -11.223586     8A    -11.221961     9A    -11.212751
      10A     -1.468181    11A     -1.360943    12A     -1.092804
      13A     -1.041590    14A     -1.002771    15A     -0.930363
      16A     -0.845051    17A     -0.799892    18A     -0.777906
      19A     -0.688412    20A     -0.684989    21A     -0.672203
      22A     -0.634548    23A     -0.614146    24A     -0.586385
      25A     -0.579365    26A     -0.571433    27A     -0.560347
      28A     -0.531963    29A     -0.525811    30A     -0.502147
      31A     -0.497425    32A     -0.478310    33A     -0.468109
      34A     -0.463001    35A     -0.449565    36A     -0.435644

  @DF-RHF Final Energy:  -422.97516639972787

   => Energetics <=

    Nuclear Repulsion Energy =            452.8736504170173021
    One-Electron Energy =               -1473.3412165301992900
    Two-Electron Energy =                 597.4923997134546880
    DFT Exchange-Correlation Energy =       0.0000000000000000
    Empirical Dispersion Energy =           0.0000000000000000
    PCM Polarization Energy =               0.0000000000000000
    EFP Energy =                            0.0000000000000000
    Total Energy =                       -422.9751663997272999
    Molecular point group: c1
  Basis Set: 6-31G*
  Basis Set:

  -Total Gradient:
     Atom            X                  Y                   Z
    ------   -----------------  -----------------  -----------------
       1       -0.000017015958     0.000007695105    -0.000019455896
       2        0.000026207690     0.000014108808     0.000017957455
       3        0.000007082581     0.000001097004     0.000004345028
       4        0.000034228650    -0.000021845108    -0.000039415468
       5        0.000004326368     0.000001565300    -0.000000850044
       6        0.000000872260    -0.000000838465    -0.000000464743
       7        0.000000890782     0.000001138668    -0.000000181303
       8       -0.000003917190     0.000034183180     0.000108598875
       9       -0.001477857065     0.002418352994    -0.001896376875
      10       -0.000024669203    -0.000006658269    -0.000023150362
      11       -0.000001245808     0.000001929928    -0.000013454997
      12        0.001324237997    -0.002239644614     0.002148257083
      13        0.000990833935    -0.001706730049     0.001193489090
      14       -0.000003345058     0.000001411067    -0.000007228260
      15        0.000011664878     0.000015644475     0.000025192211
      16       -0.000874692612     0.001488770709    -0.001495432020
      17        0.000011476946    -0.000000149996    -0.000003763978
      18       -0.000006719645    -0.000008986964    -0.000003500138
      19        0.000003298885     0.000000273508     0.000003437851
      20        0.000000790270     0.000002464381     0.000007320973
      21        0.000002696312    -0.000000845688    -0.000004012967
      22       -0.000006346004    -0.000006001686    -0.000003971482
      23       -0.000002799007     0.000003065713     0.000002659967

  **** Optimization is complete! (in 7 steps) ****
    Final optimized geometry and variables:
    Molecular point group: c1

    Geometry (in Angstrom), charge = 0, multiplicity = 1:

    O           -2.686926313771     1.129832372697    -0.296908628683
    C           -2.543977818442    -0.050894743463    -0.288247125417
    C           -3.685160310845    -1.034639526396    -0.255645054981
    O           -1.362310725008    -0.645558507651    -0.306105687857
    H           -4.317472689582    -0.862677148959    -1.118464472448
    H           -3.336148779067    -2.056710207579    -0.253882713567
    H           -4.280856885673    -0.847252985033     0.629744068429
    C           -0.208333830656     0.187177674479    -0.337921784125
    C            1.011476538713    -0.714675912823    -0.355644816887
    H           -0.251492507068     0.815848231342    -1.217384109993
    H           -0.214389733772     0.832199577762     0.531237017295
    C            2.328728352055     0.087247547221    -0.314918633187
    H            0.972667159826    -1.352474664393    -1.232505887515
    H            0.956144047049    -1.383236781425     0.498675328909
    C            3.017871465007     0.068129626333     1.051154381172
    H            3.010525226410    -0.285287601775    -1.073945763015
    H            2.134206405511     1.122080966131    -0.593900962416
    C            4.291679421988     0.910448508506     1.087840380266
    H            3.254793849458    -0.959553151941     1.316804810414
    H            2.324857164385     0.426666206058     1.809718175001
    H            5.015388167798     0.557890655586     0.358309222220
    H            4.761225122115     0.869774127185     2.065613331921
    H            4.079941931076     1.952453043273     0.865504503250

  Mulliken Charges: (a.u.)
   Center  Symbol    Alpha    Beta     Spin     Total
       1     O     4.28384  4.28384  0.00000 -0.56767
       2     C     2.61550  2.61550  0.00000  0.76899
       3     C     3.28778  3.28778  0.00000 -0.57555
       4     O     4.31224  4.31224  0.00000 -0.62448
       5     H     0.39747  0.39747  0.00000  0.20507
       6     H     0.39985  0.39985  0.00000  0.20031
       7     H     0.39749  0.39749  0.00000  0.20501
       8     C     2.99916  2.99916  0.00000  0.00168
       9     C     3.16675  3.16675  0.00000 -0.33349
      10     H     0.40995  0.40995  0.00000  0.18011
      11     H     0.41070  0.41070  0.00000  0.17859
      12     C     3.16479  3.16479  0.00000 -0.32957
      13     H     0.41159  0.41159  0.00000  0.17683
      14     H     0.41201  0.41201  0.00000  0.17597
      15     C     3.15254  3.15254  0.00000 -0.30507
      16     H     0.41628  0.41628  0.00000  0.16744
      17     H     0.41976  0.41976  0.00000  0.16049
      18     C     3.24056  3.24056  0.00000 -0.48113
      19     H     0.42062  0.42062  0.00000  0.15875
      20     H     0.42193  0.42193  0.00000  0.15613
      21     H     0.42096  0.42096  0.00000  0.15807
      22     H     0.41781  0.41781  0.00000  0.16438
      23     H     0.42043  0.42043  0.00000  0.15915

   Total alpha = 36.00000, Total beta = 36.00000, Total charge =  0.00000
