  ==> Input File <==

--------------------------------------------------------------------------
set {
	reference rhf
	basis 6-31G*
}

set_num_threads( 1 )
memory 2 gb

molecule MOL {
0 1

H	 -0.462281	 -0.099844	 2.590680
O	 0.343645	 -0.123078	 2.092887
C	 0.283465	 0.841315	 1.082794
C	 -0.793441	 0.596080	 0.058728
H	 1.253869	 0.834089	 0.599609
H	 0.154084	 1.837050	 1.505639
C	 -1.530462	 -0.493172	 -0.025500
H	 -0.941228	 1.398600	 -0.647390
H	 -1.092586	 -1.461565	 -0.186463
H	 -2.602122	 -0.450675	 0.050101

	symmetry c1
}
set optking {
	frozen_dihedral = ("
		5 3 2 1,
		5 3 4 7
	")
}

ee = energy('scf')
oeprop('DIPOLE', 'QUADRUPOLE', 'MULLIKEN_CHARGES')
f=open( 'psi4out.xyz', 'w' )
f.write( "10  " )
f.write( str(ee) + "\n" )
f.write( MOL.save_string_xyz() )
f.close()
--------------------------------------------------------------------------

    Molecular point group: c1

    Geometry (in Angstrom), charge = 0, multiplicity = 1:

       Center              X                  Y                   Z               Mass
    ------------   -----------------  -----------------  -----------------  -----------------
           H         -0.071049187010    -0.296870924477     1.715267021099     1.007825032070
           O          0.734876812990    -0.320104924477     1.217474021099    15.994914619560
           C          0.674696812990     0.644288075523     0.207381021099    12.000000000000
           C         -0.402209187010     0.399053075523    -0.816684978901    12.000000000000
           H          1.645100812990     0.637062075523    -0.275803978901     1.007825032070
           H          0.545315812990     1.640023075523     0.630226021099     1.007825032070
           C         -1.139230187010    -0.690198924477    -0.900912978901    12.000000000000
           H         -0.549996187010     1.201573075523    -1.522802978901     1.007825032070
           H         -0.701354187010    -1.658591924477    -1.061875978901     1.007825032070
           H         -2.210890187010    -0.647701924477    -0.825311978901     1.007825032070

  Charge       = 0
  Multiplicity = 1
  Basis Set: 6-31G*
  Basis Set:

    Orbital Energies (a.u.)
    -----------------------

    Doubly Occupied:

       1A    -20.557059     2A    -11.278766     3A    -11.236807
       4A    -11.218165     5A     -1.366019     6A     -1.059571
       7A     -0.928173     8A     -0.769417     9A     -0.686238
      10A     -0.645445    11A     -0.617639    12A     -0.576054
      13A     -0.556100    14A     -0.504114    15A     -0.448056
      16A     -0.300940

  @DF-RHF Final Energy:  -191.83524901353019

   => Energetics <=

    Nuclear Repulsion Energy =            119.1741252955920203
    One-Electron Energy =                -496.5216047420842642
    Two-Electron Energy =                 185.5122304329621556
    DFT Exchange-Correlation Energy =       0.0000000000000000
    Empirical Dispersion Energy =           0.0000000000000000
    PCM Polarization Energy =               0.0000000000000000
    EFP Energy =                            0.0000000000000000
    Total Energy =                       -191.8352490135300741

  Mulliken Charges: (a.u.)
   Center  Symbol    Alpha    Beta     Spin     Total
       1     H     0.28318  0.28318  0.00000  0.43364
       2     O     4.36334  4.36334  0.00000 -0.72667
       3     C     2.99861  2.99861  0.00000  0.00278
       4     C     3.09574  3.09574  0.00000 -0.19149
       5     H     0.41325  0.41325  0.00000  0.17351
       6     H     0.41954  0.41954  0.00000  0.16092
       7     C     3.20674  3.20674  0.00000 -0.41348
       8     H     0.40764  0.40764  0.00000  0.18473
       9     H     0.40305  0.40305  0.00000  0.19390
      10     H     0.40891  0.40891  0.00000  0.18217

   Total alpha = 16.00000, Total beta = 16.00000, Total charge = -0.00000
