  ==> Input File <==

--------------------------------------------------------------------------
set {
	reference rhf
	basis 6-31G*
}

set_num_threads( 4 )
memory 2 gb

molecule MOL {
0 1

O	 1.399150	 0.826956	 2.593529
C	 1.652138	 -0.020391	 1.799136
C	 1.245376	 -0.013843	 0.345420
O	 2.344760	 -1.112323	 2.098449
C	 0.455112	 1.231400	 -0.050772
H	 2.152689	 -0.123018	 -0.239434
H	 0.667175	 -0.917056	 0.167692
C	 -0.998893	 1.219485	 0.433193
H	 0.482531	 1.345121	 -1.130325
H	 0.957290	 2.103070	 0.354729
C	 -1.883438	 0.145884	 -0.207175
H	 -1.431207	 2.195402	 0.224832
H	 -1.019646	 1.105716	 1.516076
C	 -3.347647	 0.245583	 0.225435
H	 -1.822183	 0.231698	 -1.291012
H	 -1.510341	 -0.844814	 0.042401
C	 -4.239992	 -0.825570	 -0.404234
H	 -3.732888	 1.230466	 -0.033079
H	 -3.408585	 0.170602	 1.310038
C	 -5.701275	 -0.716658	 0.029921
H	 -4.179496	 -0.752714	 -1.488058
H	 -3.859041	 -1.810759	 -0.143352
H	 -6.308102	 -1.488908	 -0.432678
H	 -6.122175	 0.245478	 -0.248167
H	 -5.799072	 -0.820114	 1.106957
C	 2.788010	 -1.245351	 3.436627
H	 3.442710	 -0.428146	 3.703176
H	 3.322421	 -2.181635	 3.478844
H	 1.947562	 -1.262979	 4.115503

	symmetry c1
}
set optking {
	frozen_dihedral = ("
		6 3 5 9
	")
}

ee = optimize('scf')
oeprop('DIPOLE', 'QUADRUPOLE', 'MULLIKEN_CHARGES')
f=open( 'psi4out.xyz', 'w' )
f.write( "29  " )
f.write( str(ee) + "\n" )
f.write( MOL.save_string_xyz() )
f.close()
--------------------------------------------------------------------------

    Molecular point group: c1
  Charge       = 0
  Multiplicity = 1
  Basis Set: 6-31G*
  Basis Set:
  @DF-RHF Final Energy:  -501.04277094734755
    Total Energy =                       -501.0427709473476625
    Molecular point group: c1
  Basis Set: 6-31G*
  Basis Set:
  Basis Set: 6-31G*
  Basis Set:
  @DF-RHF Final Energy:  -501.04286466723033
    Total Energy =                       -501.0428646672307877
  Basis Set: 6-31G*
  Basis Set:
  Basis Set: 6-31G*
  Basis Set:
  @DF-RHF Final Energy:  -501.04304925291149
    Total Energy =                       -501.0430492529108051
  Basis Set: 6-31G*
  Basis Set:
  Basis Set: 6-31G*
  Basis Set:
  @DF-RHF Final Energy:  -501.04312154723596
    Total Energy =                       -501.0431215472362965
  Basis Set: 6-31G*
  Basis Set:
  @DF-RHF Final Energy:  -501.04315503881310
    Total Energy =                       -501.0431550388136657
  @DF-RHF Final Energy:  -501.04317643805075
    Total Energy =                       -501.0431764380504092
  @DF-RHF Final Energy:  -501.04322246964443
    Total Energy =                       -501.0432224696439789
  Basis Set: 6-31G*
  Basis Set:
  @DF-RHF Final Energy:  -501.04325724002319
    Total Energy =                       -501.0432572400241042
  Basis Set: 6-31G*
  Basis Set:
  Basis Set: 6-31G*
  Basis Set:
  @DF-RHF Final Energy:  -501.04325607763712
    Total Energy =                       -501.0432560776375794
  Basis Set: 6-31G*
  Basis Set:
  Basis Set: 6-31G*
  Basis Set:
  @DF-RHF Final Energy:  -501.04326399541674
    Total Energy =                       -501.0432639954174192
  Basis Set: 6-31G*
  Basis Set:
  Charge       = 0
  Multiplicity = 1
  Basis Set: 6-31G*
  Basis Set:

    Orbital Energies (a.u.)
    -----------------------

    Doubly Occupied:

       1A    -20.604383     2A    -20.546116     3A    -11.372861
       4A    -11.281338     5A    -11.234760     6A    -11.219279
       7A    -11.214184     8A    -11.213452     9A    -11.212067
      10A    -11.211859    11A    -11.207587    12A     -1.470064
      13A     -1.363283    14A     -1.095465    15A     -1.065356
      16A     -1.017653    17A     -0.976969    18A     -0.926991
      19A     -0.860580    20A     -0.800660    21A     -0.789158
      22A     -0.762742    23A     -0.698407    24A     -0.682110
      25A     -0.671132    26A     -0.651261    27A     -0.620224
      28A     -0.614860    29A     -0.588536    30A     -0.580065
      31A     -0.564327    32A     -0.547095    33A     -0.537788
      34A     -0.526710    35A     -0.518426    36A     -0.501626
      37A     -0.500338    38A     -0.477291    39A     -0.468911
      40A     -0.461053    41A     -0.457445    42A     -0.455374
      43A     -0.436623    44A     -0.435018

  @DF-RHF Final Energy:  -501.04326391518919

   => Energetics <=

    Nuclear Repulsion Energy =            622.8482668646391858
    One-Electron Energy =               -1916.9002099833760440
    Two-Electron Energy =                 793.0086792035483541
    DFT Exchange-Correlation Energy =       0.0000000000000000
    Empirical Dispersion Energy =           0.0000000000000000
    PCM Polarization Energy =               0.0000000000000000
    EFP Energy =                            0.0000000000000000
    Total Energy =                       -501.0432639151883905
    Molecular point group: c1
  Basis Set: 6-31G*
  Basis Set:

  -Total Gradient:
     Atom            X                  Y                   Z
    ------   -----------------  -----------------  -----------------
       1       -0.000003795166     0.000003483114    -0.000008071212
       2        0.000019946715     0.000008581453    -0.000015462097
       3        0.001319261120     0.001407165184     0.001446879846
       4        0.000003091047    -0.000021454173     0.000017784215
       5       -0.001869440982    -0.001421785567    -0.000436412565
       6       -0.000827539128    -0.000938392272    -0.001113681801
       7       -0.000006801497    -0.000007077970    -0.000003319746
       8        0.000019373090    -0.000033719220     0.000012787940
       9        0.001371335419     0.000981102835     0.000092058054
      10       -0.000003381353     0.000006840769    -0.000006885826
      11       -0.000000203026    -0.000013126517     0.000028279503
      12        0.000003211713    -0.000023408177     0.000005318233
      13       -0.000013885589     0.000008422334     0.000031177655
      14       -0.000007801858     0.000029568784    -0.000032672564
      15       -0.000010283563     0.000002846687     0.000011672346
      16        0.000013199879    -0.000005184758    -0.000007383520
      17       -0.000000371983     0.000011710429    -0.000012608420
      18        0.000001156347     0.000004204342    -0.000017104844
      19       -0.000005694405     0.000016451562    -0.000005558247
      20        0.000005985663    -0.000025162809     0.000025592744
      21       -0.000012876261     0.000013538806     0.000002934673
      22        0.000008037927    -0.000000201709    -0.000017188400
      23        0.000000586426    -0.000006893231     0.000008364514
      24        0.000008366337    -0.000005767310    -0.000007268176
      25       -0.000007647246     0.000005498390     0.000006667320
      26       -0.000011467095     0.000000799480    -0.000004285557
      27        0.000002885402     0.000002395161     0.000000764265
      28        0.000001813849     0.000000025943    -0.000001596359
      29        0.000002938209    -0.000000461562    -0.000000781973

  **** Optimization is complete! (in 11 steps) ****
    Final optimized geometry and variables:
    Molecular point group: c1

    Geometry (in Angstrom), charge = 0, multiplicity = 1:

    O            2.122192116366     0.955427322388     1.586378600449
    C            2.251571777556     0.042392902915     0.835578574447
    C            1.809524274675     0.017434473413    -0.608480732387
    O            2.833803344869    -1.099650616262     1.177757420597
    C            0.982669273052     1.235827222632    -1.023554985246
    H            2.709131296806    -0.060024644232    -1.213486935691
    H            1.278023829806    -0.913325331053    -0.773023580383
    C           -0.471462875853     1.229959709952    -0.537449320969
    H            1.006854145108     1.314569969289    -2.107612123439
    H            1.474990618399     2.123678684123    -0.643223920150
    C           -1.368953711173     0.191112476751    -1.216146386550
    H           -0.890282725619     2.217369283361    -0.716939854108
    H           -0.489807224165     1.087819991469     0.539692038727
    C           -2.822724257590     0.263422327029    -0.744242673238
    H           -1.334080408907     0.336956056345    -2.294781975441
    H           -0.990898995454    -0.812413678349    -1.033076246477
    C           -3.730098664627    -0.769957702141    -1.414261530316
    H           -3.213780752785     1.261356265300    -0.935236750034
    H           -2.857606038832     0.125342161946     0.335122994328
    C           -5.178815212086    -0.694374891001    -0.933307985915
    H           -3.700513239264    -0.629727954601    -2.492799547242
    H           -3.339747504151    -1.768011382447    -1.226109814242
    H           -5.796594726576    -1.439573677307    -1.425005286132
    H           -5.609956042556     0.281149385650    -1.139888557768
    H           -5.245638414415    -0.863771689462     0.137705595837
    C            3.321475806550    -1.201160752977     2.503356189988
    H            4.071192782704    -0.446150133780     2.691462681968
    H            3.754240958626    -2.186123692606     2.583823511328
    H            2.515865392247    -1.086743586528     3.214220432247

  Mulliken Charges: (a.u.)
   Center  Symbol    Alpha    Beta     Spin     Total
       1     O     4.28663  4.28663  0.00000 -0.57327
       2     C     2.60667  2.60667  0.00000  0.78666
       3     C     3.21066  3.21066  0.00000 -0.42133
       4     O     4.30631  4.30631  0.00000 -0.61263
       5     C     3.15831  3.15831  0.00000 -0.31663
       6     H     0.39785  0.39785  0.00000  0.20430
       7     H     0.39892  0.39892  0.00000  0.20216
       8     C     3.15813  3.15813  0.00000 -0.31625
       9     H     0.41966  0.41966  0.00000  0.16068
      10     H     0.40442  0.40442  0.00000  0.19116
      11     C     3.15429  3.15429  0.00000 -0.30857
      12     H     0.41980  0.41980  0.00000  0.16040
      13     H     0.41206  0.41206  0.00000  0.17588
      14     C     3.15019  3.15019  0.00000 -0.30037
      15     H     0.42450  0.42450  0.00000  0.15100
      16     H     0.42550  0.42550  0.00000  0.14900
      17     C     3.15131  3.15131  0.00000 -0.30263
      18     H     0.42347  0.42347  0.00000  0.15306
      19     H     0.42315  0.42315  0.00000  0.15371
      20     C     3.23926  3.23926  0.00000 -0.47852
      21     H     0.42339  0.42339  0.00000  0.15322
      22     H     0.42375  0.42375  0.00000  0.15249
      23     H     0.41967  0.41967  0.00000  0.16065
      24     H     0.42166  0.42166  0.00000  0.15668
      25     H     0.42165  0.42165  0.00000  0.15670
      26     C     3.09233  3.09233  0.00000 -0.18466
      27     H     0.40903  0.40903  0.00000  0.18193
      28     H     0.40839  0.40839  0.00000  0.18322
      29     H     0.40902  0.40902  0.00000  0.18196

   Total alpha = 44.00000, Total beta = 44.00000, Total charge =  0.00000
