  ==> Input File <==

--------------------------------------------------------------------------
set {
	reference rhf
	basis 6-31G*
}

set_num_threads( 4 )
memory 2 gb

molecule MOL {
0 1

H	 -1.630278	 0.069849	 1.367966
C	 -0.928144	 -0.484033	 0.778805
C	 -0.922020	 -1.867295	 0.773667
C	 0.000000	 0.183220	 0.000000
H	 -1.634659	 -2.404452	 1.371642
C	 0.000000	 -2.555744	 0.000000
N	 0.000000	 1.642018	 0.000000
C	 0.928144	 -0.484034	 -0.778805
H	 0.000000	 -3.630640	 0.000000
C	 0.922020	 -1.867295	 -0.773667
O	 1.057097	 2.196749	 0.000000
O	 -1.057097	 2.196749	 0.000000
H	 1.630278	 0.069849	 -1.367966
H	 1.634659	 -2.404452	 -1.371642

	symmetry c1
}
set optking {
	frozen_dihedral = ("
		2 4 7 11
	")
}

ee = optimize('scf')
oeprop('DIPOLE', 'QUADRUPOLE', 'MULLIKEN_CHARGES')
f=open( 'psi4out.xyz', 'w' )
f.write( "14  " )
f.write( str(ee) + "\n" )
f.write( MOL.save_string_xyz() )
f.close()
--------------------------------------------------------------------------

    Molecular point group: c1
  Charge       = 0
  Multiplicity = 1
  Basis Set: 6-31G*
  Basis Set:
  @DF-RHF Final Energy:  -434.17065887607004
    Total Energy =                       -434.1706588760703198
    Molecular point group: c1
  Basis Set: 6-31G*
  Basis Set:
  Basis Set: 6-31G*
  Basis Set:
  @DF-RHF Final Energy:  -434.16448821465809
    Total Energy =                       -434.1644882146581494
  Basis Set: 6-31G*
  Basis Set:
  Basis Set: 6-31G*
  Basis Set:
  @DF-RHF Final Energy:  -434.17090007870189
    Total Energy =                       -434.1709000787013792
  Basis Set: 6-31G*
  Basis Set:
  Basis Set: 6-31G*
  Basis Set:
  @DF-RHF Final Energy:  -434.17108412342498
    Total Energy =                       -434.1710841234249756
  Basis Set: 6-31G*
  Basis Set:
  Charge       = 0
  Multiplicity = 1
  Basis Set: 6-31G*
  Basis Set:

    Orbital Energies (a.u.)
    -----------------------

    Doubly Occupied:

       1A    -20.603430     2A    -20.603068     3A    -15.855323
       4A    -11.305510     5A    -11.271473     6A    -11.271213
       7A    -11.266432     8A    -11.262119     9A    -11.261940
      10A     -1.635201    11A     -1.418983    12A     -1.202430
      13A     -1.095107    14A     -1.053522    15A     -0.957867
      16A     -0.867909    17A     -0.825828    18A     -0.782418
      19A     -0.733321    20A     -0.729192    21A     -0.712080
      22A     -0.651750    23A     -0.649684    24A     -0.624413
      25A     -0.555982    26A     -0.540327    27A     -0.530848
      28A     -0.490491    29A     -0.487398    30A     -0.450751
      31A     -0.371459    32A     -0.366213

  @DF-RHF Final Energy:  -434.17108464780301

   => Energetics <=

    Nuclear Repulsion Energy =            417.0287565773475080
    One-Electron Energy =               -1417.5323170135013697
    Two-Electron Energy =                 566.3324757883505072
    DFT Exchange-Correlation Energy =       0.0000000000000000
    Empirical Dispersion Energy =           0.0000000000000000
    PCM Polarization Energy =               0.0000000000000000
    EFP Energy =                            0.0000000000000000
    Total Energy =                       -434.1710846478033545
    Molecular point group: c1
  Basis Set: 6-31G*
  Basis Set:

  -Total Gradient:
     Atom            X                  Y                   Z
    ------   -----------------  -----------------  -----------------
       1        0.000010843725    -0.000011068633    -0.000003407873
       2        0.002878059780    -0.000136840334     0.003327288110
       3        0.000035078089     0.000035532122     0.000073199871
       4       -0.004114279591     0.000163824830    -0.002935738140
       5       -0.000000993124     0.000000876780    -0.000001531385
       6       -0.000050869662     0.000002017027    -0.000118484704
       7        0.001109938375     0.000210400442    -0.005459064851
       8       -0.000025038273     0.000038099285     0.000013931473
       9        0.000008803727     0.000001145546     0.000019131207
      10        0.000017716831    -0.000021665634     0.000053789449
      11        0.000210987939    -0.000222453156     0.005069433873
      12       -0.000077476040    -0.000071815258    -0.000024491038
      13       -0.000007155493     0.000000694903    -0.000015208040
      14        0.000004383718     0.000011252081     0.000001152046

  **** Optimization is complete! (in 5 steps) ****
    Final optimized geometry and variables:
    Molecular point group: c1

    Geometry (in Angstrom), charge = 0, multiplicity = 1:

    H           -1.652771963687     0.079248757749     1.334218770242
    C           -0.941183857611    -0.477701958430     0.757105504503
    C           -0.919027818905    -1.861460566652     0.773413395950
    C           -0.021466897477     0.183226705037    -0.032929789882
    H           -1.620351751645    -2.397477384507     1.385589988947
    C            0.003928725506    -2.550892119674     0.001995119288
    N            0.000263759545     1.639313051751    -0.004680001183
    C            0.928270874170    -0.480446652250    -0.784780369838
    H            0.011545942079    -3.625641856659     0.012885206216
    C            0.922468463968    -1.863904058630    -0.777762435873
    O            1.067882501101     2.172868441523    -0.020521818905
    O           -1.049233833766     2.203200341005     0.071547590678
    H            1.644953511811     0.074728514010    -1.357414324348
    H            1.638601129697    -2.402258773863    -1.370433115063

  Mulliken Charges: (a.u.)
   Center  Symbol    Alpha    Beta     Spin     Total
       1     H     0.36931  0.36931  0.00000  0.26137
       2     C     3.08616  3.08616  0.00000 -0.17231
       3     C     3.10713  3.10713  0.00000 -0.21426
       4     C     2.90991  2.90991  0.00000  0.18017
       5     H     0.38846  0.38846  0.00000  0.22308
       6     C     3.08846  3.08846  0.00000 -0.17693
       7     N     3.25349  3.25349  0.00000  0.49303
       8     C     3.08515  3.08515  0.00000 -0.17030
       9     H     0.38932  0.38932  0.00000  0.22136
      10     C     3.10749  3.10749  0.00000 -0.21499
      11     O     4.22837  4.22837  0.00000 -0.45673
      12     O     4.22811  4.22811  0.00000 -0.45622
      13     H     0.37020  0.37020  0.00000  0.25961
      14     H     0.38844  0.38844  0.00000  0.22312

   Total alpha = 32.00000, Total beta = 32.00000, Total charge = -0.00000
