  ==> Input File <==

--------------------------------------------------------------------------
set {
	reference rhf
	basis 6-31G*
}

set_num_threads( 4 )
memory 2 gb

molecule MOL {
0 1

H	 -0.727879	 0.069849	 1.999832
C	 -0.414394	 -0.484033	 1.138537
C	 -0.411660	 -1.867295	 1.131025
C	 0.000000	 0.183220	 0.000000
H	 -0.729835	 -2.404452	 2.005206
C	 0.000000	 -2.555744	 0.000000
N	 0.000000	 1.642018	 0.000000
C	 0.414394	 -0.484034	 -1.138537
H	 0.000000	 -3.630640	 0.000000
C	 0.411660	 -1.867295	 -1.131025
O	 1.057097	 2.196749	 0.000000
O	 -1.057097	 2.196749	 0.000000
H	 0.727879	 0.069849	 -1.999832
H	 0.729835	 -2.404452	 -2.005206

	symmetry c1
}
set optking {
	frozen_dihedral = ("
		2 4 7 11
	")
}

ee = optimize('scf')
oeprop('DIPOLE', 'QUADRUPOLE', 'MULLIKEN_CHARGES')
f=open( 'psi4out.xyz', 'w' )
f.write( "14  " )
f.write( str(ee) + "\n" )
f.write( MOL.save_string_xyz() )
f.close()
--------------------------------------------------------------------------

    Molecular point group: c1
  Charge       = 0
  Multiplicity = 1
  Basis Set: 6-31G*
  Basis Set:
  @DF-RHF Final Energy:  -434.16403104571083
    Total Energy =                       -434.1640310457107717
    Molecular point group: c1
  Basis Set: 6-31G*
  Basis Set:
  Basis Set: 6-31G*
  Basis Set:
  @DF-RHF Final Energy:  -434.15863907312365
    Total Energy =                       -434.1586390731238225
  Basis Set: 6-31G*
  Basis Set:
  Basis Set: 6-31G*
  Basis Set:
  @DF-RHF Final Energy:  -434.16435774584136
    Total Energy =                       -434.1643577458411301
  Basis Set: 6-31G*
  Basis Set:
  Basis Set: 6-31G*
  Basis Set:
  @DF-RHF Final Energy:  -434.16458499729515
    Total Energy =                       -434.1645849972949236
  Basis Set: 6-31G*
  Basis Set:
  Basis Set: 6-31G*
  Basis Set:
  @DF-RHF Final Energy:  -434.16458727492812
    Total Energy =                       -434.1645872749280670
  Basis Set: 6-31G*
  Basis Set:
  Charge       = 0
  Multiplicity = 1
  Basis Set: 6-31G*
  Basis Set:

    Orbital Energies (a.u.)
    -----------------------

    Doubly Occupied:

       1A    -20.606498     2A    -20.606304     3A    -15.855639
       4A    -11.308754     5A    -11.271244     6A    -11.271032
       7A    -11.263917     8A    -11.263262     9A    -11.262117
      10A     -1.637815    11A     -1.421761    12A     -1.203143
      13A     -1.094977    14A     -1.054214    15A     -0.957357
      16A     -0.871499    17A     -0.827159    18A     -0.781103
      19A     -0.733829    20A     -0.730769    21A     -0.715221
      22A     -0.648997    23A     -0.647918    24A     -0.624040
      25A     -0.558864    26A     -0.546201    27A     -0.531957
      28A     -0.494246    29A     -0.483706    30A     -0.451912
      31A     -0.368493    32A     -0.366644

  @DF-RHF Final Energy:  -434.16458766024243

   => Energetics <=

    Nuclear Repulsion Energy =            416.4016738973070915
    One-Electron Energy =               -1416.2113413710274017
    Two-Electron Energy =                 565.6450798134781053
    DFT Exchange-Correlation Energy =       0.0000000000000000
    Empirical Dispersion Energy =           0.0000000000000000
    PCM Polarization Energy =               0.0000000000000000
    EFP Energy =                            0.0000000000000000
    Total Energy =                       -434.1645876602422049
    Molecular point group: c1
  Basis Set: 6-31G*
  Basis Set:

  -Total Gradient:
     Atom            X                  Y                   Z
    ------   -----------------  -----------------  -----------------
       1       -0.000004250070     0.000012306257     0.000015447975
       2        0.004728513205    -0.000125513593     0.001511147132
       3        0.000037031569     0.000002546243    -0.000008177325
       4       -0.006682054227     0.000157099455    -0.000047147832
       5       -0.000002802828     0.000002218248    -0.000004855966
       6       -0.000000408511    -0.000001603421    -0.000000892124
       7        0.001845789625     0.000020134370    -0.007287913610
       8       -0.000071738445     0.000000884986     0.000017936431
       9        0.000000123872    -0.000002412228     0.000000351302
      10       -0.000033829129     0.000006691886     0.000004730168
      11        0.000192498784    -0.000077496200     0.005805024486
      12       -0.000017470613    -0.000009935761     0.000005044523
      13        0.000005138078     0.000012983923    -0.000015414226
      14        0.000003458686     0.000002095837     0.000004719064

  **** Optimization is complete! (in 6 steps) ****
    Final optimized geometry and variables:
    Molecular point group: c1

    Geometry (in Angstrom), charge = 0, multiplicity = 1:

    H           -0.763590045936     0.081363502301     1.980332175650
    C           -0.434535962505    -0.474596885535     1.122841338079
    C           -0.408124655918    -1.859079818806     1.126921734902
    C           -0.036241050078     0.181445414637    -0.022399416307
    H           -0.711419464060    -2.393306966140     2.008227053728
    C            0.006687164039    -2.551087159014    -0.000258970600
    N            0.000901445321     1.641730495468    -0.006555598370
    C            0.412440670659    -0.480134542660    -1.145654932082
    H            0.018820699287    -3.625673555817     0.006848674972
    C            0.412576959634    -1.864632283588    -1.134264526182
    O            1.075082338914     2.158514242004    -0.031834530109
    O           -1.042513518235     2.212972532111     0.077935723758
    H            0.748906285311     0.071816220621    -2.002903167109
    H            0.739831804703    -2.403301249109    -2.004221910862

  Mulliken Charges: (a.u.)
   Center  Symbol    Alpha    Beta     Spin     Total
       1     H     0.37502  0.37502  0.00000  0.24996
       2     C     3.08704  3.08704  0.00000 -0.17408
       3     C     3.10389  3.10389  0.00000 -0.20778
       4     C     2.89930  2.89930  0.00000  0.20140
       5     H     0.38854  0.38854  0.00000  0.22293
       6     C     3.09249  3.09249  0.00000 -0.18498
       7     N     3.25782  3.25782  0.00000  0.48436
       8     C     3.08805  3.08805  0.00000 -0.17611
       9     H     0.39002  0.39002  0.00000  0.21996
      10     C     3.10408  3.10408  0.00000 -0.20815
      11     O     4.22504  4.22504  0.00000 -0.45008
      12     O     4.22415  4.22415  0.00000 -0.44830
      13     H     0.37602  0.37602  0.00000  0.24796
      14     H     0.38855  0.38855  0.00000  0.22291

   Total alpha = 32.00000, Total beta = 32.00000, Total charge =  0.00000
