  ==> Input File <==

--------------------------------------------------------------------------
set {
	reference rhf
	basis 6-31G*
}

set_num_threads( 4 )
memory 2 gb

molecule MOL {
0 1

H	 -2.722712	 -3.197562	 -0.385118
O	 -2.611307	 -2.260636	 -0.460365
C	 -1.320939	 -1.902911	 -0.036604
C	 -1.177863	 -0.397191	 -0.171080
H	 -1.161047	 -2.201747	 0.998499
H	 -0.566361	 -2.404526	 -0.641033
C	 0.198102	 0.111031	 0.262842
H	 -1.955753	 0.074552	 0.423121
H	 -1.368404	 -0.126735	 -1.205983
C	 1.331804	 -0.827780	 -0.158768
H	 0.361943	 1.100838	 -0.156218
H	 0.217265	 0.229072	 1.345532
C	 2.723619	 -0.410569	 0.329459
H	 1.342964	 -0.912588	 -1.244120
H	 1.116806	 -1.824343	 0.220779
C	 3.243875	 0.895854	 -0.272975
H	 3.424222	 -1.207124	 0.091250
H	 2.714788	 -0.329854	 1.414619
H	 3.251977	 0.848779	 -1.358681
H	 2.637085	 1.747371	 0.016682
H	 4.259473	 1.094070	 0.055697

	symmetry c1
}
set optking {
	frozen_dihedral = ("
		8 4 7 10
	")
}

ee = optimize('scf')
oeprop('DIPOLE', 'QUADRUPOLE', 'MULLIKEN_CHARGES')
f=open( 'psi4out.xyz', 'w' )
f.write( "21  " )
f.write( str(ee) + "\n" )
f.write( MOL.save_string_xyz() )
f.close()
--------------------------------------------------------------------------

    Molecular point group: c1
  Charge       = 0
  Multiplicity = 1
  Basis Set: 6-31G*
  Basis Set:
  @DF-RHF Final Energy:  -310.20566831477009
    Total Energy =                       -310.2056683147701506
    Molecular point group: c1
  Basis Set: 6-31G*
  Basis Set:
  Basis Set: 6-31G*
  Basis Set:
  @DF-RHF Final Energy:  -310.20644061054276
    Total Energy =                       -310.2064406105430407
  Basis Set: 6-31G*
  Basis Set:
  Basis Set: 6-31G*
  Basis Set:
  @DF-RHF Final Energy:  -310.20834075031911
    Total Energy =                       -310.2083407503190529
  Basis Set: 6-31G*
  Basis Set:
  Basis Set: 6-31G*
  Basis Set:
  @DF-RHF Final Energy:  -310.20855972826052
    Total Energy =                       -310.2085597282603544
  Basis Set: 6-31G*
  Basis Set:
  Basis Set: 6-31G*
  Basis Set:
  @DF-RHF Final Energy:  -310.20856598035112
    Total Energy =                       -310.2085659803511248
  Basis Set: 6-31G*
  Basis Set:
  Basis Set: 6-31G*
  Basis Set:
  @DF-RHF Final Energy:  -310.20861659230656
    Total Energy =                       -310.2086165923066687
  Basis Set: 6-31G*
  Basis Set:
  Basis Set: 6-31G*
  Basis Set:
  @DF-RHF Final Energy:  -310.20862484673546
    Total Energy =                       -310.2086248467354608
  Basis Set: 6-31G*
  Basis Set:
  Charge       = 0
  Multiplicity = 1
  Basis Set: 6-31G*
  Basis Set:

    Orbital Energies (a.u.)
    -----------------------

    Doubly Occupied:

       1A    -20.551301     2A    -11.266151     3A    -11.216877
       4A    -11.216148     5A    -11.215562     6A    -11.210899
       7A    -11.208881     8A     -1.358038     9A     -1.086326
      10A     -1.031328    11A     -0.950871    12A     -0.885545
      13A     -0.813445    14A     -0.767165    15A     -0.695253
      16A     -0.654919    17A     -0.626790    18A     -0.609495
      19A     -0.578849    20A     -0.572729    21A     -0.534925
      22A     -0.529858    23A     -0.514036    24A     -0.484329
      25A     -0.483506    26A     -0.460109    27A     -0.451227
      28A     -0.442910    29A     -0.431979

  @DF-RHF Final Energy:  -310.20862583570766

   => Energetics <=

    Nuclear Repulsion Energy =            316.5562408648144697
    One-Electron Energy =               -1047.8308344430583929
    Two-Electron Energy =                 421.0659677425359746
    DFT Exchange-Correlation Energy =       0.0000000000000000
    Empirical Dispersion Energy =           0.0000000000000000
    PCM Polarization Energy =               0.0000000000000000
    EFP Energy =                            0.0000000000000000
    Total Energy =                       -310.2086258357078918
    Molecular point group: c1
  Basis Set: 6-31G*
  Basis Set:

  -Total Gradient:
     Atom            X                  Y                   Z
    ------   -----------------  -----------------  -----------------
       1       -0.000032743363    -0.000011683716    -0.000006766183
       2       -0.000027926111    -0.000050654583     0.000002337206
       3        0.000001317691     0.000077892159    -0.000053400866
       4       -0.000378357546     0.003942321558    -0.002499840523
       5        0.000010822515     0.000018489537    -0.000009040698
       6        0.000001253553    -0.000000062964     0.000012779088
       7        0.000715068892     0.002052741434    -0.003787897224
       8        0.000150779908    -0.003964122147     0.003181235709
       9        0.000001868082    -0.000046788924     0.000004189667
      10       -0.000469742020    -0.002010638714     0.003145111444
      11        0.000030828367     0.000031271997     0.000007241505
      12        0.000019000630    -0.000017723072    -0.000016163335
      13        0.000022089626    -0.000005968347    -0.000007406676
      14       -0.000008084414     0.000012792364     0.000003973436
      15       -0.000003348856    -0.000021657592     0.000005785124
      16       -0.000015479755    -0.000008824338    -0.000001225818
      17        0.000008228716    -0.000011657879     0.000022196281
      18       -0.000013444472     0.000010258891     0.000000646889
      19       -0.000006580156     0.000010036021    -0.000010202880
      20       -0.000001778759     0.000013015195     0.000008717708
      21       -0.000003772525    -0.000019036879    -0.000002269854

  **** Optimization is complete! (in 8 steps) ****
    Final optimized geometry and variables:
    Molecular point group: c1

    Geometry (in Angstrom), charge = 0, multiplicity = 1:

    H           -3.217930613167    -2.366391601956    -0.332519898589
    O           -3.034707892353    -1.437865025149    -0.346480356062
    C           -1.685082430250    -1.218320031884    -0.021099147456
    C           -1.433845288417     0.280292390878    -0.108874848551
    H           -1.472496984945    -1.575117889413     0.986459250083
    H           -1.039601991568    -1.763384448759    -0.704912697616
    C           -0.051246907864     0.736827347460     0.386482708282
    H           -2.199189652071     0.741969794315     0.507143592968
    H           -1.601470016415     0.594510772272    -1.134446487449
    C            1.129102055081    -0.150496492457    -0.026506878346
    H            0.109491190055     1.754886244709     0.047165456260
    H           -0.067618788772     0.782452501761     1.474390762427
    C            2.494819199307     0.372220175821     0.436525643379
    H            1.142498455030    -0.269512816676    -1.109440673040
    H            0.991152955791    -1.145294106062     0.387810878338
    C            2.953811538886     1.657577113633    -0.254523959641
    H            3.237421633364    -0.401474846879     0.257410194478
    H            2.473610776844     0.527530785198     1.513418995468
    H            2.977692826715     1.532450997652    -1.333715163432
    H            2.302175219613     2.496001861241    -0.033033432237
    H            3.954070153272     1.930478926027     0.067508605714

  Mulliken Charges: (a.u.)
   Center  Symbol    Alpha    Beta     Spin     Total
       1     H     0.28134  0.28134  0.00000  0.43732
       2     O     4.37275  4.37275  0.00000 -0.74551
       3     C     2.99417  2.99417  0.00000  0.01166
       4     C     3.15917  3.15917  0.00000 -0.31834
       5     H     0.43330  0.43330  0.00000  0.13340
       6     H     0.43012  0.43012  0.00000  0.13976
       7     C     3.16137  3.16137  0.00000 -0.32273
       8     H     0.41163  0.41163  0.00000  0.17674
       9     H     0.41520  0.41520  0.00000  0.16960
      10     C     3.15815  3.15815  0.00000 -0.31629
      11     H     0.41661  0.41661  0.00000  0.16679
      12     H     0.42313  0.42313  0.00000  0.15374
      13     C     3.15220  3.15220  0.00000 -0.30441
      14     H     0.42344  0.42344  0.00000  0.15312
      15     H     0.42169  0.42169  0.00000  0.15662
      16     C     3.24113  3.24113  0.00000 -0.48226
      17     H     0.42089  0.42089  0.00000  0.15821
      18     H     0.42308  0.42308  0.00000  0.15384
      19     H     0.42188  0.42188  0.00000  0.15624
      20     H     0.41973  0.41973  0.00000  0.16054
      21     H     0.41901  0.41901  0.00000  0.16198

   Total alpha = 29.00000, Total beta = 29.00000, Total charge =  0.00000
