                              Psi4 1.0.54 Driver

  ==> Input File <==

--------------------------------------------------------------------------
set {
	reference rhf
	basis cc-pvtz
}

set_num_threads( 4 )
memory 2 gb

molecule MOL {
0 1

H	 -3.144994	 -1.202467	 -0.018751
O	 -2.321472	 -0.864941	 -0.318626
C	 -2.021813	 0.336996	 0.342658
C	 -0.669613	 0.837286	 -0.127252
H	 -2.780861	 1.084746	 0.127159
H	 -2.006390	 0.184138	 1.420053
C	 0.490865	 -0.082543	 0.241244
H	 -0.708709	 0.967192	 -1.204587
H	 -0.507562	 1.822272	 0.303070
C	 1.839800	 0.429565	 -0.255472
H	 0.305636	 -1.070211	 -0.165276
H	 0.527397	 -0.195943	 1.322876
C	 1.725533	 1.698273	 -1.093987
H	 2.486306	 0.619451	 0.596981
H	 2.328185	 -0.345463	 -0.840708
H	 1.272736	 2.502968	 -0.524464
H	 2.699049	 2.037355	 -1.429540
H	 1.112145	 1.532282	 -1.973560

	symmetry c1
}
set optking {
	frozen_dihedral = ("
		14 10 7 11
	")
}

ee,wfn = optimize('scf', return_wfn=True)
oeprop( wfn, 'DIPOLE', 'QUADRUPOLE', 'MULLIKEN_CHARGES')
f=open( 'psi4out.xyz', 'w' )
f.write( "18  " )
f.write( str(ee) + "\n" )
f.write( MOL.save_string_xyz() )
f.close()
--------------------------------------------------------------------------

    Molecular point group: c1
  Charge       = 0
  Multiplicity = 1
  Basis Set: CC-PVTZ
  Basis Set:
  @DF-RHF Final Energy:  -271.27217973790516
    Total Energy =                       -271.2721797379050486
    Molecular point group: c1
  Basis Set: CC-PVTZ
  Basis Set:
  Basis Set: CC-PVTZ
  Basis Set:
  @DF-RHF Final Energy:  -271.27033178297063
    Total Energy =                       -271.2703317829704588
  Basis Set: CC-PVTZ
  Basis Set:
  Basis Set: CC-PVTZ
  Basis Set:
  @DF-RHF Final Energy:  -271.27628440220576
    Total Energy =                       -271.2762844022061586
  Basis Set: CC-PVTZ
  Basis Set:
  Basis Set: CC-PVTZ
  Basis Set:
  @DF-RHF Final Energy:  -271.27679763289018
    Total Energy =                       -271.2767976328900659
  Basis Set: CC-PVTZ
  Basis Set:
  Basis Set: CC-PVTZ
  Basis Set:
  @DF-RHF Final Energy:  -271.27686254249966
    Total Energy =                       -271.2768625424997140
  Basis Set: CC-PVTZ
  Basis Set:
  Basis Set: CC-PVTZ
  Basis Set:
  @DF-RHF Final Energy:  -271.27687024103057
    Total Energy =                       -271.2768702410304513
  Basis Set: CC-PVTZ
  Basis Set:
  Charge       = 0
  Multiplicity = 1
  Basis Set: CC-PVTZ
  Basis Set:

    Orbital Energies (a.u.)
    -----------------------

    Doubly Occupied:

       1A    -20.546024     2A    -11.265643     3A    -11.209996
       4A    -11.209585     5A    -11.205130     6A    -11.203165
       7A     -1.363913     8A     -1.072163     9A     -1.006399
      10A     -0.916153    11A     -0.834886    12A     -0.765498
      13A     -0.708117    14A     -0.640450    15A     -0.621902
      16A     -0.601476    17A     -0.561078    18A     -0.551790
      19A     -0.530177    20A     -0.511036    21A     -0.491372
      22A     -0.465762    23A     -0.450838    24A     -0.442346
      25A     -0.429914

  @DF-RHF Final Energy:  -271.27687018752329

   => Energetics <=

    Nuclear Repulsion Energy =            252.1156444718059220
    One-Electron Energy =                -867.5754002691570577
    Two-Electron Energy =                 344.1828856098277925
    DFT Exchange-Correlation Energy =       0.0000000000000000
    Empirical Dispersion Energy =           0.0000000000000000
    PCM Polarization Energy =               0.0000000000000000
    EFP Energy =                            0.0000000000000000
    Total Energy =                       -271.2768701875233432
    Molecular point group: c1
  Basis Set: CC-PVTZ
  Basis Set:

  -Total Gradient:
     Atom            X                  Y                   Z
    ------   -----------------  -----------------  -----------------
       1        0.000002688505     0.000000149492     0.000003840798
       2        0.000047350148    -0.000025875235     0.000013739940
       3       -0.000041588236     0.000029617939    -0.000074013244
       4        0.000007207602     0.000019935315     0.000110687252
       5       -0.000007037918     0.000016863685     0.000007869630
       6        0.000016405787     0.000001231071    -0.000016984831
       7       -0.001012419917     0.000647692034    -0.002348287480
       8        0.000023885092     0.000008496039    -0.000024155776
       9       -0.000025009463    -0.000023173527     0.000013718638
      10       -0.000663528153     0.002451377186     0.000473594268
      11        0.000945686015    -0.000961728309     0.001901802389
      12       -0.000003376900     0.000007562539    -0.000012371055
      13       -0.000005673654     0.000022648129     0.000019483399
      14        0.000710031928    -0.002185396868    -0.000027283614
      15        0.000010020679     0.000003332763    -0.000003070167
      16        0.000034491221    -0.000004768401    -0.000014520220
      17        0.000005339489    -0.000001090593    -0.000016438791
      18       -0.000044472233    -0.000006873260    -0.000007611133

  **** Optimization is complete! (in 7 steps) ****
    Final optimized geometry and variables:
    Molecular point group: c1

    Geometry (in Angstrom), charge = 0, multiplicity = 1:

    H           -2.934394097537    -1.623096835149     0.221934362350
    O           -2.129598908394    -1.254338751447    -0.091419796428
    C           -1.849445187081    -0.057697368793     0.587886926483
    C           -0.527332126532     0.498112640835     0.092827054509
    H           -2.637123374676     0.669719848798     0.408417109261
    H           -1.800473244176    -0.232645190228     1.660850090565
    C            0.659462456467    -0.403028190009     0.431813944856
    H           -0.605512775512     0.644037173751    -0.978295030971
    H           -0.395446468800     1.479711198062     0.537836016921
    C            2.061039386195     0.069398223724    -0.038197265001
    H            0.465277084290    -1.392627602284     0.040427169730
    H            0.684128838496    -0.523717069644     1.511250597891
    C            2.121426307522     1.286340012375    -0.959927476106
    H            2.679502018326     0.260544826433     0.832261886847
    H            2.544383820505    -0.756819653445    -0.548714528775
    H            1.711936281424     2.174329462247    -0.493364698864
    H            3.151989901803     1.501250381943    -1.219149596978
    H            1.581883413415     1.118875198264    -1.884733988528

  Mulliken Charges: (a.u.)
   Center  Symbol    Alpha    Beta     Spin     Total
       1     H     0.39558  0.39558  0.00000  0.20884
       2     O     4.19888  4.19888  0.00000 -0.39776
       3     C     2.97523  2.97523  0.00000  0.04954
       4     C     3.09167  3.09167  0.00000 -0.18334
       5     H     0.46486  0.46486  0.00000  0.07027
       6     H     0.47337  0.47337  0.00000  0.05326
       7     C     3.09847  3.09847  0.00000 -0.19693
       8     H     0.44995  0.44995  0.00000  0.10011
       9     H     0.45304  0.45304  0.00000  0.09392
      10     C     3.08762  3.08762  0.00000 -0.17524
      11     H     0.44172  0.44172  0.00000  0.11655
      12     H     0.45660  0.45660  0.00000  0.08680
      13     C     3.15684  3.15684  0.00000 -0.31367
      14     H     0.45269  0.45269  0.00000  0.09463
      15     H     0.45168  0.45168  0.00000  0.09665
      16     H     0.45443  0.45443  0.00000  0.09114
      17     H     0.44526  0.44526  0.00000  0.10949
      18     H     0.45213  0.45213  0.00000  0.09574

   Total alpha = 25.00000, Total beta = 25.00000, Total charge = -0.00000

*** Psi4 exiting successfully. Buy a developer a beer!
