                              Psi4 1.0.54 Driver

  ==> Input File <==

--------------------------------------------------------------------------
set {
	reference rhf
	basis cc-pvtz
}

set_num_threads( 4 )
memory 2 gb

molecule MOL {
0 1

O	 0.162691	 0.833379	 -0.927335
C	 0.485107	 0.171416	 -0.000134
C	 1.606966	 -0.836201	 0.000174
O	 -0.108697	 0.231348	 1.179014
C	 2.988788	 -0.202529	 -0.000115
H	 1.465110	 -1.474645	 -0.864821
H	 1.465209	 -1.474077	 0.865596
H	 3.131767	 0.419673	 -0.873407
H	 3.750876	 -0.972315	 0.000098
H	 3.131883	 0.420264	 0.872742
C	 -1.189280	 1.140931	 1.331615
C	 -1.695271	 1.022920	 2.750253
H	 -1.959852	 0.897250	 0.613851
H	 -0.841725	 2.141475	 1.116113
H	 -2.039531	 0.016906	 2.954685
H	 -2.523005	 1.705798	 2.901136
H	 -0.915081	 1.268273	 3.459814

	symmetry c1
}
set optking {
	frozen_dihedral = ("
		4 2 3 6
	")
}

ee,wfn = optimize('scf', return_wfn=True)
oeprop( wfn, 'DIPOLE', 'QUADRUPOLE', 'MULLIKEN_CHARGES')
f=open( 'psi4out.xyz', 'w' )
f.write( "17  " )
f.write( str(ee) + "\n" )
f.write( MOL.save_string_xyz() )
f.close()
--------------------------------------------------------------------------

    Molecular point group: c1
  Charge       = 0
  Multiplicity = 1
  Basis Set: CC-PVTZ
  Basis Set:
  @DF-RHF Final Energy:  -345.03811139324074
    Total Energy =                       -345.0381113932409676
    Molecular point group: c1
  Basis Set: CC-PVTZ
  Basis Set:
  Basis Set: CC-PVTZ
  Basis Set:
  @DF-RHF Final Energy:  -345.03876994742313
    Total Energy =                       -345.0387699474229066
  Basis Set: CC-PVTZ
  Basis Set:
  Basis Set: CC-PVTZ
  Basis Set:
  @DF-RHF Final Energy:  -345.03866130138204
    Total Energy =                       -345.0386613013819215
  Basis Set: CC-PVTZ
  Basis Set:
  Basis Set: CC-PVTZ
  Basis Set:
  @DF-RHF Final Energy:  -345.03885401020074
    Total Energy =                       -345.0388540102006800
  Basis Set: CC-PVTZ
  Basis Set:
  Basis Set: CC-PVTZ
  Basis Set:
  @DF-RHF Final Energy:  -345.03886293844954
    Total Energy =                       -345.0388629384493697
  Basis Set: CC-PVTZ
  Basis Set:
  Charge       = 0
  Multiplicity = 1
  Basis Set: CC-PVTZ
  Basis Set:

    Orbital Energies (a.u.)
    -----------------------

    Doubly Occupied:

       1A    -20.595841     2A    -20.529900     3A    -11.362896
       4A    -11.282663     5A    -11.234356     6A    -11.222440
       7A    -11.220642     8A     -1.470756     9A     -1.363521
      10A     -1.071752    11A     -1.033068    12A     -0.909974
      13A     -0.852582    14A     -0.778693    15A     -0.696741
      16A     -0.687728    17A     -0.669636    18A     -0.618671
      19A     -0.599238    20A     -0.576347    21A     -0.555413
      22A     -0.535798    23A     -0.526717    24A     -0.510748
      25A     -0.502285    26A     -0.495625    27A     -0.454978
      28A     -0.435689

  @DF-RHF Final Energy:  -345.03886386600067

   => Energetics <=

    Nuclear Repulsion Energy =            316.0823822140111474
    One-Electron Energy =               -1096.6530956107440034
    Two-Electron Energy =                 435.5318495307323587
    DFT Exchange-Correlation Energy =       0.0000000000000000
    Empirical Dispersion Energy =           0.0000000000000000
    PCM Polarization Energy =               0.0000000000000000
    EFP Energy =                            0.0000000000000000
    Total Energy =                       -345.0388638660004403
    Molecular point group: c1
  Basis Set: CC-PVTZ
  Basis Set:

  -Total Gradient:
     Atom            X                  Y                   Z
    ------   -----------------  -----------------  -----------------
       1       -0.000029563295     0.000032553568     0.000024596540
       2        0.000041659727    -0.000029491077    -0.000012686261
       3        0.000051032399     0.000032616368     0.000026624176
       4        0.000027153966     0.000063543843    -0.000004897528
       5       -0.000012022302    -0.000028842607    -0.000015471723
       6        0.000010923154     0.000009236296     0.000021110549
       7       -0.000003031460    -0.000038139371     0.000005556279
       8        0.000009321582     0.000009035909    -0.000013541526
       9       -0.000032830714     0.000009795727    -0.000000037888
      10       -0.000022799921    -0.000013316854    -0.000001309683
      11       -0.000114129256    -0.000096411947    -0.000074670932
      12        0.000024049938     0.000013026948     0.000022520710
      13        0.000000853755     0.000035104152     0.000023746553
      14        0.000038800682     0.000003993650    -0.000004840601
      15        0.000000555330     0.000001437859    -0.000005608397
      16        0.000011003041    -0.000002725923    -0.000007428680
      17       -0.000000976624    -0.000001416541     0.000016338411

  **** Optimization is complete! (in 6 steps) ****
    Final optimized geometry and variables:
    Molecular point group: c1

    Geometry (in Angstrom), charge = 0, multiplicity = 1:

    O           -0.034994957949     0.516764043289    -1.520658691063
    C            0.192055760075    -0.191949845593    -0.598440594142
    C            1.270416950201    -1.247045416539    -0.595173027509
    O           -0.463457401322    -0.128592097834     0.545664662418
    C            2.661326350041    -0.610749320563    -0.606756523786
    H            1.133674790275    -1.841119359875    -1.489732165564
    H            1.149290613633    -1.888610635069     0.265449788676
    H            2.780956816838     0.030375562460    -1.469542377859
    H            3.422801477472    -1.379398879142    -0.641806708556
    H            2.826448908374    -0.017393536409     0.285086450405
    C           -1.490103659700     0.846836724310     0.666315004841
    C           -2.080081703131     0.726993940733     2.051979773995
    H           -2.233210044948     0.672583663966    -0.098801079885
    H           -1.066251995984     1.826715212357     0.497935476084
    H           -2.500350564159    -0.258497647216     2.208611326720
    H           -2.868350255504     1.459735404055     2.177970871826
    H           -1.325992539309     0.901665236723     2.809119834053

  Mulliken Charges: (a.u.)
   Center  Symbol    Alpha    Beta     Spin     Total
       1     O     4.20523  4.20523  0.00000 -0.41046
       2     C     2.80768  2.80768  0.00000  0.38464
       3     C     3.08423  3.08423  0.00000 -0.16845
       4     O     4.15008  4.15008  0.00000 -0.30015
       5     C     3.14743  3.14743  0.00000 -0.29485
       6     H     0.44370  0.44370  0.00000  0.11259
       7     H     0.44177  0.44177  0.00000  0.11647
       8     H     0.44260  0.44260  0.00000  0.11479
       9     H     0.44878  0.44878  0.00000  0.10244
      10     H     0.45273  0.45273  0.00000  0.09454
      11     C     2.97803  2.97803  0.00000  0.04395
      12     C     3.13318  3.13318  0.00000 -0.26636
      13     H     0.45360  0.45360  0.00000  0.09281
      14     H     0.45389  0.45389  0.00000  0.09222
      15     H     0.45128  0.45128  0.00000  0.09743
      16     H     0.45424  0.45424  0.00000  0.09152
      17     H     0.45156  0.45156  0.00000  0.09687

   Total alpha = 28.00000, Total beta = 28.00000, Total charge = -0.00000

*** Psi4 exiting successfully. Buy a developer a beer!
