                              Psi4 1.0.54 Driver

  ==> Input File <==

--------------------------------------------------------------------------
set {
	reference rhf
	basis cc-pvtz
}

set_num_threads( 4 )
memory 2 gb

molecule MOL {
0 1

H	 -0.000105	 1.988529	 0.748933
O	 -0.000098	 1.879786	 -0.188206
C	 -0.000014	 0.545691	 -0.532416
C	 1.395246	 -0.050048	 -0.337165
C	 -0.575059	 0.362856	 -1.938001
H	 -0.660679	 0.027560	 0.147086
F	 1.749434	 0.078609	 0.917768
F	 1.439508	 -1.323137	 -0.638825
F	 2.290207	 0.576348	 -1.070682
F	 -1.801631	 0.822765	 -1.967399
F	 -0.608201	 -0.894007	 -2.302568
F	 0.123039	 1.030519	 -2.831455

	symmetry c1
}
set optking {
	frozen_dihedral = ("
		6 3 2 1
	")
}

ee,wfn = optimize('scf', return_wfn=True)
oeprop( wfn, 'DIPOLE', 'QUADRUPOLE', 'MULLIKEN_CHARGES')
f=open( 'psi4out.xyz', 'w' )
f.write( "12  " )
f.write( str(ee) + "\n" )
f.write( MOL.save_string_xyz() )
f.close()
--------------------------------------------------------------------------

    Molecular point group: c1
  Charge       = 0
  Multiplicity = 1
  Basis Set: CC-PVTZ
  Basis Set:
  @DF-RHF Final Energy:  -786.58597136725939
    Total Energy =                       -786.5859713672600719
    Molecular point group: c1
  Basis Set: CC-PVTZ
  Basis Set:
  Basis Set: CC-PVTZ
  Basis Set:
  @DF-RHF Final Energy:  -786.57856823740144
    Total Energy =                       -786.5785682374014414
  Basis Set: CC-PVTZ
  Basis Set:
  Basis Set: CC-PVTZ
  Basis Set:
  @DF-RHF Final Energy:  -786.58775154707826
    Total Energy =                       -786.5877515470776871
  Basis Set: CC-PVTZ
  Basis Set:
  Basis Set: CC-PVTZ
  Basis Set:
  @DF-RHF Final Energy:  -786.58799953280277
    Total Energy =                       -786.5879995328029963
  Basis Set: CC-PVTZ
  Basis Set:
  Basis Set: CC-PVTZ
  Basis Set:
  @DF-RHF Final Energy:  -786.58807122315682
    Total Energy =                       -786.5880712231569305
  Basis Set: CC-PVTZ
  Basis Set:
  Basis Set: CC-PVTZ
  Basis Set:
  @DF-RHF Final Energy:  -786.58808501059025
    Total Energy =                       -786.5880850105899071
  Basis Set: CC-PVTZ
  Basis Set:
  Basis Set: CC-PVTZ
  Basis Set:
  @DF-RHF Final Energy:  -786.58808747040518
    Total Energy =                       -786.5880874704052985
  Basis Set: CC-PVTZ
  Basis Set:
  Charge       = 0
  Multiplicity = 1
  Basis Set: CC-PVTZ
  Basis Set:

    Orbital Energies (a.u.)
    -----------------------

    Doubly Occupied:

       1A    -26.355789     2A    -26.354387     3A    -26.352423
       4A    -26.351733     5A    -26.348686     6A    -26.348121
       7A    -20.609642     8A    -11.516795     9A    -11.516031
      10A    -11.351670    11A     -1.768083    12A     -1.761673
      13A     -1.662654    14A     -1.661422    15A     -1.657169
      16A     -1.656000    17A     -1.439787    18A     -1.103645
      19A     -0.998524    20A     -0.939966    21A     -0.870395
      22A     -0.862375    23A     -0.858215    24A     -0.847406
      25A     -0.836762    26A     -0.787399    27A     -0.766462
      28A     -0.734028    29A     -0.727730    30A     -0.723421
      31A     -0.721037    32A     -0.687430    33A     -0.683572
      34A     -0.673967    35A     -0.673615    36A     -0.664770
      37A     -0.658513    38A     -0.633030    39A     -0.622812
      40A     -0.555632    41A     -0.509611

  @DF-RHF Final Energy:  -786.58808824377479

   => Energetics <=

    Nuclear Repulsion Energy =            670.5306638400190877
    One-Electron Energy =               -2428.5327378125321047
    Two-Electron Energy =                 971.4139857287376572
    DFT Exchange-Correlation Energy =       0.0000000000000000
    Empirical Dispersion Energy =           0.0000000000000000
    PCM Polarization Energy =               0.0000000000000000
    EFP Energy =                            0.0000000000000000
    Total Energy =                       -786.5880882437753598
    Molecular point group: c1
  Basis Set: CC-PVTZ
  Basis Set:

  -Total Gradient:
     Atom            X                  Y                   Z
    ------   -----------------  -----------------  -----------------
       1       -0.000571410976    -0.000096441817     0.000088945710
       2        0.000836743348     0.000146027289    -0.000076609105
       3       -0.000716543384    -0.000064377119    -0.000272003789
       4       -0.000050229658     0.000058893307    -0.000118996350
       5        0.000037420255     0.000094806501    -0.000102299585
       6        0.000472194643     0.000008640001     0.000240850952
       7        0.000023300491     0.000020069518     0.000070571470
       8        0.000015745313    -0.000048479426    -0.000006935048
       9        0.000013366731    -0.000046714647     0.000061285506
      10       -0.000079395997    -0.000009626670     0.000047644664
      11        0.000019508582    -0.000038338465     0.000018550011
      12       -0.000000699357    -0.000024458467     0.000048995566

  **** Optimization is complete! (in 8 steps) ****
    Final optimized geometry and variables:
    Molecular point group: c1

    Geometry (in Angstrom), charge = 0, multiplicity = 1:

    H           -0.509448957772     1.920604450072     1.576982137482
    O           -0.591748678271     1.625236764567     0.687899311297
    C           -0.381768499810     0.265523361205     0.596714436280
    C            1.116094194609    -0.041814462232     0.641855078000
    C           -1.083225004901    -0.208494083450    -0.673882422437
    H           -0.828136289432    -0.285080535656     1.416692031984
    F            1.613351547718     0.495093399497     1.739323932823
    F            1.343028655273    -1.331855114665     0.696673743666
    F            1.771389868488     0.448855453156    -0.375635714747
    F           -2.375720420126    -0.025248360237    -0.546366786956
    F           -0.878509689734    -1.490052752486    -0.872793651727
    F           -0.684009756147     0.438535702832    -1.735832233536

  Mulliken Charges: (a.u.)
   Center  Symbol    Alpha    Beta     Spin     Total
       1     H     0.38264  0.38264  0.00000  0.23472
       2     O     4.18521  4.18521  0.00000 -0.37041
       3     C     3.00041  3.00041  0.00000 -0.00082
       4     C     2.68153  2.68153  0.00000  0.63694
       5     C     2.67656  2.67656  0.00000  0.64688
       6     H     0.44449  0.44449  0.00000  0.11102
       7     F     4.61275  4.61275  0.00000 -0.22549
       8     F     4.60476  4.60476  0.00000 -0.20952
       9     F     4.60026  4.60026  0.00000 -0.20053
      10     F     4.60463  4.60463  0.00000 -0.20927
      11     F     4.60559  4.60559  0.00000 -0.21117
      12     F     4.60117  4.60117  0.00000 -0.20235

   Total alpha = 41.00000, Total beta = 41.00000, Total charge = -0.00000

*** Psi4 exiting successfully. Buy a developer a beer!
