  ==> Input File <==

--------------------------------------------------------------------------
set {
	reference rhf
	basis cc-pvtz
}

set_num_threads( 4 )
memory 2 gb

molecule MOL {
0 1

H	 2.273589	 -0.207524	 0.442249
O	 1.583947	 -0.677544	 -0.001533
C	 0.489979	 0.078084	 0.002623
C	 -0.763662	 -0.754014	 0.000816
O	 0.539051	 1.259395	 -0.000088
C	 -2.038001	 0.074705	 -0.000833
H	 -0.712945	 -1.405886	 -0.864342
H	 -0.715137	 -1.405770	 0.866182
H	 -2.087267	 0.710831	 -0.874232
H	 -2.903419	 -0.576199	 -0.001922
H	 -2.089467	 0.710909	 0.872389

	symmetry c1
}
set optking {
	frozen_dihedral = ("
		1 2 3 5
	")
}

ee = optimize('scf')
oeprop('DIPOLE', 'QUADRUPOLE', 'MULLIKEN_CHARGES')
f=open( 'psi4out.xyz', 'w' )
f.write( "11  " )
f.write( str(ee) + "\n" )
f.write( MOL.save_string_xyz() )
f.close()
--------------------------------------------------------------------------

    Molecular point group: c1
  Charge       = 0
  Multiplicity = 1
  Basis Set: CC-PVTZ
  Basis Set:
  @DF-RHF Final Energy:  -266.94837138686182
    Total Energy =                       -266.9483713868618793
    Molecular point group: c1
  Basis Set: CC-PVTZ
  Basis Set:
  Basis Set: CC-PVTZ
  Basis Set:
  @DF-RHF Final Energy:  -266.94460586035791
    Total Energy =                       -266.9446058603578535
  Basis Set: CC-PVTZ
  Basis Set:
  Basis Set: CC-PVTZ
  Basis Set:
  @DF-RHF Final Energy:  -266.94869985821754
    Total Energy =                       -266.9486998582174238
  Basis Set: CC-PVTZ
  Basis Set:
  Basis Set: CC-PVTZ
  Basis Set:
  @DF-RHF Final Energy:  -266.94877218489086
    Total Energy =                       -266.9487721848906290
  Basis Set: CC-PVTZ
  Basis Set:
  @DF-RHF Final Energy:  -266.94878048717976
    Total Energy =                       -266.9487804871798176
  Basis Set: CC-PVTZ
  Basis Set:
  @DF-RHF Final Energy:  -266.94878310550178
    Total Energy =                       -266.9487831055016613
  Basis Set: CC-PVTZ
  Basis Set:
  Basis Set: CC-PVTZ
  Basis Set:
  @DF-RHF Final Energy:  -266.94829373358010
    Total Energy =                       -266.9482937335801580
  Basis Set: CC-PVTZ
  Basis Set:
  Basis Set: CC-PVTZ
  Basis Set:
  @DF-RHF Final Energy:  -266.94876844620831
    Total Energy =                       -266.9487684462083052
  Basis Set: CC-PVTZ
  Basis Set:
  Charge       = 0
  Multiplicity = 1
  Basis Set: CC-PVTZ
  Basis Set:

    Orbital Energies (a.u.)
    -----------------------

    Doubly Occupied:

       1A    -20.601223     2A    -20.543743     3A    -11.374579
       4A    -11.242646     5A    -11.218652     6A     -1.474705
       7A     -1.371000     8A     -1.065945     9A     -0.917520
      10A     -0.804322    11A     -0.707390    12A     -0.691027
      13A     -0.663038    14A     -0.606940    15A     -0.585195
      16A     -0.531333    17A     -0.527201    18A     -0.506023
      19A     -0.486793    20A     -0.448784

  @DF-RHF Final Energy:  -266.94878451843533

   => Energetics <=

    Nuclear Repulsion Energy =            179.9840366652594241
    One-Electron Energy =                -721.1295233134108003
    Two-Electron Energy =                 274.1967021297163001
    DFT Exchange-Correlation Energy =       0.0000000000000000
    Empirical Dispersion Energy =           0.0000000000000000
    PCM Polarization Energy =               0.0000000000000000
    EFP Energy =                            0.0000000000000000
    Total Energy =                       -266.9487845184351045
    Molecular point group: c1
  Basis Set: CC-PVTZ
  Basis Set:

  -Total Gradient:
     Atom            X                  Y                   Z
    ------   -----------------  -----------------  -----------------
       1       -0.002000583021    -0.004255017943     0.008119429366
       2        0.002334642577     0.005342635554    -0.014056611339
       3        0.000314292589    -0.001452996049     0.014435837882
       4       -0.000023492513    -0.000022949898    -0.000144925089
       5       -0.000638837538     0.000374672581    -0.008424641686
       6        0.000008807432    -0.000017711756     0.000026940824
       7       -0.000005211061     0.000019062996     0.000031358602
       8        0.000010422223     0.000001077956     0.000032939653
       9       -0.000002150712     0.000005385132    -0.000013879451
      10        0.000002672886     0.000004533907    -0.000005210819
      11       -0.000000562857     0.000001307519    -0.000001237943

  **** Optimization is complete! (in 9 steps) ****
    Final optimized geometry and variables:
    Molecular point group: c1

    Geometry (in Angstrom), charge = 0, multiplicity = 1:

    H            2.317566018682    -0.232066517568     0.319003225205
    O            1.588572044009    -0.670932225942    -0.091066975941
    C            0.490296604891     0.081432912902     0.032513411625
    C           -0.761952433243    -0.752134463062     0.004191888402
    O            0.534367950879     1.259794962672     0.085196485900
    C           -2.038548048709     0.071292570744    -0.044244483723
    H           -0.683277121165    -1.419023677438    -0.846964466578
    H           -0.735766929307    -1.389995789520     0.881749713491
    H           -2.067163756833     0.692565887388    -0.929572260677
    H           -2.902012686099    -0.582211450307    -0.057482780303
    H           -2.114742035173     0.722112617760     0.816203274611

  Mulliken Charges: (a.u.)
   Center  Symbol    Alpha    Beta     Spin     Total
       1     H     0.38069  0.38069  0.00000  0.23863
       2     O     4.16604  4.16604  0.00000 -0.33208
       3     C     2.80376  2.80376  0.00000  0.39248
       4     C     3.10014  3.10014  0.00000 -0.20028
       5     O     4.18382  4.18382  0.00000 -0.36764
       6     C     3.13913  3.13913  0.00000 -0.27827
       7     H     0.43862  0.43862  0.00000  0.12275
       8     H     0.44242  0.44242  0.00000  0.11516
       9     H     0.44804  0.44804  0.00000  0.10392
      10     H     0.44974  0.44974  0.00000  0.10052
      11     H     0.44760  0.44760  0.00000  0.10481

   Total alpha = 20.00000, Total beta = 20.00000, Total charge =  0.00000
