                              Psi4 1.0.54 Driver

  ==> Input File <==

--------------------------------------------------------------------------
set {
	reference rhf
	basis cc-pvtz
}

set_num_threads( 4 )
memory 2 gb

molecule MOL {
0 1

O	 -1.278239	 1.034789	 -0.784693
C	 -1.204115	 0.062668	 -0.112312
C	 -2.386398	 -0.667698	 0.460323
O	 -0.068058	 -0.518372	 0.226882
H	 -2.382952	 -1.693172	 0.114333
H	 -3.296656	 -0.175702	 0.158400
H	 -2.312537	 -0.685191	 1.540100
C	 0.703960	 0.023615	 1.303469
C	 2.142044	 -0.373066	 1.035754
C	 0.180233	 -0.500583	 2.628434
H	 0.604230	 1.098007	 1.274757
H	 2.474542	 0.014658	 0.081362
H	 2.786875	 0.024362	 1.810323
H	 2.246889	 -1.451379	 1.022183
H	 0.771417	 -0.100779	 3.444006
H	 -0.848126	 -0.203418	 2.779499
H	 0.242107	 -1.582457	 2.660121

	symmetry c1
}
set optking {
	frozen_dihedral = ("
		8 4 2 1
	")
}

ee,wfn = optimize('scf', return_wfn=True)
oeprop( wfn, 'DIPOLE', 'QUADRUPOLE', 'MULLIKEN_CHARGES')
f=open( 'psi4out.xyz', 'w' )
f.write( "17  " )
f.write( str(ee) + "\n" )
f.write( MOL.save_string_xyz() )
f.close()
--------------------------------------------------------------------------

    Molecular point group: c1
  Charge       = 0
  Multiplicity = 1
  Basis Set: CC-PVTZ
  Basis Set:
  @DF-RHF Final Energy:  -345.02113122525316
    Total Energy =                       -345.0211312252528728
    Molecular point group: c1
  Basis Set: CC-PVTZ
  Basis Set:
  Basis Set: CC-PVTZ
  Basis Set:
  @DF-RHF Final Energy:  -345.02313846729817
    Total Energy =                       -345.0231384672982244
  Basis Set: CC-PVTZ
  Basis Set:
  Basis Set: CC-PVTZ
  Basis Set:
  @DF-RHF Final Energy:  -345.02444400988708
    Total Energy =                       -345.0244440098872474
  Basis Set: CC-PVTZ
  Basis Set:
  Basis Set: CC-PVTZ
  Basis Set:
  @DF-RHF Final Energy:  -345.02452784483569
    Total Energy =                       -345.0245278448359727
  Basis Set: CC-PVTZ
  Basis Set:
  @DF-RHF Final Energy:  -345.02454624919386
    Total Energy =                       -345.0245462491939179
  @DF-RHF Final Energy:  -345.02456806993717
    Total Energy =                       -345.0245680699370610
  Basis Set: CC-PVTZ
  Basis Set:
  @DF-RHF Final Energy:  -345.02457259657200
    Total Energy =                       -345.0245725965716019
  Basis Set: CC-PVTZ
  Basis Set:
  Basis Set: CC-PVTZ
  Basis Set:
  @DF-RHF Final Energy:  -345.02457497838412
    Total Energy =                       -345.0245749783841234
  Basis Set: CC-PVTZ
  Basis Set:
  Basis Set: CC-PVTZ
  Basis Set:
  @DF-RHF Final Energy:  -345.02457638791776
    Total Energy =                       -345.0245763879177616
  Basis Set: CC-PVTZ
  Basis Set:
  Charge       = 0
  Multiplicity = 1
  Basis Set: CC-PVTZ
  Basis Set:

    Orbital Energies (a.u.)
    -----------------------

    Doubly Occupied:

       1A    -20.572938     2A    -20.541847     3A    -11.368110
       4A    -11.297743     5A    -11.232888     6A    -11.226127
       7A    -11.218522     8A     -1.458117     9A     -1.365869
      10A     -1.075958    11A     -1.012200    12A     -0.954610
      13A     -0.848725    14A     -0.765553    15A     -0.698787
      16A     -0.671334    17A     -0.659096    18A     -0.627261
      19A     -0.588969    20A     -0.581059    21A     -0.564695
      22A     -0.552534    23A     -0.551819    24A     -0.523827
      25A     -0.500440    26A     -0.486343    27A     -0.448633
      28A     -0.438450

  @DF-RHF Final Energy:  -345.02457671262528

   => Energetics <=

    Nuclear Repulsion Energy =            322.9119187634812533
    One-Electron Energy =               -1110.2080824813499476
    Two-Electron Energy =                 442.2715870052434184
    DFT Exchange-Correlation Energy =       0.0000000000000000
    Empirical Dispersion Energy =           0.0000000000000000
    PCM Polarization Energy =               0.0000000000000000
    EFP Energy =                            0.0000000000000000
    Total Energy =                       -345.0245767126252758
    Molecular point group: c1
  Basis Set: CC-PVTZ
  Basis Set:

  -Total Gradient:
     Atom            X                  Y                   Z
    ------   -----------------  -----------------  -----------------
       1       -0.000344283577    -0.004092380955    -0.007164337247
       2       -0.000885467730     0.003601120322     0.012456783162
       3       -0.000082041629    -0.000011861615     0.000186031629
       4        0.004184162380     0.005199406958    -0.009607410357
       5        0.000026226266    -0.000016373137    -0.000051413675
       6       -0.000069851175    -0.000024207900     0.000016095212
       7       -0.000033083060     0.000025029292     0.000020235301
       8       -0.002770891184    -0.004696068489     0.004041347669
       9       -0.000050691241    -0.000012621840     0.000010307209
      10       -0.000056035554    -0.000028571846    -0.000006110241
      11        0.000000035255     0.000014863750     0.000029699535
      12        0.000005226297     0.000005307598    -0.000004455401
      13        0.000011598271     0.000010935168     0.000000022766
      14       -0.000004185219     0.000003472669    -0.000000443800
      15        0.000013347160     0.000024024305     0.000032536755
      16        0.000035017254     0.000011547307     0.000016946534
      17        0.000020917485    -0.000013621590     0.000024164950

  **** Optimization is complete! (in 10 steps) ****
    Final optimized geometry and variables:
    Molecular point group: c1

    Geometry (in Angstrom), charge = 0, multiplicity = 1:

    O           -1.128868695811     1.232954476940    -1.285348806848
    C           -0.974010755113     0.206944724939    -0.728302434768
    C           -2.096703161536    -0.725440156668    -0.364256301830
    O            0.251340064541    -0.301702692823    -0.503428289366
    H           -1.982785771989    -1.635837938497    -0.940583139176
    H           -3.045815211063    -0.265508429356    -0.588488045051
    H           -2.048491704429    -0.997518532303     0.680822732746
    C            1.033057286366     0.188305350801     0.586605720909
    C            2.444455865878    -0.306459644859     0.344833831092
    C            0.479305802179    -0.265198325495     1.927450799016
    H            1.020859729756     1.271349254997     0.538884434448
    H            2.802055975700     0.035095826480    -0.616931326988
    H            3.109751770371     0.065243331025     1.114825244897
    H            2.473739387404    -1.389591517074     0.357014207814
    H            1.133370419778     0.073057859127     2.722154363893
    H           -0.503243939752     0.148371248165     2.118224057314
    H            0.416874648795    -1.346152463919     1.971860139110

  Mulliken Charges: (a.u.)
   Center  Symbol    Alpha    Beta     Spin     Total
       1     O     4.17358  4.17358  0.00000 -0.34717
       2     C     2.80913  2.80913  0.00000  0.38174
       3     C     3.14144  3.14144  0.00000 -0.28288
       4     O     4.18017  4.18017  0.00000 -0.36034
       5     H     0.44338  0.44338  0.00000  0.11324
       6     H     0.43690  0.43690  0.00000  0.12621
       7     H     0.44935  0.44935  0.00000  0.10131
       8     C     2.92811  2.92811  0.00000  0.14379
       9     C     3.14071  3.14071  0.00000 -0.28142
      10     C     3.16396  3.16396  0.00000 -0.32791
      11     H     0.44616  0.44616  0.00000  0.10769
      12     H     0.44157  0.44157  0.00000  0.11685
      13     H     0.45666  0.45666  0.00000  0.08668
      14     H     0.45228  0.45228  0.00000  0.09544
      15     H     0.44148  0.44148  0.00000  0.11705
      16     H     0.44743  0.44743  0.00000  0.10513
      17     H     0.44770  0.44770  0.00000  0.10460

   Total alpha = 28.00000, Total beta = 28.00000, Total charge =  0.00000

*** Psi4 exiting successfully. Buy a developer a beer!
