  ==> Input File <==

--------------------------------------------------------------------------
set {
	reference rhf
	basis 6-31G*
}

set_num_threads( 4 )
memory 2 gb

molecule MOL {
0 1

O	 0.749854	 1.307668	 -0.000040
C	 0.576249	 0.131685	 -0.000108
C	 -0.766779	 -0.556801	 -0.000461
O	 1.568443	 -0.749345	 -0.000005
C	 -1.945214	 0.412366	 0.000161
H	 -0.796911	 -1.211249	 -0.867467
H	 -0.796854	 -1.212390	 0.865687
C	 -3.287791	 -0.317055	 0.000105
H	 -1.876087	 1.060580	 -0.866812
H	 -1.875822	 1.059691	 0.867761
H	 -3.394745	 -0.949193	 -0.877058
H	 -4.111778	 0.388953	 0.000015
H	 -3.394954	 -0.949187	 0.877259
C	 1.261775	 -2.062674	 -0.431663
H	 0.506875	 -2.504561	 0.202690
H	 2.183085	 -2.619389	 -0.360091
H	 0.907560	 -2.054236	 -1.452433

	symmetry c1
}
set optking {
	frozen_dihedral = ("
		14 4 2 1
	")
}

ee = optimize('scf')
oeprop('DIPOLE', 'QUADRUPOLE', 'MULLIKEN_CHARGES')
f=open( 'psi4out.xyz', 'w' )
f.write( "17  " )
f.write( str(ee) + "\n" )
f.write( MOL.save_string_xyz() )
f.close()
--------------------------------------------------------------------------

    Molecular point group: c1
  Charge       = 0
  Multiplicity = 1
  Basis Set: 6-31G*
  Basis Set:
  @DF-RHF Final Energy:  -344.88055670753198
    Total Energy =                       -344.8805567075317526
    Molecular point group: c1
  Basis Set: 6-31G*
  Basis Set:
  Basis Set: 6-31G*
  Basis Set:
  @DF-RHF Final Energy:  -344.87931859816854
    Total Energy =                       -344.8793185981685383
  Basis Set: 6-31G*
  Basis Set:
  Basis Set: 6-31G*
  Basis Set:
  @DF-RHF Final Energy:  -344.88829828559551
    Total Energy =                       -344.8882982855953969
  Basis Set: 6-31G*
  Basis Set:
  Basis Set: 6-31G*
  Basis Set:
  @DF-RHF Final Energy:  -344.89028155629995
    Total Energy =                       -344.8902815562997830
  Basis Set: 6-31G*
  Basis Set:
  @DF-RHF Final Energy:  -344.88934106918009
    Total Energy =                       -344.8893410691798636
  Basis Set: 6-31G*
  Basis Set:
  @DF-RHF Final Energy:  -344.89078522037960
    Total Energy =                       -344.8907852203795414
  Basis Set: 6-31G*
  Basis Set:
  Basis Set: 6-31G*
  Basis Set:
  @DF-RHF Final Energy:  -344.89097053440713
    Total Energy =                       -344.8909705344070176
  Basis Set: 6-31G*
  Basis Set:
  Basis Set: 6-31G*
  Basis Set:
  @DF-RHF Final Energy:  -344.89097401773574
    Total Energy =                       -344.8909740177356866
  Basis Set: 6-31G*
  Basis Set:
  Charge       = 0
  Multiplicity = 1
  Basis Set: 6-31G*
  Basis Set:

    Orbital Energies (a.u.)
    -----------------------

    Doubly Occupied:

       1A    -20.600878     2A    -20.541422     3A    -11.374330
       4A    -11.296651     5A    -11.246078     6A    -11.226356
       7A    -11.218772     8A     -1.462932     9A     -1.365708
      10A     -1.082956    11A     -0.990090    12A     -0.968894
      13A     -0.839061    14A     -0.766803    15A     -0.704032
      16A     -0.688353    17A     -0.673220    18A     -0.641492
      19A     -0.603833    20A     -0.579340    21A     -0.571842
      22A     -0.544535    23A     -0.530738    24A     -0.496105
      25A     -0.490769    26A     -0.484359    27A     -0.448192
      28A     -0.432044

  @DF-RHF Final Energy:  -344.89097429758772

   => Energetics <=

    Nuclear Repulsion Energy =            313.9555975662397032
    One-Electron Energy =               -1091.9535683886533661
    Two-Electron Energy =                 433.1069965248260019
    DFT Exchange-Correlation Energy =       0.0000000000000000
    Empirical Dispersion Energy =           0.0000000000000000
    PCM Polarization Energy =               0.0000000000000000
    EFP Energy =                            0.0000000000000000
    Total Energy =                       -344.8909742975876611
    Molecular point group: c1
  Basis Set: 6-31G*
  Basis Set:

  -Total Gradient:
     Atom            X                  Y                   Z
    ------   -----------------  -----------------  -----------------
       1        0.000036998424    -0.000092767220    -0.002204077335
       2        0.000167495429     0.000342951807     0.002183969291
       3        0.000016963369     0.000006668634    -0.000045848958
       4       -0.000665193472    -0.000766470888     0.001868746619
       5        0.000005076369    -0.000006376244     0.000012902414
       6       -0.000008210966     0.000010205683     0.000011444265
       7        0.000022345520     0.000001812947     0.000005288150
       8       -0.000006590829     0.000004442525    -0.000007100731
       9       -0.000001337391     0.000001010504    -0.000002616827
      10        0.000003601884    -0.000004186911    -0.000000607921
      11        0.000000135626    -0.000001032640     0.000000652015
      12       -0.000004561974    -0.000001492328    -0.000000702023
      13        0.000001950926     0.000003118779     0.000001104861
      14        0.000441313555     0.000540781841    -0.001847282916
      15       -0.000020226838     0.000015822805     0.000016305071
      16       -0.000008253120    -0.000009225192     0.000002725684
      17        0.000018493485    -0.000045264097     0.000005098339

  **** Optimization is complete! (in 9 steps) ****
    Final optimized geometry and variables:
    Molecular point group: c1

    Geometry (in Angstrom), charge = 0, multiplicity = 1:

    O            0.955722000657     1.518099105142     0.029409384941
    C            0.776173777031     0.348220008775     0.033271485946
    C           -0.602511674411    -0.282804623966     0.038424143352
    O            1.832046544332    -0.472071199327     0.059657289362
    C           -1.724483473411     0.750982366834     0.099812171334
    H           -0.711606140331    -0.901451198476    -0.848784121473
    H           -0.662700334919    -0.961217384754     0.886145116991
    C           -3.105048467396     0.096606949796     0.108707977358
    H           -1.636140751448     1.422477257818    -0.746468399715
    H           -1.597077182333     1.362604782899     0.985735895988
    H           -3.268853293194    -0.497420925773    -0.786344795813
    H           -3.887161804304     0.847251178746     0.152541670335
    H           -3.228730343612    -0.558170218821     0.966965469147
    C            1.755218206788    -1.820198369737    -0.339099146335
    H            1.103489570727    -2.397506899848     0.304431286609
    H            2.759152143298    -2.207101299999    -0.260278086634
    H            1.423280339495    -1.908887649474    -1.366382611519

  Mulliken Charges: (a.u.)
   Center  Symbol    Alpha    Beta     Spin     Total
       1     O     4.26538  4.26538  0.00000 -0.53075
       2     C     2.59963  2.59963  0.00000  0.80074
       3     C     3.23149  3.23149  0.00000 -0.46299
       4     O     4.30389  4.30389  0.00000 -0.60778
       5     C     3.14858  3.14858  0.00000 -0.29716
       6     H     0.40541  0.40541  0.00000  0.18918
       7     H     0.40325  0.40325  0.00000  0.19349
       8     C     3.24350  3.24350  0.00000 -0.48701
       9     H     0.40788  0.40788  0.00000  0.18425
      10     H     0.40813  0.40813  0.00000  0.18375
      11     H     0.42226  0.42226  0.00000  0.15549
      12     H     0.41349  0.41349  0.00000  0.17301
      13     H     0.42175  0.42175  0.00000  0.15649
      14     C     3.09396  3.09396  0.00000 -0.18792
      15     H     0.41744  0.41744  0.00000  0.16511
      16     H     0.39811  0.39811  0.00000  0.20378
      17     H     0.41584  0.41584  0.00000  0.16833

   Total alpha = 28.00000, Total beta = 28.00000, Total charge = -0.00000
