  ==> Input File <==

--------------------------------------------------------------------------
set {
	reference rhf
	basis cc-pvtz
}

set_num_threads( 4 )
memory 2 gb

molecule MOL {
0 1

H	 -0.357290	 1.902501	 0.432796
O	 0.057669	 1.301365	 -0.158528
C	 0.004145	 -0.005141	 0.363049
C	 1.199168	 -0.827145	 -0.096690
C	 -1.316386	 -0.602081	 -0.083515
H	 0.012026	 0.043363	 1.450619
H	 1.216685	 -0.896776	 -1.178167
H	 2.129940	 -0.372354	 0.228035
H	 1.160783	 -1.829622	 0.314294
H	 -1.357882	 -0.655920	 -1.165207
H	 -2.140147	 0.011735	 0.257253
H	 -1.440790	 -1.601175	 0.317669

	symmetry c1
}
set optking {
	frozen_dihedral = ("
		1 2 3 4
	")
}

ee = optimize('scf')
oeprop('DIPOLE', 'QUADRUPOLE', 'MULLIKEN_CHARGES')
f=open( 'psi4out.xyz', 'w' )
f.write( "12  " )
f.write( str(ee) + "\n" )
f.write( MOL.save_string_xyz() )
f.close()
--------------------------------------------------------------------------

    Molecular point group: c1
  Charge       = 0
  Multiplicity = 1
  Basis Set: CC-PVTZ
  Basis Set:
  @DF-RHF Final Energy:  -193.19375317059053
    Total Energy =                       -193.1937531705904405
    Molecular point group: c1
  Basis Set: CC-PVTZ
  Basis Set:
  Basis Set: CC-PVTZ
  Basis Set:
  @DF-RHF Final Energy:  -193.19496004566642
    Total Energy =                       -193.1949600456663632
  Basis Set: CC-PVTZ
  Basis Set:
  Basis Set: CC-PVTZ
  Basis Set:
  @DF-RHF Final Energy:  -193.19518057846207
    Total Energy =                       -193.1951805784621001
  Basis Set: CC-PVTZ
  Basis Set:
  Basis Set: CC-PVTZ
  Basis Set:
  @DF-RHF Final Energy:  -193.19518358274604
    Total Energy =                       -193.1951835827460400
  Basis Set: CC-PVTZ
  Basis Set:
  Charge       = 0
  Multiplicity = 1
  Basis Set: CC-PVTZ
  Basis Set:

    Orbital Energies (a.u.)
    -----------------------

    Doubly Occupied:

       1A    -20.543613     2A    -11.274416     3A    -11.207167
       4A    -11.204869     5A     -1.363687     6A     -1.042799
       7A     -0.937862     8A     -0.800766     9A     -0.711226
      10A     -0.615494    11A     -0.602511    12A     -0.553261
      13A     -0.538726    14A     -0.526624    15A     -0.508406
      16A     -0.465842    17A     -0.433272

  @DF-RHF Final Energy:  -193.19518407310679

   => Energetics <=

    Nuclear Repulsion Energy =            135.5711804750603449
    One-Electron Energy =                -530.8716494313003977
    Two-Electron Energy =                 202.1052848831333222
    DFT Exchange-Correlation Energy =       0.0000000000000000
    Empirical Dispersion Energy =           0.0000000000000000
    PCM Polarization Energy =               0.0000000000000000
    EFP Energy =                            0.0000000000000000
    Total Energy =                       -193.1951840731067023
    Molecular point group: c1
  Basis Set: CC-PVTZ
  Basis Set:

  -Total Gradient:
     Atom            X                  Y                   Z
    ------   -----------------  -----------------  -----------------
       1        0.001502142328     0.000181462052     0.000856555059
       2       -0.001674514735    -0.000143570729    -0.000781283798
       3       -0.000363984191    -0.000307447968    -0.000974415613
       4        0.000510541647     0.000280756584     0.000892262849
       5        0.000009114506    -0.000002252919     0.000003271313
       6        0.000001264150    -0.000019130980    -0.000007419221
       7       -0.000010752465     0.000003079597    -0.000006110899
       8       -0.000005572209     0.000009319509     0.000008893103
       9        0.000003474928    -0.000000685512    -0.000008064892
      10        0.000007943560     0.000012500653     0.000007661827
      11        0.000020762924    -0.000003311895    -0.000001722437
      12       -0.000000420445    -0.000010718390     0.000010372708

  **** Optimization is complete! (in 5 steps) ****
    Final optimized geometry and variables:
    Molecular point group: c1

    Geometry (in Angstrom), charge = 0, multiplicity = 1:

    H           -0.271339699841     1.920451403140     0.402344885845
    O            0.134387975439     1.294587222186    -0.167620853076
    C           -0.001607745633    -0.007326703113     0.357338173498
    C            1.201977302197    -0.809309995219    -0.101294159253
    C           -1.320222570557    -0.624418261755    -0.083183884970
    H            0.014920268119     0.041862295082     1.444043234338
    H            1.237434965822    -0.845322216530    -1.184194199301
    H            2.116358009559    -0.350332875939     0.251807471074
    H            1.155176699015    -1.824883553753     0.274751344256
    H           -1.363380654060    -0.684225196639    -1.164420857641
    H           -2.156869811452    -0.022426018454     0.253929198340
    H           -1.438065165495    -1.622767978248     0.323787555348

  Mulliken Charges: (a.u.)
   Center  Symbol    Alpha    Beta     Spin     Total
       1     H     0.39341  0.39341  0.00000  0.21318
       2     O     4.20806  4.20806  0.00000 -0.41612
       3     C     2.92505  2.92505  0.00000  0.14990
       4     C     3.13956  3.13956  0.00000 -0.27911
       5     C     3.13968  3.13968  0.00000 -0.27937
       6     H     0.46737  0.46737  0.00000  0.06526
       7     H     0.45204  0.45204  0.00000  0.09592
       8     H     0.44885  0.44885  0.00000  0.10231
       9     H     0.45925  0.45925  0.00000  0.08151
      10     H     0.45217  0.45217  0.00000  0.09567
      11     H     0.45631  0.45631  0.00000  0.08739
      12     H     0.45826  0.45826  0.00000  0.08348

   Total alpha = 17.00000, Total beta = 17.00000, Total charge = -0.00000
