  ==> Input File <==

--------------------------------------------------------------------------
set {
	reference rhf
	basis cc-pvtz
}

set_num_threads( 4 )
memory 2 gb

molecule MOL {
0 1

H	 1.406810	 1.291171	 -3.074091
O	 1.978124	 1.325648	 -2.327677
C	 1.348791	 0.929911	 -1.207001
C	 2.079506	 0.932611	 -0.027523
C	 0.029104	 0.531497	 -1.199974
H	 3.104253	 1.246102	 -0.055351
C	 1.487975	 0.537709	 1.150397
H	 -0.557981	 0.519580	 -2.094673
C	 -0.532034	 0.141680	 0.000000
H	 2.060461	 0.543036	 2.057028
C	 0.163839	 0.133287	 1.182782
N	 -1.937041	 -0.281114	 0.000000
H	 -0.308488	 -0.175801	 2.089476
O	 -2.159542	 -1.446261	 0.000000
O	 -2.764978	 0.565773	 0.000000

	symmetry c1
}
set optking {
	frozen_dihedral = ("
		11 9 12 14
	")
}

ee = optimize('scf')
oeprop('DIPOLE', 'QUADRUPOLE', 'MULLIKEN_CHARGES')
f=open( 'psi4out.xyz', 'w' )
f.write( "15  " )
f.write( str(ee) + "\n" )
f.write( MOL.save_string_xyz() )
f.close()
--------------------------------------------------------------------------

    Molecular point group: c1
  Charge       = 0
  Multiplicity = 1
  Basis Set: CC-PVTZ
  Basis Set:
  @DF-RHF Final Energy:  -509.20967219416417
    Total Energy =                       -509.2096721941638862
    Molecular point group: c1
  Basis Set: CC-PVTZ
  Basis Set:
  Basis Set: CC-PVTZ
  Basis Set:
  @DF-RHF Final Energy:  -509.20460040540814
    Total Energy =                       -509.2046004054082005
  Basis Set: CC-PVTZ
  Basis Set:
  Basis Set: CC-PVTZ
  Basis Set:
  @DF-RHF Final Energy:  -509.20951892924023
    Total Energy =                       -509.2095189292404029
  Basis Set: CC-PVTZ
  Basis Set:
  Basis Set: CC-PVTZ
  Basis Set:
  @DF-RHF Final Energy:  -509.20996907217830
    Total Energy =                       -509.2099690721781826
  Basis Set: CC-PVTZ
  Basis Set:
  Charge       = 0
  Multiplicity = 1
  Basis Set: CC-PVTZ
  Basis Set:

    Orbital Energies (a.u.)
    -----------------------

    Doubly Occupied:

       1A    -20.610630     2A    -20.601094     3A    -20.600840
       4A    -15.851043     5A    -11.330830     6A    -11.314915
       7A    -11.265281     8A    -11.263921     9A    -11.257743
      10A    -11.250086    11A     -1.648511    12A     -1.443610
      13A     -1.431820    14A     -1.204610    15A     -1.096619
      16A     -1.050010    17A     -0.966823    18A     -0.887172
      19A     -0.834157    20A     -0.794025    21A     -0.768663
      22A     -0.741277    23A     -0.724686    24A     -0.712833
      25A     -0.672533    26A     -0.636137    27A     -0.623933
      28A     -0.596290    29A     -0.565764    30A     -0.550378
      31A     -0.538375    32A     -0.495765    33A     -0.487363
      34A     -0.461874    35A     -0.376430    36A     -0.346386

  @DF-RHF Final Energy:  -509.20996982803837

   => Energetics <=

    Nuclear Repulsion Energy =            503.8453060635588940
    One-Electron Energy =               -1694.1057028078066651
    Two-Electron Energy =                 681.0504269162090623
    DFT Exchange-Correlation Energy =       0.0000000000000000
    Empirical Dispersion Energy =           0.0000000000000000
    PCM Polarization Energy =               0.0000000000000000
    EFP Energy =                            0.0000000000000000
    Total Energy =                       -509.2099698280387656
    Molecular point group: c1
  Basis Set: CC-PVTZ
  Basis Set:

  -Total Gradient:
     Atom            X                  Y                   Z
    ------   -----------------  -----------------  -----------------
       1       -0.000001882437    -0.000005227523     0.000000450614
       2        0.000039207343     0.000014252872    -0.000054023268
       3       -0.000093918900     0.000001413267     0.000039980963
       4        0.000003054683     0.000007666833     0.000016012819
       5        0.000079080875    -0.000021593216    -0.000082975705
       6       -0.000007935302     0.000001020632    -0.000001350663
       7        0.000031829105    -0.000045020516     0.000011317290
       8        0.000011104556     0.000002224145     0.000025982753
       9        0.000714013688    -0.002932854309    -0.001363182486
      10       -0.000003659241     0.000007898206     0.000007577101
      11       -0.000574288879     0.002046178426     0.000372822628
      12       -0.000313732352     0.001141356554     0.003473263555
      13        0.000012336562     0.000001277692    -0.000022766970
      14        0.000040293507    -0.000257111290    -0.002436964054
      15        0.000064496782     0.000038518228     0.000013855424

  **** Optimization is complete! (in 5 steps) ****
    Final optimized geometry and variables:
    Molecular point group: c1

    Geometry (in Angstrom), charge = 0, multiplicity = 1:

    H            1.494846564115     0.965104389939    -2.787477109578
    O            2.066232407958     0.998153557808    -2.041141907965
    C            1.441235554836     0.602093255904    -0.920666034274
    C            2.172629155180     0.609143943836     0.258359946017
    C            0.118943063734     0.202718496524    -0.912203824367
    H            3.195436363876     0.927611181679     0.230070287996
    C            1.581478558526     0.214291489433     1.435860380164
    H           -0.471706376125     0.203787558134    -1.808019461221
    C           -0.427655538615    -0.197475782385     0.285800597879
    H            2.152831129676     0.227628545163     2.343378158321
    C            0.259321894177    -0.200844958049     1.469184256042
    N           -1.836551356246    -0.604047771513     0.286994999650
    H           -0.208863924753    -0.517054330528     2.378907243976
    O           -2.062214125481    -1.766136125257     0.300454649612
    O           -2.645159830467     0.260208085875     0.254309356648

  Mulliken Charges: (a.u.)
   Center  Symbol    Alpha    Beta     Spin     Total
       1     H     0.38451  0.38451  0.00000  0.23099
       2     O     4.16725  4.16725  0.00000 -0.33450
       3     C     2.84108  2.84108  0.00000  0.31783
       4     C     3.10952  3.10952  0.00000 -0.21904
       5     C     3.13793  3.13793  0.00000 -0.27587
       6     H     0.41434  0.41434  0.00000  0.17133
       7     C     3.04830  3.04830  0.00000 -0.09661
       8     H     0.42349  0.42349  0.00000  0.15301
       9     C     2.91937  2.91937  0.00000  0.16127
      10     H     0.41629  0.41629  0.00000  0.16741
      11     C     3.10624  3.10624  0.00000 -0.21247
      12     N     3.29186  3.29186  0.00000  0.41629
      13     H     0.41496  0.41496  0.00000  0.17008
      14     O     4.16204  4.16204  0.00000 -0.32407
      15     O     4.16282  4.16282  0.00000 -0.32564

   Total alpha = 36.00000, Total beta = 36.00000, Total charge = -0.00000
