  ==> Input File <==

--------------------------------------------------------------------------
set {
	reference rhf
	basis 6-31G*
}

set_num_threads( 1 )
memory 2 gb

molecule MOL {
0 1

H	 -3.407059	 -1.043082	 0.000000
O	 -3.119761	 -0.140267	 0.000000
C	 -1.777559	 -0.059267	 0.000000
C	 -0.976002	 -1.032764	 -0.588906
C	 -1.204656	 1.045826	 0.616942
H	 -1.428071	 -1.886159	 -1.064996
C	 0.396037	 -0.897120	 -0.558452
H	 -1.844035	 1.783084	 1.064062
C	 0.169086	 1.167373	 0.639212
H	 1.026560	 -1.640560	 -1.008827
C	 0.985076	 0.203561	 0.055387
H	 0.613556	 2.023561	 1.117177
C	 2.453873	 0.347233	 0.087101
O	 3.222738	 -0.430101	 -0.387618
H	 2.819045	 1.247153	 0.593027

	symmetry c1
}
set optking {
	frozen_dihedral = ("
		7 11 13 14
	")
}

ee = energy('scf')
oeprop('DIPOLE', 'QUADRUPOLE', 'MULLIKEN_CHARGES')
f=open( 'psi4out.xyz', 'w' )
f.write( "15  " )
f.write( str(ee) + "\n" )
f.write( MOL.save_string_xyz() )
f.close()
--------------------------------------------------------------------------

    Molecular point group: c1

    Geometry (in Angstrom), charge = 0, multiplicity = 1:

       Center              X                  Y                   Z               Mass
    ------------   -----------------  -----------------  -----------------  -----------------
           H         -3.406731170309    -1.048513975781     0.020310146151     1.007825032070
           O         -3.119433170309    -0.145698975781     0.020310146151    15.994914619560
           C         -1.777231170309    -0.064698975781     0.020310146151    12.000000000000
           C         -0.975674170309    -1.038195975781    -0.568595853849    12.000000000000
           C         -1.204328170309     1.040394024219     0.637252146151    12.000000000000
           H         -1.427743170309    -1.891590975781    -1.044685853849     1.007825032070
           C          0.396364829691    -0.902551975781    -0.538141853849    12.000000000000
           H         -1.843707170309     1.777652024219     1.084372146151     1.007825032070
           C          0.169413829691     1.161941024219     0.659522146151    12.000000000000
           H          1.026887829691    -1.645991975781    -0.988516853849     1.007825032070
           C          0.985403829691     0.198129024219     0.075697146151    12.000000000000
           H          0.613883829691     2.018129024219     1.137487146151     1.007825032070
           C          2.454200829691     0.341801024219     0.107411146151    12.000000000000
           O          3.223065829691    -0.435532975781    -0.367307853849    15.994914619560
           H          2.819372829691     1.241721024219     0.613337146151     1.007825032070

  Charge       = 0
  Multiplicity = 1
  Basis Set: 6-31G*
  Basis Set:

    Orbital Energies (a.u.)
    -----------------------

    Doubly Occupied:

       1A    -20.607014     2A    -20.556682     3A    -11.328529
       4A    -11.321319     5A    -11.260162     6A    -11.255942
       7A    -11.243825     8A    -11.239745     9A    -11.239036
      10A     -1.429395    11A     -1.397792    12A     -1.170269
      13A     -1.041129    14A     -1.038114    15A     -0.888539
      16A     -0.865221    17A     -0.794702    18A     -0.756940
      19A     -0.712611    20A     -0.665874    21A     -0.644148
      22A     -0.628150    23A     -0.615657    24A     -0.607185
      25A     -0.570008    26A     -0.556095    27A     -0.548865
      28A     -0.503888    29A     -0.483549    30A     -0.419193
      31A     -0.357213    32A     -0.328987

  @DF-RHF Final Energy:  -418.28834662914056

   => Energetics <=

    Nuclear Repulsion Energy =            401.3431562068057588
    One-Electron Energy =               -1365.1115756066301401
    Two-Electron Energy =                 545.4800727706824546
    DFT Exchange-Correlation Energy =       0.0000000000000000
    Empirical Dispersion Energy =           0.0000000000000000
    PCM Polarization Energy =               0.0000000000000000
    EFP Energy =                            0.0000000000000000
    Total Energy =                       -418.2883466291418699

  Mulliken Charges: (a.u.)
   Center  Symbol    Alpha    Beta     Spin     Total
       1     H     0.26868  0.26868  0.00000  0.46264
       2     O     4.37508  4.37508  0.00000 -0.75015
       3     C     2.79050  2.79050  0.00000  0.41900
       4     C     3.14239  3.14239  0.00000 -0.28478
       5     C     3.12681  3.12681  0.00000 -0.25362
       6     H     0.39601  0.39601  0.00000  0.20799
       7     C     3.07915  3.07915  0.00000 -0.15830
       8     H     0.38667  0.38667  0.00000  0.22667
       9     C     3.09343  3.09343  0.00000 -0.18686
      10     H     0.37477  0.37477  0.00000  0.25046
      11     C     3.06731  3.06731  0.00000 -0.13462
      12     H     0.39005  0.39005  0.00000  0.21990
      13     C     2.83037  2.83037  0.00000  0.33925
      14     O     4.25423  4.25423  0.00000 -0.50847
      15     H     0.42456  0.42456  0.00000  0.15089

   Total alpha = 32.00000, Total beta = 32.00000, Total charge = -0.00000
