                              Psi4 1.0.54 Driver

  ==> Input File <==

--------------------------------------------------------------------------
set {
	reference rhf
	basis cc-pvtz
}

set_num_threads( 4 )
memory 2 gb

molecule MOL {
0 1

H	 2.350636	 0.750311	 -0.430245
O	 2.063695	 -0.083403	 -0.105237
C	 0.742924	 0.005675	 0.350750
H	 0.731380	 0.039219	 1.440080
C	 -0.064076	 -1.193495	 -0.124425
C	 -0.047832	 1.190568	 -0.194462
H	 0.194729	 -1.376165	 -1.161308
H	 0.163013	 -2.094508	 0.429933
C	 -1.533112	 -0.752002	 0.006102
H	 0.148003	 1.266545	 -1.259275
H	 0.226235	 2.136493	 0.259722
C	 -1.506634	 0.799189	 0.067162
H	 -2.124360	 -1.110499	 -0.826089
H	 -1.983103	 -1.158030	 0.903403
H	 -2.183808	 1.252169	 -0.644677
H	 -1.813926	 1.138698	 1.049457

	symmetry c1
}
set optking {
	frozen_dihedral = ("
		1 2 3 6
	")
}

ee,wfn = optimize('scf', return_wfn=True)
oeprop( wfn, 'DIPOLE', 'QUADRUPOLE', 'MULLIKEN_CHARGES')
f=open( 'psi4out.xyz', 'w' )
f.write( "16  " )
f.write( str(ee) + "\n" )
f.write( MOL.save_string_xyz() )
f.close()
--------------------------------------------------------------------------

    Molecular point group: c1
  Charge       = 0
  Multiplicity = 1
  Basis Set: CC-PVTZ
  Basis Set:
  @DF-RHF Final Energy:  -270.11483305901788
    Total Energy =                       -270.1148330590178830
    Molecular point group: c1
  Basis Set: CC-PVTZ
  Basis Set:
  Basis Set: CC-PVTZ
  Basis Set:
  @DF-RHF Final Energy:  -270.11503830808493
    Total Energy =                       -270.1150383080847632
  Basis Set: CC-PVTZ
  Basis Set:
  Basis Set: CC-PVTZ
  Basis Set:
  @DF-RHF Final Energy:  -270.11509476083836
    Total Energy =                       -270.1150947608382467
  Basis Set: CC-PVTZ
  Basis Set:
  Basis Set: CC-PVTZ
  Basis Set:
  @DF-RHF Final Energy:  -270.11509829590614
    Total Energy =                       -270.1150982959062503
  Basis Set: CC-PVTZ
  Basis Set:
  Charge       = 0
  Multiplicity = 1
  Basis Set: CC-PVTZ
  Basis Set:

    Orbital Energies (a.u.)
    -----------------------

    Doubly Occupied:

       1A    -20.543759     2A    -11.267036     3A    -11.218060
       4A    -11.216812     5A    -11.214702     6A    -11.207012
       7A     -1.364128     8A     -1.116892     9A     -0.969496
      10A     -0.949943    11A     -0.798947    12A     -0.779543
      13A     -0.689856    14A     -0.665815    15A     -0.612168
      16A     -0.601663    17A     -0.575028    18A     -0.530733
      19A     -0.502328    20A     -0.484621    21A     -0.473132
      22A     -0.458716    23A     -0.446488    24A     -0.424755

  @DF-RHF Final Energy:  -270.11509912344707

   => Energetics <=

    Nuclear Repulsion Energy =            255.6127024907820271
    One-Electron Energy =                -873.2323359957163120
    Two-Electron Energy =                 347.5045343814871330
    DFT Exchange-Correlation Energy =       0.0000000000000000
    Empirical Dispersion Energy =           0.0000000000000000
    PCM Polarization Energy =               0.0000000000000000
    EFP Energy =                            0.0000000000000000
    Total Energy =                       -270.1150991234471803
    Molecular point group: c1
  Basis Set: CC-PVTZ
  Basis Set:

  -Total Gradient:
     Atom            X                  Y                   Z
    ------   -----------------  -----------------  -----------------
       1       -0.000459892995    -0.000322403131    -0.001392240305
       2        0.000685543487     0.000643926340     0.002059577829
       3       -0.000518230995    -0.000835697186    -0.001499081481
       4       -0.000016344914     0.000003820015     0.000006641350
       5        0.000049445830     0.000009669034     0.000045583862
       6        0.000290748732     0.000530648714     0.000779853679
       7       -0.000007532088    -0.000031427454     0.000002061724
       8        0.000003747167     0.000016892457     0.000020950758
       9       -0.000029875525     0.000015213309     0.000030760435
      10        0.000017495905    -0.000012557736     0.000004743640
      11        0.000001882554     0.000012485457    -0.000018613856
      12       -0.000006859394    -0.000017520558    -0.000034763001
      13        0.000024540107     0.000018334809    -0.000040521916
      14       -0.000039068758    -0.000018299045    -0.000036306470
      15       -0.000029206600     0.000003345001     0.000046330472
      16        0.000033607486    -0.000016430026     0.000025023280

  **** Optimization is complete! (in 5 steps) ****
    Final optimized geometry and variables:
    Molecular point group: c1

    Geometry (in Angstrom), charge = 0, multiplicity = 1:

    H            2.374275531941     0.762635025458    -0.387674766070
    O            2.078717713093    -0.076300843211    -0.087793009772
    C            0.745184432321    -0.002959105050     0.338293592229
    H            0.731472218775     0.030019921009     1.426769107715
    C           -0.071169055708    -1.197944883574    -0.134786397945
    C           -0.045585004642     1.186132058949    -0.193256481549
    H            0.163130473623    -1.371280803040    -1.179194072042
    H            0.164435360950    -2.105441389426     0.405466001704
    C           -1.535282720698    -0.753060020274     0.033864387239
    H            0.130589112435     1.269757752850    -1.262777824688
    H            0.238421454161     2.127032018576     0.264524917768
    C           -1.503311669418     0.798749041801     0.083409809764
    H           -2.150897116670    -1.116022509021    -0.778493310035
    H           -1.960828025995    -1.150466246836     0.946660864868
    H           -2.184646096547     1.249197891717    -0.625920784174
    H           -1.799301444081     1.147393574548     1.065561386707

  Mulliken Charges: (a.u.)
   Center  Symbol    Alpha    Beta     Spin     Total
       1     H     0.39112  0.39112  0.00000  0.21776
       2     O     4.20721  4.20721  0.00000 -0.41442
       3     C     2.92353  2.92353  0.00000  0.15295
       4     H     0.46133  0.46133  0.00000  0.07734
       5     C     3.09621  3.09621  0.00000 -0.19242
       6     C     3.11499  3.11499  0.00000 -0.22997
       7     H     0.45465  0.45465  0.00000  0.09071
       8     H     0.44262  0.44262  0.00000  0.11477
       9     C     3.11261  3.11261  0.00000 -0.22522
      10     H     0.45482  0.45482  0.00000  0.09036
      11     H     0.44396  0.44396  0.00000  0.11208
      12     C     3.11165  3.11165  0.00000 -0.22330
      13     H     0.44504  0.44504  0.00000  0.10992
      14     H     0.44801  0.44801  0.00000  0.10398
      15     H     0.44336  0.44336  0.00000  0.11327
      16     H     0.44890  0.44890  0.00000  0.10220

   Total alpha = 24.00000, Total beta = 24.00000, Total charge =  0.00000

*** Psi4 exiting successfully. Buy a developer a beer!
