                              Psi4 1.0.54 Driver

  ==> Input File <==

--------------------------------------------------------------------------
set {
	reference rhf
	basis cc-pvtz
}

set_num_threads( 4 )
memory 2 gb

molecule MOL {
0 1

H	 3.661555	 -0.094766	 0.740032
N	 3.091268	 -0.241216	 -0.065538
C	 1.860978	 0.530248	 0.016256
H	 2.895908	 -1.219386	 -0.114171
C	 0.644130	 -0.381765	 -0.031064
H	 1.835721	 1.204666	 -0.833114
H	 1.808789	 1.151975	 0.911067
C	 -0.678115	 0.376691	 0.025731
H	 0.693998	 -0.977147	 -0.936845
H	 0.693309	 -1.082142	 0.800523
C	 -1.900706	 -0.535531	 -0.022488
H	 -0.725296	 1.079516	 -0.802982
H	 -0.715474	 0.974884	 0.933278
C	 -3.220513	 0.226854	 0.028039
H	 -1.865036	 -1.134397	 -0.928236
H	 -1.857948	 -1.236381	 0.806820
H	 -3.309098	 0.911849	 -0.808725
H	 -4.066838	 -0.449485	 -0.008086
H	 -3.301685	 0.809374	 0.939860

	symmetry c1
}
set optking {
	frozen_dihedral = ("
		1 2 3 6
	")
}

ee,wfn = optimize('scf', return_wfn=True)
oeprop( wfn, 'DIPOLE', 'QUADRUPOLE', 'MULLIKEN_CHARGES')
f=open( 'psi4out.xyz', 'w' )
f.write( "19  " )
f.write( str(ee) + "\n" )
f.write( MOL.save_string_xyz() )
f.close()
--------------------------------------------------------------------------

    Molecular point group: c1
  Charge       = 0
  Multiplicity = 1
  Basis Set: CC-PVTZ
  Basis Set:
  @DF-RHF Final Energy:  -251.44356965378259
    Total Energy =                       -251.4435696537827880
    Molecular point group: c1
  Basis Set: CC-PVTZ
  Basis Set:
  Basis Set: CC-PVTZ
  Basis Set:
  @DF-RHF Final Energy:  -251.44423837227890
    Total Energy =                       -251.4442383722788463
  Basis Set: CC-PVTZ
  Basis Set:
  Basis Set: CC-PVTZ
  Basis Set:
  @DF-RHF Final Energy:  -251.44435268660021
    Total Energy =                       -251.4443526866001548
  Basis Set: CC-PVTZ
  Basis Set:
  Basis Set: CC-PVTZ
  Basis Set:
  @DF-RHF Final Energy:  -251.44436222629278
    Total Energy =                       -251.4443622262929239
  Basis Set: CC-PVTZ
  Basis Set:
  Basis Set: CC-PVTZ
  Basis Set:
  @DF-RHF Final Energy:  -251.44436421923356
    Total Energy =                       -251.4443642192334210
  Basis Set: CC-PVTZ
  Basis Set:
  Charge       = 0
  Multiplicity = 1
  Basis Set: CC-PVTZ
  Basis Set:

    Orbital Energies (a.u.)
    -----------------------

    Doubly Occupied:

       1A    -15.522676     2A    -11.237609     3A    -11.214527
       4A    -11.213640     5A    -11.213019     6A    -11.207292
       7A     -1.174833     8A     -1.076784     9A     -1.001371
      10A     -0.902204    11A     -0.818677    12A     -0.793592
      13A     -0.668266    14A     -0.643477    15A     -0.603620
      16A     -0.600166    17A     -0.567214    18A     -0.552014
      19A     -0.532885    20A     -0.498595    21A     -0.487430
      22A     -0.468178    23A     -0.465253    24A     -0.457080
      25A     -0.375903

  @DF-RHF Final Energy:  -251.44436444357623

   => Energetics <=

    Nuclear Repulsion Energy =            246.0041097862325330
    One-Electron Energy =                -826.3043372736575520
    Two-Electron Energy =                 328.8558630438487285
    DFT Exchange-Correlation Energy =       0.0000000000000000
    Empirical Dispersion Energy =           0.0000000000000000
    PCM Polarization Energy =               0.0000000000000000
    EFP Energy =                            0.0000000000000000
    Total Energy =                       -251.4443644435762621
    Molecular point group: c1
  Basis Set: CC-PVTZ
  Basis Set:

  -Total Gradient:
     Atom            X                  Y                   Z
    ------   -----------------  -----------------  -----------------
       1        0.000263824712     0.000489202101    -0.000273322823
       2       -0.000253093270    -0.000555826200     0.000412719840
       3       -0.000304625449    -0.000354438774    -0.000452151897
       4       -0.000011998142     0.000034682832    -0.000005281025
       5        0.000059516564    -0.000002844985     0.000003749251
       6        0.000265734705     0.000374546234     0.000312045796
       7        0.000003656266     0.000013946513     0.000012497197
       8       -0.000022122554     0.000007939192    -0.000017052836
       9       -0.000016303130     0.000004096792     0.000016330648
      10       -0.000000477464    -0.000005274589    -0.000003415656
      11       -0.000006658117    -0.000006132959    -0.000006765151
      12        0.000005505273     0.000001475403    -0.000006336696
      13        0.000003921501    -0.000007248166    -0.000002622448
      14        0.000006828172     0.000006143549     0.000009000534
      15        0.000000404902     0.000002382982    -0.000002900500
      16        0.000002876519    -0.000003109971    -0.000000770586
      17        0.000000266948    -0.000001541040    -0.000001563840
      18        0.000006332701    -0.000002425897     0.000003111406
      19       -0.000003590140     0.000004426983     0.000002728787

  **** Optimization is complete! (in 6 steps) ****
    Final optimized geometry and variables:
    Molecular point group: c1

    Geometry (in Angstrom), charge = 0, multiplicity = 1:

    H            3.696193967524    -0.133133211862     0.719779320643
    N            3.121481008658    -0.256682341915    -0.083152150397
    C            1.872494621626     0.493026311275     0.012860603836
    H            2.961984882050    -1.233267807449    -0.198318359588
    C            0.634916684980    -0.394928763113    -0.006981158445
    H            1.815289570313     1.198995160137    -0.810487643428
    H            1.869036938240     1.087008445522     0.921893023816
    C           -0.671856663341     0.391347216332     0.019009909112
    H            0.663700484147    -1.015429670747    -0.900255133777
    H            0.671000508844    -1.072875482922     0.842572576560
    C           -1.913288682147    -0.495986710842    -0.007186367420
    H           -0.699879374803     1.070226728623    -0.829623475379
    H           -0.698367639019     1.015940396466     0.908926376863
    C           -3.216327621834     0.295694603184     0.021811593910
    H           -1.890068664280    -1.118388480978    -0.897497783031
    H           -1.886351209955    -1.175884661087     0.839991565813
    H           -3.289404169138     0.960394806176    -0.832540767403
    H           -4.076821482391    -0.363183216257     0.002254351039
    H           -3.285436434111     0.903140212276     0.918157704664

  Mulliken Charges: (a.u.)
   Center  Symbol    Alpha    Beta     Spin     Total
       1     H     0.42704  0.42704  0.00000  0.14592
       2     N     3.69838  3.69838  0.00000 -0.39676
       3     C     3.01628  3.01628  0.00000 -0.03256
       4     H     0.42788  0.42788  0.00000  0.14423
       5     C     3.09017  3.09017  0.00000 -0.18034
       6     H     0.46241  0.46241  0.00000  0.07518
       7     H     0.46288  0.46288  0.00000  0.07424
       8     C     3.09377  3.09377  0.00000 -0.18754
       9     H     0.45439  0.45439  0.00000  0.09123
      10     H     0.45692  0.45692  0.00000  0.08616
      11     C     3.08341  3.08341  0.00000 -0.16683
      12     H     0.45366  0.45366  0.00000  0.09269
      13     H     0.45524  0.45524  0.00000  0.08951
      14     C     3.14998  3.14998  0.00000 -0.29997
      15     H     0.45430  0.45430  0.00000  0.09141
      16     H     0.45482  0.45482  0.00000  0.09035
      17     H     0.45480  0.45480  0.00000  0.09040
      18     H     0.44841  0.44841  0.00000  0.10317
      19     H     0.45525  0.45525  0.00000  0.08950

   Total alpha = 25.00000, Total beta = 25.00000, Total charge =  0.00000

*** Psi4 exiting successfully. Buy a developer a beer!
