  ==> Input File <==

--------------------------------------------------------------------------
set {
	reference rhf
	basis cc-pvtz
}

set_num_threads( 4 )
memory 2 gb

molecule MOL {
0 1

H	 1.200127	 -4.639381	 -3.224886
C	 1.220142	 -4.004667	 -2.346907
C	 0.022202	 -3.061758	 -2.324246
H	 1.227494	 -4.649397	 -1.474378
H	 2.155431	 -3.455017	 -2.358618
C	 0.010991	 -2.149963	 -1.106267
H	 -0.900641	 -3.630855	 -2.340181
H	 0.025908	 -2.453576	 -3.225733
N	 -1.148891	 -1.284867	 -1.101958
H	 -0.017762	 -2.755700	 -0.205476
H	 0.947257	 -1.585146	 -1.067908
C	 -1.215959	 -0.382435	 0.027143
H	 -1.183364	 -0.763182	 -1.952826
C	 -2.451944	 0.502410	 -0.038737
H	 -1.250693	 -0.979565	 0.933458
H	 -0.324089	 0.246329	 0.106519
C	 -3.752217	 -0.292550	 0.005776
H	 -2.407325	 1.093801	 -0.946480
H	 -2.431979	 1.206234	 0.790023
H	 -3.817783	 -0.982946	 -0.828547
H	 -4.612613	 0.364348	 -0.042306
H	 -3.830160	 -0.871666	 0.919868

	symmetry c1
}
set optking {
	frozen_dihedral = ("
		15 12 14 18
	")
}

ee = optimize('scf')
oeprop('DIPOLE', 'QUADRUPOLE', 'MULLIKEN_CHARGES')
f=open( 'psi4out.xyz', 'w' )
f.write( "22  " )
f.write( str(ee) + "\n" )
f.write( MOL.save_string_xyz() )
f.close()
--------------------------------------------------------------------------

    Molecular point group: c1
  Charge       = 0
  Multiplicity = 1
  Basis Set: CC-PVTZ
  Basis Set:
  @DF-RHF Final Energy:  -290.48937266631054
    Total Energy =                       -290.4893726663106008
    Molecular point group: c1
  Basis Set: CC-PVTZ
  Basis Set:
  Basis Set: CC-PVTZ
  Basis Set:
  @DF-RHF Final Energy:  -290.48955460981716
    Total Energy =                       -290.4895546098166506
  Basis Set: CC-PVTZ
  Basis Set:
  Basis Set: CC-PVTZ
  Basis Set:
  @DF-RHF Final Energy:  -290.48958760178783
    Total Energy =                       -290.4895876017877185
  Basis Set: CC-PVTZ
  Basis Set:
  Basis Set: CC-PVTZ
  Basis Set:
  @DF-RHF Final Energy:  -290.48958899484825
    Total Energy =                       -290.4895889948483045
  Basis Set: CC-PVTZ
  Basis Set:
  Charge       = 0
  Multiplicity = 1
  Basis Set: CC-PVTZ
  Basis Set:

    Orbital Energies (a.u.)
    -----------------------

    Doubly Occupied:

       1A    -15.528747     2A    -11.236764     3A    -11.236746
       4A    -11.212436     5A    -11.212312     6A    -11.207907
       7A    -11.199155     8A     -1.208125     9A     -1.059389
      10A     -1.023464    11A     -0.927040    12A     -0.875953
      13A     -0.807862    14A     -0.791216    15A     -0.662122
      16A     -0.634986    17A     -0.613169    18A     -0.611922
      19A     -0.572637    20A     -0.565099    21A     -0.537928
      22A     -0.526614    23A     -0.502576    24A     -0.488928
      25A     -0.481152    26A     -0.471779    27A     -0.467203
      28A     -0.451824    29A     -0.361076

  @DF-RHF Final Energy:  -290.48958910181096

   => Energetics <=

    Nuclear Repulsion Energy =            317.8676862924259581
    One-Electron Energy =               -1021.7622887774971332
    Two-Electron Energy =                 413.4050133832602114
    DFT Exchange-Correlation Energy =       0.0000000000000000
    Empirical Dispersion Energy =           0.0000000000000000
    PCM Polarization Energy =               0.0000000000000000
    EFP Energy =                            0.0000000000000000
    Total Energy =                       -290.4895891018109069
    Molecular point group: c1
  Basis Set: CC-PVTZ
  Basis Set:

  -Total Gradient:
     Atom            X                  Y                   Z
    ------   -----------------  -----------------  -----------------
       1        0.000000100737     0.000000640722    -0.000000207055
       2        0.000000703082     0.000003953944    -0.000001643373
       3        0.000003003779    -0.000002500292     0.000000369877
       4       -0.000001044795     0.000000040315    -0.000000007256
       5        0.000001169516    -0.000000669053     0.000000618705
       6       -0.000011060194    -0.000003094268     0.000000305575
       7       -0.000000650079     0.000001775022     0.000002334181
       8       -0.000000356468    -0.000001411936    -0.000002181714
       9        0.000013686704     0.000008327854     0.000014248841
      10        0.000002723502     0.000000329897     0.000003605483
      11       -0.000000286841    -0.000001121980    -0.000002341207
      12       -0.000197250631    -0.000292820712    -0.000212246468
      13       -0.000004878615     0.000002156308    -0.000000326418
      14       -0.000196713330    -0.000300450749    -0.000195884124
      15        0.000198336431     0.000290515231     0.000198185291
      16        0.000006061608    -0.000007541735    -0.000007035843
      17       -0.000006517455     0.000013691656     0.000008476966
      18        0.000201488373     0.000292214414     0.000196935354
      19       -0.000007032875     0.000007213572     0.000005395054
      20        0.000001824437    -0.000002802915    -0.000005989002
      21        0.000000773055    -0.000006118687    -0.000000652258
      22       -0.000004079940    -0.000002326608    -0.000001960614

  **** Optimization is complete! (in 5 steps) ****
    Final optimized geometry and variables:
    Molecular point group: c1

    Geometry (in Angstrom), charge = 0, multiplicity = 1:

    H            2.272314033311    -3.107391028769    -2.233538327382
    C            2.277975887074    -2.479192371101    -1.350671976884
    C            1.084795297483    -1.530059397446    -1.345229467181
    H            2.264300798666    -3.130206047788    -0.482908033702
    H            3.216096852729    -1.934404204171    -1.339538091182
    C            1.053372232843    -0.628184868543    -0.120234875326
    H            0.159684754230    -2.094317413877    -1.384970757597
    H            1.110573137058    -0.914624572586    -2.241420249923
    N           -0.100876121032     0.244101536773    -0.132284844778
    H            1.002784703612    -1.240988112928     0.774698969990
    H            1.991861270703    -0.069048554744    -0.058190252618
    C           -0.178742000615     1.144485751908     0.998753950301
    H           -0.115767424186     0.770784102516    -0.981024937784
    C           -1.421272463881     2.025597673612     0.948426159377
    H           -0.199824358927     0.546804257736     1.905299815957
    H            0.705604708058     1.782899436866     1.072610949623
    C           -2.735076389438     1.254673528270     1.024341859426
    H           -1.397228683540     2.622854294917     0.039538177263
    H           -1.367026017713     2.731958647169     1.771359839369
    H           -2.827407042556     0.555791774129     0.204263545161
    H           -3.581820000788     1.931222371964     0.993069372423
    H           -2.797617558891     0.689373350167     1.948611637899

  Mulliken Charges: (a.u.)
   Center  Symbol    Alpha    Beta     Spin     Total
       1     H     0.44766  0.44766  0.00000  0.10468
       2     C     3.15367  3.15367  0.00000 -0.30735
       3     C     3.08093  3.08093  0.00000 -0.16186
       4     H     0.45470  0.45470  0.00000  0.09061
       5     H     0.45608  0.45608  0.00000  0.08783
       6     C     3.02070  3.02070  0.00000 -0.04139
       7     H     0.44899  0.44899  0.00000  0.10202
       8     H     0.45964  0.45964  0.00000  0.08072
       9     N     3.63942  3.63942  0.00000 -0.27884
      10     H     0.45951  0.45951  0.00000  0.08097
      11     H     0.47515  0.47515  0.00000  0.04971
      12     C     3.03738  3.03738  0.00000 -0.07476
      13     H     0.44482  0.44482  0.00000  0.11036
      14     C     3.08708  3.08708  0.00000 -0.17415
      15     H     0.45755  0.45755  0.00000  0.08491
      16     H     0.46467  0.46467  0.00000  0.07066
      17     C     3.14465  3.14465  0.00000 -0.28930
      18     H     0.45800  0.45800  0.00000  0.08400
      19     H     0.45141  0.45141  0.00000  0.09719
      20     H     0.44860  0.44860  0.00000  0.10281
      21     H     0.45164  0.45164  0.00000  0.09672
      22     H     0.45777  0.45777  0.00000  0.08446

   Total alpha = 29.00000, Total beta = 29.00000, Total charge = -0.00000
