  ==> Input File <==

--------------------------------------------------------------------------
set {
	reference rhf
	basis 6-31G*
}

set_num_threads( 4 )
memory 2 gb

molecule MOL {
0 1

O	 0.387362	 -0.351175	 2.177704
C	 -0.086915	 -0.748479	 1.163512
C	 -1.465879	 -1.332340	 1.021625
O	 0.550821	 -0.724572	 0.000672
H	 -2.039484	 -0.748066	 0.311495
H	 -1.958339	 -1.335151	 1.982545
H	 -1.397299	 -2.342889	 0.636049
C	 1.863949	 -0.193559	 -0.000319
H	 2.028859	 0.409284	 -0.881648
H	 2.526261	 -1.045082	 -0.000003
H	 2.029520	 0.410555	 0.880008

	symmetry c1
}
set optking {
	frozen_dihedral = ("
		2 4 8 9
	")
}

ee = optimize('scf')
oeprop('DIPOLE', 'QUADRUPOLE', 'MULLIKEN_CHARGES')
f=open( 'psi4out.xyz', 'w' )
f.write( "11  " )
f.write( str(ee) + "\n" )
f.write( MOL.save_string_xyz() )
f.close()
--------------------------------------------------------------------------

    Molecular point group: c1
  Charge       = 0
  Multiplicity = 1
  Basis Set: 6-31G*
  Basis Set:
  @DF-RHF Final Energy:  -266.83347417048969
    Total Energy =                       -266.8334741704896942
    Molecular point group: c1
  Basis Set: 6-31G*
  Basis Set:
  Basis Set: 6-31G*
  Basis Set:
  @DF-RHF Final Energy:  -266.83422035057941
    Total Energy =                       -266.8342203505793577
  Basis Set: 6-31G*
  Basis Set:
  Basis Set: 6-31G*
  Basis Set:
  @DF-RHF Final Energy:  -266.83459126920786
    Total Energy =                       -266.8345912692078628
  Basis Set: 6-31G*
  Basis Set:
  Basis Set: 6-31G*
  Basis Set:
  @DF-RHF Final Energy:  -266.83466248535296
    Total Energy =                       -266.8346624853530784
  Basis Set: 6-31G*
  Basis Set:
  Basis Set: 6-31G*
  Basis Set:
  @DF-RHF Final Energy:  -266.83473559217754
    Total Energy =                       -266.8347355921773669
  Basis Set: 6-31G*
  Basis Set:
  Basis Set: 6-31G*
  Basis Set:
  @DF-RHF Final Energy:  -266.83474645852726
    Total Energy =                       -266.8347464585274906
  Basis Set: 6-31G*
  Basis Set:
  Charge       = 0
  Multiplicity = 1
  Basis Set: 6-31G*
  Basis Set:

    Orbital Energies (a.u.)
    -----------------------

    Doubly Occupied:

       1A    -20.605013     2A    -20.545852     3A    -11.377548
       4A    -11.280988     5A    -11.234121     6A     -1.468874
       7A     -1.364901     8A     -1.035944     9A     -0.953373
      10A     -0.777428    11A     -0.696546    12A     -0.679386
      13A     -0.676948    14A     -0.597393    15A     -0.590911
      16A     -0.560426    17A     -0.528322    18A     -0.519267
      19A     -0.455192    20A     -0.442295

  @DF-RHF Final Energy:  -266.83474654017220

   => Energetics <=

    Nuclear Repulsion Energy =            182.9260063104291021
    One-Electron Energy =                -726.7400484807438943
    Two-Electron Energy =                 276.9792956301423601
    DFT Exchange-Correlation Energy =       0.0000000000000000
    Empirical Dispersion Energy =           0.0000000000000000
    PCM Polarization Energy =               0.0000000000000000
    EFP Energy =                            0.0000000000000000
    Total Energy =                       -266.8347465401724321
    Molecular point group: c1
  Basis Set: 6-31G*
  Basis Set:

  -Total Gradient:
     Atom            X                  Y                   Z
    ------   -----------------  -----------------  -----------------
       1        0.000002333830     0.000000439164    -0.000012307880
       2       -0.000440724828     0.001042990274    -0.000198595693
       3       -0.000007871455     0.000002436638    -0.000002594625
       4        0.000564792748    -0.001298516562     0.000465215942
       5       -0.000007433633    -0.000001070398    -0.000003217088
       6        0.000001751379     0.000001928882    -0.000002900424
       7        0.000000394968     0.000002600928     0.000000235846
       8        0.000315344393    -0.000805815475    -0.000866612792
       9       -0.000423284291     0.001066121161     0.000627788537
      10       -0.000004133797    -0.000007965759    -0.000001580038
      11       -0.000001169316    -0.000003148854    -0.000005431783

  **** Optimization is complete! (in 7 steps) ****
    Final optimized geometry and variables:
    Molecular point group: c1

    Geometry (in Angstrom), charge = 0, multiplicity = 1:

    O            0.096529109358     0.293910050919     1.337513528827
    C           -0.357628618913    -0.083844833847     0.307072002276
    C           -1.739126117082    -0.653446791043     0.132175765219
    O            0.295269368701    -0.059029059842    -0.848535056100
    H           -2.293305438899    -0.056770302887    -0.582989133867
    H           -2.250092003767    -0.662145649204     1.083253507802
    H           -1.671584372287    -1.660497237252    -0.262796148073
    C            1.609282838014     0.472247618229    -0.882803275274
    H            1.690469698458     1.045622683509    -1.794253107218
    H            2.321318729006    -0.341761487835    -0.893694968202
    H            1.789311596912     1.103653797281    -0.028623912713

  Mulliken Charges: (a.u.)
   Center  Symbol    Alpha    Beta     Spin     Total
       1     O     4.28172  4.28172  0.00000 -0.56343
       2     C     2.62218  2.62218  0.00000  0.75564
       3     C     3.28201  3.28201  0.00000 -0.56401
       4     O     4.30119  4.30119  0.00000 -0.60238
       5     H     0.40019  0.40019  0.00000  0.19963
       6     H     0.39678  0.39678  0.00000  0.20643
       7     H     0.39994  0.39994  0.00000  0.20011
       8     C     3.09699  3.09699  0.00000 -0.19398
       9     H     0.41039  0.41039  0.00000  0.17923
      10     H     0.41264  0.41264  0.00000  0.17471
      11     H     0.39598  0.39598  0.00000  0.20804

   Total alpha = 20.00000, Total beta = 20.00000, Total charge =  0.00000
