  ==> Input File <==

--------------------------------------------------------------------------
set {
	reference rhf
	basis 6-31G*
}

set_num_threads( 1 )
memory 2 gb

molecule MOL {
0 1

O	 -2.821601	 1.309235	 -0.001213
C	 -2.668563	 0.129746	 -0.000350
C	 -3.801572	 -0.864014	 -0.000442
O	 -1.481751	 -0.454642	 0.000584
H	 -4.417280	 -0.689587	 -0.874708
H	 -3.443784	 -1.883046	 -0.000565
H	 -4.417179	 -0.689832	 0.873954
C	 -0.334255	 0.388708	 0.000906
C	 0.891947	 -0.504646	 0.000751
H	 -0.365390	 1.025305	 -0.873475
H	 -0.365484	 1.024911	 0.875569
C	 2.191998	 0.301789	 0.000897
H	 0.855148	 -1.151283	 -0.871571
H	 0.855132	 -1.151660	 0.872805
C	 3.441114	 -0.581407	 0.000108
H	 2.215074	 0.954890	 -0.869742
H	 2.215465	 0.953923	 0.872248
C	 4.708474	 0.180465	 -0.384880
H	 3.294464	 -1.410429	 -0.688580
H	 3.569889	 -1.022390	 0.986020
H	 4.623417	 0.605301	 -1.381020
H	 5.576121	 -0.471728	 -0.376648
H	 4.901100	 0.996019	 0.306334

	symmetry c1
}
set optking {
	frozen_dihedral = ("
		13 9 8 10,
		2 4 8 10,
		16 12 9 13,
		1 2 4 8
	")
}

ee = energy('scf')
oeprop('DIPOLE', 'QUADRUPOLE', 'MULLIKEN_CHARGES')
f=open( 'psi4out.xyz', 'w' )
f.write( "23  " )
f.write( str(ee) + "\n" )
f.write( MOL.save_string_xyz() )
f.close()
--------------------------------------------------------------------------

    Molecular point group: c1

    Geometry (in Angstrom), charge = 0, multiplicity = 1:

       Center              X                  Y                   Z               Mass
    ------------   -----------------  -----------------  -----------------  -----------------
           O         -2.818009847512     1.314273761079     0.043095848687    15.994914619560
           C         -2.664971847512     0.134784761079     0.043958848687    12.000000000000
           C         -3.797980847512    -0.858975238921     0.043866848687    12.000000000000
           O         -1.478159847512    -0.449603238921     0.044892848687    15.994914619560
           H         -4.413688847512    -0.684548238921    -0.830399151313     1.007825032070
           H         -3.440192847512    -1.878007238921     0.043743848687     1.007825032070
           H         -4.413587847512    -0.684793238921     0.918262848687     1.007825032070
           C         -0.330663847512     0.393746761079     0.045214848687    12.000000000000
           C          0.895538152488    -0.499607238921     0.045059848687    12.000000000000
           H         -0.361798847512     1.030343761079    -0.829166151313     1.007825032070
           H         -0.361892847512     1.029949761079     0.919877848687     1.007825032070
           C          2.195589152488     0.306827761079     0.045205848687    12.000000000000
           H          0.858739152488    -1.146244238921    -0.827262151313     1.007825032070
           H          0.858723152488    -1.146621238921     0.917113848687     1.007825032070
           C          3.444705152488    -0.576368238921     0.044416848687    12.000000000000
           H          2.218665152488     0.959928761079    -0.825433151313     1.007825032070
           H          2.219056152488     0.958961761079     0.916556848687     1.007825032070
           C          4.712065152488     0.185503761079    -0.340571151313    12.000000000000
           H          3.298055152488    -1.405390238921    -0.644271151313     1.007825032070
           H          3.573480152488    -1.017351238921     1.030328848687     1.007825032070
           H          4.627008152488     0.610339761079    -1.336711151313     1.007825032070
           H          5.579712152488    -0.466689238921    -0.332339151313     1.007825032070
           H          4.904691152488     1.001057761079     0.350642848687     1.007825032070

  Charge       = 0
  Multiplicity = 1
  Basis Set: 6-31G*
  Basis Set:

    Orbital Energies (a.u.)
    -----------------------

    Doubly Occupied:

       1A    -20.603001     2A    -20.540567     3A    -11.374079
       4A    -11.281417     5A    -11.232417     6A    -11.224418
       7A    -11.223649     8A    -11.221434     9A    -11.213046
      10A     -1.467972    11A     -1.360748    12A     -1.094268
      13A     -1.042240    14A     -1.003425    15A     -0.930892
      16A     -0.841861    17A     -0.802667    18A     -0.774371
      19A     -0.692161    20A     -0.685094    21A     -0.668056
      22A     -0.645960    23A     -0.606390    24A     -0.588814
      25A     -0.582362    26A     -0.567662    27A     -0.557500
      28A     -0.536929    29A     -0.523619    30A     -0.504802
      31A     -0.492445    32A     -0.477090    33A     -0.470174
      34A     -0.465574    35A     -0.451244    36A     -0.435324

  @DF-RHF Final Energy:  -422.97857581694490

   => Energetics <=

    Nuclear Repulsion Energy =            449.7352557239191242
    One-Electron Energy =               -1467.0604551453047861
    Two-Electron Energy =                 594.3466236044398556
    DFT Exchange-Correlation Energy =       0.0000000000000000
    Empirical Dispersion Energy =           0.0000000000000000
    PCM Polarization Energy =               0.0000000000000000
    EFP Energy =                            0.0000000000000000
    Total Energy =                       -422.9785758169457495

  Mulliken Charges: (a.u.)
   Center  Symbol    Alpha    Beta     Spin     Total
       1     O     4.28390  4.28390  0.00000 -0.56779
       2     C     2.61532  2.61532  0.00000  0.76936
       3     C     3.28775  3.28775  0.00000 -0.57550
       4     O     4.31272  4.31272  0.00000 -0.62545
       5     H     0.39750  0.39750  0.00000  0.20500
       6     H     0.39986  0.39986  0.00000  0.20029
       7     H     0.39750  0.39750  0.00000  0.20499
       8     C     2.99571  2.99571  0.00000  0.00859
       9     C     3.16525  3.16525  0.00000 -0.33051
      10     H     0.41061  0.41061  0.00000  0.17878
      11     H     0.41071  0.41071  0.00000  0.17858
      12     C     3.16049  3.16049  0.00000 -0.32098
      13     H     0.41410  0.41410  0.00000  0.17179
      14     H     0.41422  0.41422  0.00000  0.17155
      15     C     3.15176  3.15176  0.00000 -0.30351
      16     H     0.42085  0.42085  0.00000  0.15831
      17     H     0.41989  0.41989  0.00000  0.16022
      18     C     3.24009  3.24009  0.00000 -0.48018
      19     H     0.42143  0.42143  0.00000  0.15713
      20     H     0.42053  0.42053  0.00000  0.15895
      21     H     0.42080  0.42080  0.00000  0.15839
      22     H     0.41821  0.41821  0.00000  0.16358
      23     H     0.42079  0.42079  0.00000  0.15842

   Total alpha = 36.00000, Total beta = 36.00000, Total charge =  0.00000
