  ==> Input File <==

--------------------------------------------------------------------------
set {
	reference rhf
	basis 6-31G*
}

set_num_threads( 4 )
memory 2 gb

molecule MOL {
0 1

H	 -3.518014	 0.027633	 -0.753737
O	 -3.110592	 -0.228745	 0.062285
C	 -1.776383	 -0.070618	 0.007991
C	 -1.132503	 0.411679	 -1.127707
C	 -1.046708	 -0.409452	 1.140613
H	 -1.705491	 0.671982	 -2.001341
C	 0.239274	 0.553264	 -1.126155
H	 -1.566190	 -0.779260	 2.004125
C	 0.324635	 -0.262276	 1.126764
H	 0.749107	 0.924173	 -1.995406
C	 0.984182	 0.218375	 0.000000
H	 0.890557	 -0.524708	 2.004217
C	 2.452467	 0.370529	 0.000000
O	 3.228994	 -0.533774	 0.000000
H	 2.809473	 1.405765	 0.000000

	symmetry c1
}
set optking {
	frozen_dihedral = ("
		7 11 13 14
	")
}

ee = optimize('scf')
oeprop('DIPOLE', 'QUADRUPOLE', 'MULLIKEN_CHARGES')
f=open( 'psi4out.xyz', 'w' )
f.write( "15  " )
f.write( str(ee) + "\n" )
f.write( MOL.save_string_xyz() )
f.close()
--------------------------------------------------------------------------

    Molecular point group: c1
  Charge       = 0
  Multiplicity = 1
  Basis Set: 6-31G*
  Basis Set:
  @DF-RHF Final Energy:  -418.27496403532632
    Total Energy =                       -418.2749640353263203
    Molecular point group: c1
  Basis Set: 6-31G*
  Basis Set:
  Basis Set: 6-31G*
  Basis Set:
  @DF-RHF Final Energy:  -418.27507354941520
    Total Energy =                       -418.2750735494151968
  Basis Set: 6-31G*
  Basis Set:
  Basis Set: 6-31G*
  Basis Set:
  @DF-RHF Final Energy:  -418.27584011500619
    Total Energy =                       -418.2758401150059626
  Basis Set: 6-31G*
  Basis Set:
  Basis Set: 6-31G*
  Basis Set:
  @DF-RHF Final Energy:  -418.27598352105639
    Total Energy =                       -418.2759835210559913
  Basis Set: 6-31G*
  Basis Set:
  Basis Set: 6-31G*
  Basis Set:
  @DF-RHF Final Energy:  -418.27598706072422
    Total Energy =                       -418.2759870607239918
  Basis Set: 6-31G*
  Basis Set:
  Charge       = 0
  Multiplicity = 1
  Basis Set: 6-31G*
  Basis Set:

    Orbital Energies (a.u.)
    -----------------------

    Doubly Occupied:

       1A    -20.604170     2A    -20.568928     3A    -11.333764
       4A    -11.314726     5A    -11.257549     6A    -11.252752
       7A    -11.243438     8A    -11.243168     9A    -11.236290
      10A     -1.424103    11A     -1.407955    12A     -1.168162
      13A     -1.038613    14A     -1.035028    15A     -0.888563
      16A     -0.858049    17A     -0.802229    18A     -0.752642
      19A     -0.701956    20A     -0.680076    21A     -0.649150
      22A     -0.628018    23A     -0.605551    24A     -0.601706
      25A     -0.589369    26A     -0.559873    27A     -0.530474
      28A     -0.502932    29A     -0.490536    30A     -0.421607
      31A     -0.354136    32A     -0.323795

  @DF-RHF Final Energy:  -418.27598762500332

   => Energetics <=

    Nuclear Repulsion Energy =            400.6302961936638098
    One-Electron Energy =               -1363.6739485154375870
    Two-Electron Energy =                 544.7676646967703391
    DFT Exchange-Correlation Energy =       0.0000000000000000
    Empirical Dispersion Energy =           0.0000000000000000
    PCM Polarization Energy =               0.0000000000000000
    EFP Energy =                            0.0000000000000000
    Total Energy =                       -418.2759876250034949
    Molecular point group: c1
  Basis Set: 6-31G*
  Basis Set:

  -Total Gradient:
     Atom            X                  Y                   Z
    ------   -----------------  -----------------  -----------------
       1       -0.000009286368     0.000010130287     0.000002583802
       2        0.000001683499     0.000034522874    -0.000007961615
       3        0.000027352103    -0.000165126914     0.000082326330
       4        0.000089649907     0.000062385045    -0.000037930155
       5       -0.000117367122     0.000029046172    -0.000008686043
       6       -0.000004567599    -0.000002804860     0.000010395669
       7        0.000184126839    -0.005488790700    -0.001794333043
       8       -0.000000381197    -0.000000145665    -0.000005161252
       9        0.000060004878     0.000089914756    -0.000041780961
      10        0.000021459128     0.000004590120     0.000026990585
      11       -0.000388923390     0.007829693189    -0.000500239023
      12       -0.000008438012    -0.000002214298    -0.000003876194
      13        0.000191193424    -0.002133332672     0.009305837820
      14       -0.000100672387    -0.000262471596    -0.007023929911
      15        0.000054166296    -0.000005395736    -0.000004236008

  **** Optimization is complete! (in 6 steps) ****
    Final optimized geometry and variables:
    Molecular point group: c1

    Geometry (in Angstrom), charge = 0, multiplicity = 1:

    H           -3.514671980778    -0.009650569606    -0.785868800475
    O           -3.111500361017    -0.251260446311     0.036378523578
    C           -1.775619940983    -0.070700030247    -0.009926470113
    C           -1.128611951049     0.421956090397    -1.132017098127
    C           -1.046190086038    -0.402469532809     1.125192151199
    H           -1.689899470232     0.665878370075    -2.017854197884
    C            0.245613276957     0.595362438749    -1.111250604346
    H           -1.563986296453    -0.792376171112     1.981235195404
    C            0.323583209019    -0.243757673446     1.125970757100
    H            0.737447375614     0.980018580928    -1.988044861190
    C            0.982656964768     0.281159270691     0.018286637287
    H            0.888648713569    -0.527714323523     1.995432868935
    C            2.475779993868     0.373575647649    -0.011604759413
    O            3.195135965236    -0.572024719298     0.019512194761
    H            2.895760221929     1.377452969266    -0.127300522971

  Mulliken Charges: (a.u.)
   Center  Symbol    Alpha    Beta     Spin     Total
       1     H     0.27000  0.27000  0.00000  0.45999
       2     O     4.37551  4.37551  0.00000 -0.75102
       3     C     2.79099  2.79099  0.00000  0.41801
       4     C     3.14314  3.14314  0.00000 -0.28628
       5     C     3.12291  3.12291  0.00000 -0.24582
       6     H     0.39974  0.39974  0.00000  0.20052
       7     C     3.09494  3.09494  0.00000 -0.18988
       8     H     0.38667  0.38667  0.00000  0.22666
       9     C     3.08865  3.08865  0.00000 -0.17730
      10     H     0.39166  0.39166  0.00000  0.21669
      11     C     3.04525  3.04525  0.00000 -0.09051
      12     H     0.38686  0.38686  0.00000  0.22627
      13     C     2.85437  2.85437  0.00000  0.29125
      14     O     4.22414  4.22414  0.00000 -0.44827
      15     H     0.42516  0.42516  0.00000  0.14968

   Total alpha = 32.00000, Total beta = 32.00000, Total charge =  0.00000
