                              Psi4 1.0.54 Driver

  ==> Input File <==

--------------------------------------------------------------------------
set {
	reference rhf
	basis cc-pvtz
}

set_num_threads( 4 )
memory 2 gb

molecule MOL {
0 1

H	 -3.144994	 -1.202467	 -0.018751
O	 -2.321472	 -0.864941	 -0.318626
C	 -2.021813	 0.336996	 0.342658
C	 -0.669613	 0.837286	 -0.127252
H	 -2.780861	 1.084746	 0.127159
H	 -2.006390	 0.184138	 1.420053
C	 0.490865	 -0.082543	 0.241244
H	 -0.708709	 0.967192	 -1.204587
H	 -0.507562	 1.822272	 0.303070
C	 1.839800	 0.429565	 -0.255472
H	 0.305636	 -1.070211	 -0.165276
H	 0.527397	 -0.195943	 1.322876
C	 1.758143	 1.817219	 -0.882796
H	 2.541699	 0.450995	 0.573734
H	 2.247716	 -0.269613	 -0.981036
H	 1.386660	 2.546250	 -0.170456
H	 2.731033	 2.153154	 -1.223292
H	 1.089250	 1.821847	 -1.737200

	symmetry c1
}
set optking {
	frozen_dihedral = ("
		14 10 7 11
	")
}

ee,wfn = optimize('scf', return_wfn=True)
oeprop( wfn, 'DIPOLE', 'QUADRUPOLE', 'MULLIKEN_CHARGES')
f=open( 'psi4out.xyz', 'w' )
f.write( "18  " )
f.write( str(ee) + "\n" )
f.write( MOL.save_string_xyz() )
f.close()
--------------------------------------------------------------------------

    Molecular point group: c1
  Charge       = 0
  Multiplicity = 1
  Basis Set: CC-PVTZ
  Basis Set:
  @DF-RHF Final Energy:  -271.27241955787872
    Total Energy =                       -271.2724195578788340
    Molecular point group: c1
  Basis Set: CC-PVTZ
  Basis Set:
  Basis Set: CC-PVTZ
  Basis Set:
  @DF-RHF Final Energy:  -270.74407404350643
    Total Energy =                       -270.7440740435064299
  Basis Set: CC-PVTZ
  Basis Set:
  Basis Set: CC-PVTZ
  Basis Set:
  @DF-RHF Final Energy:  -270.93204758905574
    Total Energy =                       -270.9320475890557987
  Basis Set: CC-PVTZ
  Basis Set:
  Basis Set: CC-PVTZ
  Basis Set:
  @DF-RHF Final Energy:  -271.18415645187952
    Total Energy =                       -271.1841564518793462
  Basis Set: CC-PVTZ
  Basis Set:
  @DF-RHF Final Energy:  -271.26880675783877
    Total Energy =                       -271.2688067578390019
  @DF-RHF Final Energy:  -271.27612295957454
    Total Energy =                       -271.2761229595744226
  @DF-RHF Final Energy:  -271.27680794024855
    Total Energy =                       -271.2768079402484886
  Basis Set: CC-PVTZ
  Basis Set:
  @DF-RHF Final Energy:  -271.27683788719241
    Total Energy =                       -271.2768378871925279
  Basis Set: CC-PVTZ
  Basis Set:
  Basis Set: CC-PVTZ
  Basis Set:
  @DF-RHF Final Energy:  -271.27684184674968
    Total Energy =                       -271.2768418467495621
  Basis Set: CC-PVTZ
  Basis Set:
  Basis Set: CC-PVTZ
  Basis Set:
  @DF-RHF Final Energy:  -271.27684334424629
    Total Energy =                       -271.2768433442462879
  Basis Set: CC-PVTZ
  Basis Set:
  Charge       = 0
  Multiplicity = 1
  Basis Set: CC-PVTZ
  Basis Set:

    Orbital Energies (a.u.)
    -----------------------

    Doubly Occupied:

       1A    -20.546052     2A    -11.265564     3A    -11.209738
       4A    -11.209687     5A    -11.205165     6A    -11.203109
       7A     -1.363947     8A     -1.072223     9A     -1.006231
      10A     -0.915934    11A     -0.834567    12A     -0.765229
      13A     -0.708400    14A     -0.639429    15A     -0.624510
      16A     -0.600835    17A     -0.562484    18A     -0.551033
      19A     -0.529086    20A     -0.511020    21A     -0.492117
      22A     -0.464444    23A     -0.450855    24A     -0.443635
      25A     -0.429671

  @DF-RHF Final Energy:  -271.27684355344053

   => Energetics <=

    Nuclear Repulsion Energy =            252.1147400641772833
    One-Electron Energy =                -867.5732371219663719
    Two-Electron Energy =                 344.1816535043487875
    DFT Exchange-Correlation Energy =       0.0000000000000000
    Empirical Dispersion Energy =           0.0000000000000000
    PCM Polarization Energy =               0.0000000000000000
    EFP Energy =                            0.0000000000000000
    Total Energy =                       -271.2768435534403579
    Molecular point group: c1
  Basis Set: CC-PVTZ
  Basis Set:

  -Total Gradient:
     Atom            X                  Y                   Z
    ------   -----------------  -----------------  -----------------
       1       -0.000015294131    -0.000005066910    -0.000001566330
       2        0.000009295090     0.000030367748     0.000036486274
       3        0.000032111552     0.000014566174    -0.000000943200
       4       -0.000035813832    -0.000019399629     0.000004880962
       5        0.000001934578    -0.000008980950    -0.000005312913
       6        0.000004983660    -0.000007474654    -0.000020515005
       7       -0.000104184850    -0.001075433047     0.002333202515
       8       -0.000003244881    -0.000013472752     0.000018819677
       9       -0.000000049629    -0.000001944346    -0.000003072332
      10        0.001168078492    -0.002070933063    -0.000948618277
      11       -0.000054942402     0.001246551537    -0.001810817475
      12        0.000002705749     0.000015193741    -0.000020589811
      13        0.000021620734     0.000000832571    -0.000010006499
      14       -0.000993952248     0.001903848238     0.000420152502
      15       -0.000008356921     0.000010436904     0.000002587855
      16       -0.000000089732    -0.000009801214    -0.000005443851
      17       -0.000034857497    -0.000012351325    -0.000003787401
      18        0.000010056263     0.000003060974     0.000014543309

  **** Optimization is complete! (in 11 steps) ****
    Final optimized geometry and variables:
    Molecular point group: c1

    Geometry (in Angstrom), charge = 0, multiplicity = 1:

    H           -2.354802095054    -1.794546903782    -1.620175528161
    O           -1.565467198301    -1.330056048020    -1.412623857414
    C           -1.841065781094    -0.284566095590    -0.516548882930
    C           -0.546809598823     0.424519679432    -0.164166540998
    H           -2.530430185449     0.424675083885    -0.967648546115
    H           -2.310139156282    -0.671704800369     0.385913271206
    C            0.428670107737    -0.469803969847     0.603314837610
    H           -0.096620641368     0.775928288832    -1.085888594521
    H           -0.801436792612     1.303081793995     0.419619770153
    C            1.796833808924     0.154408309894     0.986572751802
    H            0.601640376635    -1.347531816320    -0.004667634060
    H           -0.069641793290    -0.814013140531     1.504312437143
    C            1.986457226626     1.647214176622     0.713144381650
    H            1.960986510799    -0.000406009690     2.047460202275
    H            2.586962031668    -0.385040068815     0.476916413726
    H            1.265144932470     2.252530862871     1.250038517674
    H            2.973755453603     1.956853340428     1.036887162098
    H            1.900605138662     1.884989787246    -0.340046935816

  Mulliken Charges: (a.u.)
   Center  Symbol    Alpha    Beta     Spin     Total
       1     H     0.39564  0.39564  0.00000  0.20871
       2     O     4.19901  4.19901  0.00000 -0.39802
       3     C     2.97466  2.97466  0.00000  0.05069
       4     C     3.09212  3.09212  0.00000 -0.18424
       5     H     0.46501  0.46501  0.00000  0.06998
       6     H     0.47349  0.47349  0.00000  0.05302
       7     C     3.09886  3.09886  0.00000 -0.19772
       8     H     0.45014  0.45014  0.00000  0.09972
       9     H     0.45282  0.45282  0.00000  0.09435
      10     C     3.08743  3.08743  0.00000 -0.17487
      11     H     0.44164  0.44164  0.00000  0.11673
      12     H     0.45600  0.45600  0.00000  0.08800
      13     C     3.15729  3.15729  0.00000 -0.31459
      14     H     0.45263  0.45263  0.00000  0.09475
      15     H     0.45086  0.45086  0.00000  0.09829
      16     H     0.45471  0.45471  0.00000  0.09059
      17     H     0.44513  0.44513  0.00000  0.10973
      18     H     0.45257  0.45257  0.00000  0.09486

   Total alpha = 25.00000, Total beta = 25.00000, Total charge = -0.00000

*** Psi4 exiting successfully. Buy a developer a beer!
