  ==> Input File <==

--------------------------------------------------------------------------
set {
	reference rhf
	basis cc-pvtz
}

set_num_threads( 4 )
memory 2 gb

molecule MOL {
0 1

H	 3.003058	 -0.856456	 -1.450991
O	 2.094336	 -1.085114	 -1.524237
C	 1.324647	 -0.284267	 -0.761550
C	 1.856895	 0.733985	 0.014694
C	 -0.037500	 -0.504516	 -0.769757
H	 2.918234	 0.904166	 0.019902
C	 1.027258	 1.528503	 0.779809
H	 -0.451624	 -1.290134	 -1.368212
C	 -0.861704	 0.296439	 0.000000
H	 1.450299	 2.313293	 1.376436
C	 -0.336456	 1.314737	 0.777179
C	 -2.330689	 0.069587	 0.000000
H	 -0.984089	 1.930937	 1.371113
O	 -2.848621	 -0.993976	 0.000000
H	 -2.934306	 0.982410	 0.000000

	symmetry c1
}
set optking {
	frozen_dihedral = ("
		11 9 12 14
	")
}

ee = optimize('scf')
oeprop('DIPOLE', 'QUADRUPOLE', 'MULLIKEN_CHARGES')
f=open( 'psi4out.xyz', 'w' )
f.write( "15  " )
f.write( str(ee) + "\n" )
f.write( MOL.save_string_xyz() )
f.close()
--------------------------------------------------------------------------

    Molecular point group: c1
  Charge       = 0
  Multiplicity = 1
  Basis Set: CC-PVTZ
  Basis Set:
  @DF-RHF Final Energy:  -418.43416618537321
    Total Energy =                       -418.4341661853732148
    Molecular point group: c1
  Basis Set: CC-PVTZ
  Basis Set:
  Basis Set: CC-PVTZ
  Basis Set:
  @DF-RHF Final Energy:  -418.43238934478700
    Total Energy =                       -418.4323893447863156
  Basis Set: CC-PVTZ
  Basis Set:
  Basis Set: CC-PVTZ
  Basis Set:
  @DF-RHF Final Energy:  -418.43460369590906
    Total Energy =                       -418.4346036959093453
  Basis Set: CC-PVTZ
  Basis Set:
  Basis Set: CC-PVTZ
  Basis Set:
  @DF-RHF Final Energy:  -418.43471174235344
    Total Energy =                       -418.4347117423532154
  Basis Set: CC-PVTZ
  Basis Set:
  Basis Set: CC-PVTZ
  Basis Set:
  @DF-RHF Final Energy:  -418.43471294212696
    Total Energy =                       -418.4347129421272484
  Basis Set: CC-PVTZ
  Basis Set:
  Charge       = 0
  Multiplicity = 1
  Basis Set: CC-PVTZ
  Basis Set:

    Orbital Energies (a.u.)
    -----------------------

    Doubly Occupied:

       1A    -20.595716     2A    -20.557817     3A    -11.329398
       4A    -11.311611     5A    -11.252495     6A    -11.250467
       7A    -11.244458     8A    -11.241095     9A    -11.237266
      10A     -1.427531    11A     -1.413062    12A     -1.173477
      13A     -1.051427    14A     -1.029781    15A     -0.902241
      16A     -0.848830    17A     -0.818146    18A     -0.740901
      19A     -0.705417    20A     -0.688162    21A     -0.649600
      22A     -0.642843    23A     -0.616057    24A     -0.607736
      25A     -0.582902    26A     -0.550892    27A     -0.542515
      28A     -0.516805    29A     -0.494077    30A     -0.427283
      31A     -0.357790    32A     -0.329733

  @DF-RHF Final Energy:  -418.43471325969745

   => Energetics <=

    Nuclear Repulsion Energy =            403.9616215534094863
    One-Electron Energy =               -1370.5176141538240699
    Two-Electron Energy =                 548.1212793407164554
    DFT Exchange-Correlation Energy =       0.0000000000000000
    Empirical Dispersion Energy =           0.0000000000000000
    PCM Polarization Energy =               0.0000000000000000
    EFP Energy =                            0.0000000000000000
    Total Energy =                       -418.4347132596981282
    Molecular point group: c1
  Basis Set: CC-PVTZ
  Basis Set:

  -Total Gradient:
     Atom            X                  Y                   Z
    ------   -----------------  -----------------  -----------------
       1       -0.000005392511     0.000017168574    -0.000013713472
       2        0.000002316716    -0.000012576280     0.000029123260
       3       -0.000027087968    -0.000012601533    -0.000013990537
       4       -0.000006174981     0.000034997780     0.000004264468
       5        0.000034955720     0.000003130616    -0.000037684224
       6        0.000002205630    -0.000004879000     0.000002572832
       7        0.000046098010    -0.000029337180     0.000004028903
       8       -0.000003531363     0.000004401059     0.000001246016
       9       -0.000880374119     0.004496833712    -0.002427262949
      10       -0.000000053434    -0.000001289254    -0.000001792968
      11        0.000636429758    -0.003160285705     0.003528989539
      12       -0.000006361005    -0.001143993416    -0.007068362273
      13       -0.000000081906    -0.000003101500     0.000005291879
      14        0.000209143868    -0.000177168785     0.005986127802
      15       -0.000002092409    -0.000011299090     0.000001161721

  **** Optimization is complete! (in 6 steps) ****
    Final optimized geometry and variables:
    Molecular point group: c1

    Geometry (in Angstrom), charge = 0, multiplicity = 1:

    H            3.013106374361    -0.948426871203    -1.224571394149
    O            2.101914076944    -1.160134400876    -1.317734754601
    C            1.333739296712    -0.353691160863    -0.560546750411
    C            1.866804793135     0.652947953936     0.227613064845
    C           -0.031575767971    -0.564832482057    -0.580843931860
    H            2.929842056290     0.810357085393     0.250099262868
    C            1.033151917927     1.451644964866     0.985283176390
    H           -0.438579622866    -1.363566108159    -1.167513011388
    C           -0.858493691811     0.256188129800     0.161204568829
    H            1.456378610725     2.222112331996     1.600363188001
    C           -0.333562066926     1.265073838993     0.951618238654
    C           -2.324793276538    -0.006839884687     0.206253667194
    H           -0.982147537708     1.892623273887     1.532845955982
    O           -2.806639731170    -1.086126683288     0.191991606163
    H           -2.953499175617     0.882405780103     0.317714650897

  Mulliken Charges: (a.u.)
   Center  Symbol    Alpha    Beta     Spin     Total
       1     H     0.38700  0.38700  0.00000  0.22600
       2     O     4.17022  4.17022  0.00000 -0.34044
       3     C     2.83947  2.83947  0.00000  0.32106
       4     C     3.13124  3.13124  0.00000 -0.26248
       5     C     3.12312  3.12312  0.00000 -0.24625
       6     H     0.43182  0.43182  0.00000  0.13635
       7     C     3.06080  3.06080  0.00000 -0.12161
       8     H     0.40945  0.40945  0.00000  0.18111
       9     C     2.95025  2.95025  0.00000  0.09949
      10     H     0.41948  0.41948  0.00000  0.16104
      11     C     3.11274  3.11274  0.00000 -0.22549
      12     C     2.92129  2.92129  0.00000  0.15742
      13     H     0.42405  0.42405  0.00000  0.15190
      14     O     4.16266  4.16266  0.00000 -0.32532
      15     H     0.45640  0.45640  0.00000  0.08721

   Total alpha = 32.00000, Total beta = 32.00000, Total charge = -0.00000
