  ==> Input File <==

--------------------------------------------------------------------------
set {
	reference rhf
	basis cc-pvtz
}

set_num_threads( 4 )
memory 2 gb

molecule MOL {
0 1

H	 -3.144994	 -1.202467	 -0.018751
O	 -2.321472	 -0.864941	 -0.318626
C	 -2.021813	 0.336996	 0.342658
C	 -0.669613	 0.837286	 -0.127252
H	 -2.780861	 1.084746	 0.127159
H	 -2.006390	 0.184138	 1.420053
C	 0.490865	 -0.082543	 0.241244
H	 -0.708709	 0.967192	 -1.204587
H	 -0.507562	 1.822272	 0.303070
C	 0.471355	 -0.511253	 1.705633
H	 1.426540	 0.419156	 0.022456
H	 0.460063	 -0.967556	 -0.391151
C	 1.626459	 -1.436797	 2.072904
H	 0.504086	 0.372149	 2.337481
H	 -0.470665	 -1.007310	 1.925214
H	 2.582877	 -0.955699	 1.897621
H	 1.585775	 -1.721393	 3.118205
H	 1.602569	 -2.346315	 1.481590

	symmetry c1
}
set optking {
	frozen_dihedral = ("
		10 7 4 8
	")
}

ee = optimize('scf')
oeprop('DIPOLE', 'QUADRUPOLE', 'MULLIKEN_CHARGES')
f=open( 'psi4out.xyz', 'w' )
f.write( "18  " )
f.write( str(ee) + "\n" )
f.write( MOL.save_string_xyz() )
f.close()
--------------------------------------------------------------------------

    Molecular point group: c1
  Charge       = 0
  Multiplicity = 1
  Basis Set: CC-PVTZ
  Basis Set:
  @DF-RHF Final Energy:  -271.28288241648454
    Total Energy =                       -271.2828824164844264
    Molecular point group: c1
  Basis Set: CC-PVTZ
  Basis Set:
  Basis Set: CC-PVTZ
  Basis Set:
  @DF-RHF Final Energy:  -271.28390477994373
    Total Energy =                       -271.2839047799438390
  Basis Set: CC-PVTZ
  Basis Set:
  Basis Set: CC-PVTZ
  Basis Set:
  @DF-RHF Final Energy:  -271.28453785431907
    Total Energy =                       -271.2845378543192965
  Basis Set: CC-PVTZ
  Basis Set:
  Basis Set: CC-PVTZ
  Basis Set:
  @DF-RHF Final Energy:  -271.28459875836677
    Total Energy =                       -271.2845987583666556
  Basis Set: CC-PVTZ
  Basis Set:
  Basis Set: CC-PVTZ
  Basis Set:
  @DF-RHF Final Energy:  -271.28460521228533
    Total Energy =                       -271.2846052122852143
  Basis Set: CC-PVTZ
  Basis Set:
  Charge       = 0
  Multiplicity = 1
  Basis Set: CC-PVTZ
  Basis Set:

    Orbital Energies (a.u.)
    -----------------------

    Doubly Occupied:

       1A    -20.546976     2A    -11.265105     3A    -11.211066
       4A    -11.207845     5A    -11.205361     6A    -11.202366
       7A     -1.364573     8A     -1.075312     9A     -1.007812
      10A     -0.914286    11A     -0.832945    12A     -0.768280
      13A     -0.707896    14A     -0.646440    15A     -0.627411
      16A     -0.586107    17A     -0.563727    18A     -0.553048
      19A     -0.540216    20A     -0.499742    21A     -0.490342
      22A     -0.463634    23A     -0.456901    24A     -0.448265
      25A     -0.431910

  @DF-RHF Final Energy:  -271.28460602286691

   => Energetics <=

    Nuclear Repulsion Energy =            254.8906711927083109
    One-Electron Energy =                -873.1154215231101716
    Two-Electron Energy =                 346.9401443075349789
    DFT Exchange-Correlation Energy =       0.0000000000000000
    Empirical Dispersion Energy =           0.0000000000000000
    PCM Polarization Energy =               0.0000000000000000
    EFP Energy =                            0.0000000000000000
    Total Energy =                       -271.2846060228669103
    Molecular point group: c1
  Basis Set: CC-PVTZ
  Basis Set:

  -Total Gradient:
     Atom            X                  Y                   Z
    ------   -----------------  -----------------  -----------------
       1        0.000004570760    -0.000001350449     0.000007711144
       2       -0.000024717036     0.000009211230    -0.000032795480
       3       -0.000013884705    -0.000015620945     0.000023262862
       4        0.001789746905     0.002066902261     0.000039744154
       5        0.000002456249     0.000004164055    -0.000000909910
       6       -0.000000381961    -0.000003255209     0.000010850988
       7        0.001419470712     0.001993134813     0.000701981736
       8       -0.001873461210    -0.002306680120    -0.000211049827
       9       -0.000003518944    -0.000001933780    -0.000008070065
      10       -0.001263222640    -0.001722798310    -0.000510514139
      11       -0.000009058742    -0.000008148155     0.000006916220
      12       -0.000000092402    -0.000016316927    -0.000013005176
      13       -0.000000183415     0.000002379399    -0.000005810811
      14       -0.000009984846    -0.000002058097    -0.000005218033
      15       -0.000016619300    -0.000004673211     0.000000451444
      16       -0.000000348822     0.000002256044    -0.000000774988
      17       -0.000001557792     0.000006682967    -0.000004820718
      18        0.000000787184    -0.000001895569     0.000002050595

  **** Optimization is complete! (in 6 steps) ****
    Final optimized geometry and variables:
    Molecular point group: c1

    Geometry (in Angstrom), charge = 0, multiplicity = 1:

    H           -2.744087134257    -0.828938236500    -0.675660098270
    O           -1.884405970908    -0.542399137345    -0.922295755373
    C           -1.609444861925     0.710606345104    -0.350518685064
    C           -0.217096616454     1.148891334962    -0.769084808887
    H           -2.330011140272     1.448979771611    -0.693243664893
    H           -1.687377578879     0.659590046603     0.731596189141
    C            0.915597979151     0.191122575594    -0.386575959496
    H           -0.228673226540     1.257007189937    -1.848745466115
    H           -0.036375701586     2.132166544602    -0.343663433967
    C            0.928630829024    -0.262291511999     1.071590924328
    H            1.859857768037     0.675249219214    -0.619747998303
    H            0.857912290037    -0.687976680303    -1.018943236551
    C            2.155161585442    -1.103868633681     1.409894784676
    H            0.897715664901     0.604837246208     1.727814619870
    H            0.035817760522    -0.840739031815     1.279536131548
    H            3.071004849528    -0.542884374506     1.255863487172
    H            2.136343093534    -1.428728587356     2.444065127716
    H            2.203023803703    -1.990044459026     0.785826774918

  Mulliken Charges: (a.u.)
   Center  Symbol    Alpha    Beta     Spin     Total
       1     H     0.39547  0.39547  0.00000  0.20906
       2     O     4.20095  4.20095  0.00000 -0.40190
       3     C     2.98143  2.98143  0.00000  0.03715
       4     C     3.09995  3.09995  0.00000 -0.19989
       5     H     0.45945  0.45945  0.00000  0.08110
       6     H     0.46855  0.46855  0.00000  0.06291
       7     C     3.08671  3.08671  0.00000 -0.17342
       8     H     0.44867  0.44867  0.00000  0.10266
       9     H     0.45237  0.45237  0.00000  0.09526
      10     C     3.08859  3.08859  0.00000 -0.17719
      11     H     0.45120  0.45120  0.00000  0.09760
      12     H     0.44841  0.44841  0.00000  0.10318
      13     C     3.15082  3.15082  0.00000 -0.30163
      14     H     0.45684  0.45684  0.00000  0.08633
      15     H     0.45127  0.45127  0.00000  0.09746
      16     H     0.45560  0.45560  0.00000  0.08879
      17     H     0.44975  0.44975  0.00000  0.10049
      18     H     0.45398  0.45398  0.00000  0.09204

   Total alpha = 25.00000, Total beta = 25.00000, Total charge = -0.00000
