                              Psi4 1.0.54 Driver

  ==> Input File <==

--------------------------------------------------------------------------
set {
	reference rhf
	basis cc-pvtz
}

set_num_threads( 4 )
memory 2 gb

molecule MOL {
0 1

H	 3.406323	 -0.537834	 -1.249772
O	 2.494141	 -0.740684	 -1.106692
C	 2.076458	 -0.067370	 -0.038225
C	 0.626018	 -0.337582	 0.258241
O	 2.793176	 0.646031	 0.574324
C	 -0.267326	 0.883135	 0.076490
H	 0.325620	 -1.161483	 -0.378003
H	 0.574537	 -0.713685	 1.275261
C	 -1.726822	 0.642622	 0.463839
H	 -0.210803	 1.217591	 -0.953497
H	 0.129920	 1.693110	 0.675679
C	 -2.480891	 -0.340606	 -0.429852
H	 -2.243098	 1.597649	 0.438609
H	 -1.776542	 0.301208	 1.495542
C	 -3.955933	 -0.460128	 -0.060472
H	 -2.393755	 -0.020485	 -1.464726
H	 -2.024244	 -1.323637	 -0.374360
H	 -4.467673	 -1.160944	 -0.709827
H	 -4.458917	 0.497287	 -0.144505
H	 -4.076458	 -0.806900	 0.960497

	symmetry c1
}
set optking {
	frozen_dihedral = ("
		5 3 4 7
	")
}

ee,wfn = optimize('scf', return_wfn=True)
oeprop( wfn, 'DIPOLE', 'QUADRUPOLE', 'MULLIKEN_CHARGES')
f=open( 'psi4out.xyz', 'w' )
f.write( "20  " )
f.write( str(ee) + "\n" )
f.write( MOL.save_string_xyz() )
f.close()
--------------------------------------------------------------------------

    Molecular point group: c1
  Charge       = 0
  Multiplicity = 1
  Basis Set: CC-PVTZ
  Basis Set:
  @DF-RHF Final Energy:  -384.09264809175272
    Total Energy =                       -384.0926480917526078
    Molecular point group: c1
  Basis Set: CC-PVTZ
  Basis Set:
  Basis Set: CC-PVTZ
  Basis Set:
  @DF-RHF Final Energy:  -384.09333577498325
    Total Energy =                       -384.0933357749831885
  Basis Set: CC-PVTZ
  Basis Set:
  Basis Set: CC-PVTZ
  Basis Set:
  @DF-RHF Final Energy:  -384.09335278336528
    Total Energy =                       -384.0933527833648213
  Basis Set: CC-PVTZ
  Basis Set:
  Basis Set: CC-PVTZ
  Basis Set:
  @DF-RHF Final Energy:  -384.09329233676749
    Total Energy =                       -384.0932923367669787
  Basis Set: CC-PVTZ
  Basis Set:
  Basis Set: CC-PVTZ
  Basis Set:
  @DF-RHF Final Energy:  -384.09342493679253
    Total Energy =                       -384.0934249367922462
  Basis Set: CC-PVTZ
  Basis Set:
  Charge       = 0
  Multiplicity = 1
  Basis Set: CC-PVTZ
  Basis Set:

    Orbital Energies (a.u.)
    -----------------------

    Doubly Occupied:

       1A    -20.605916     2A    -20.537386     3A    -11.372668
       4A    -11.236864     5A    -11.228917     6A    -11.221192
       7A    -11.219838     8A    -11.211657     9A     -1.477572
      10A     -1.367696    11A     -1.099611    12A     -1.042804
      13A     -0.962010    14A     -0.868502    15A     -0.821337
      16A     -0.787335    17A     -0.705725    18A     -0.690630
      19A     -0.645472    20A     -0.644207    21A     -0.616296
      22A     -0.595692    23A     -0.576701    24A     -0.555847
      25A     -0.548986    26A     -0.514310    27A     -0.502904
      28A     -0.481917    29A     -0.475138    30A     -0.467054
      31A     -0.460935    32A     -0.441442

  @DF-RHF Final Energy:  -384.09342499861759

   => Energetics <=

    Nuclear Repulsion Energy =            376.9006530074416332
    One-Electron Energy =               -1270.0190316824023284
    Two-Electron Energy =                 509.0249536763432729
    DFT Exchange-Correlation Energy =       0.0000000000000000
    Empirical Dispersion Energy =           0.0000000000000000
    PCM Polarization Energy =               0.0000000000000000
    EFP Energy =                            0.0000000000000000
    Total Energy =                       -384.0934249986174223
    Molecular point group: c1
  Basis Set: CC-PVTZ
  Basis Set:

  -Total Gradient:
     Atom            X                  Y                   Z
    ------   -----------------  -----------------  -----------------
       1       -0.000015163661     0.000002134411     0.000015756269
       2       -0.000018164727    -0.000041966639    -0.000031762031
       3        0.000063042470    -0.000027149939     0.000102707087
       4        0.000029224563    -0.000035713130     0.000046858113
       5       -0.000042907730     0.000078469136    -0.000043644609
       6        0.000017968537    -0.000012778902    -0.000033269847
       7       -0.000015356872     0.000077775229    -0.000067158659
       8        0.000001885603    -0.000010393736     0.000002874223
       9        0.000000145873    -0.000039342697     0.000024345610
      10       -0.000004293839    -0.000010665373    -0.000003819214
      11       -0.000000086306     0.000006430365    -0.000014992016
      12       -0.000007241713    -0.000003474814     0.000003419399
      13        0.000018909748     0.000006274170     0.000011035260
      14        0.000001518308    -0.000016614638     0.000000895057
      15       -0.000001413834     0.000011970109    -0.000008317658
      16        0.000001981656    -0.000005044109    -0.000009110966
      17       -0.000029624138     0.000017154261     0.000005582217
      18        0.000000311856     0.000002911723    -0.000001183958
      19       -0.000004687670     0.000000598493     0.000001688598
      20        0.000003951881    -0.000000573917    -0.000001902879

  **** Optimization is complete! (in 6 steps) ****
    Final optimized geometry and variables:
    Molecular point group: c1

    Geometry (in Angstrom), charge = 0, multiplicity = 1:

    H            3.450650939161    -0.438539122182    -1.203698935267
    O            2.549378304699    -0.696978745709    -1.079362166629
    C            2.084958977800    -0.085567200438     0.004813454857
    C            0.641924892845    -0.406863983466     0.293241999296
    O            2.756015768853     0.643106997179     0.652064829770
    C           -0.242252053320     0.831285928894     0.100023041069
    H            0.324485509431    -1.222369898574    -0.338203475143
    H            0.592248503827    -0.729919608271     1.326321152790
    C           -1.701414790124     0.617967322781     0.502497113003
    H           -0.195655871643     1.145946350216    -0.938892639468
    H            0.174144062658     1.638441936860     0.689494063798
    C           -2.477123729870    -0.369001421951    -0.367841796616
    H           -2.202969186598     1.580592496599     0.465999487041
    H           -1.743298885870     0.295061298310     1.540019666076
    C           -3.949113285150    -0.464161548963     0.020543473344
    H           -2.398085560804    -0.066189746369    -1.408625234110
    H           -2.031362513637    -1.356111067299    -0.302237357789
    H           -4.476084781342    -1.170718006083    -0.610042881597
    H           -4.442224213035     0.497283671651    -0.075344250465
    H           -4.061829725405    -0.790882243386     1.048951375600

  Mulliken Charges: (a.u.)
   Center  Symbol    Alpha    Beta     Spin     Total
       1     H     0.38041  0.38041  0.00000  0.23918
       2     O     4.15909  4.15909  0.00000 -0.31818
       3     C     2.80568  2.80568  0.00000  0.38865
       4     C     3.09193  3.09193  0.00000 -0.18386
       5     O     4.19924  4.19924  0.00000 -0.39848
       6     C     3.10852  3.10852  0.00000 -0.21703
       7     H     0.43868  0.43868  0.00000  0.12265
       8     H     0.44099  0.44099  0.00000  0.11801
       9     C     3.09818  3.09818  0.00000 -0.19636
      10     H     0.44830  0.44830  0.00000  0.10340
      11     H     0.43326  0.43326  0.00000  0.13348
      12     C     3.08690  3.08690  0.00000 -0.17379
      13     H     0.44574  0.44574  0.00000  0.10853
      14     H     0.45177  0.45177  0.00000  0.09646
      15     C     3.14959  3.14959  0.00000 -0.29918
      16     H     0.45287  0.45287  0.00000  0.09426
      17     H     0.45322  0.45322  0.00000  0.09356
      18     H     0.44748  0.44748  0.00000  0.10504
      19     H     0.45372  0.45372  0.00000  0.09256
      20     H     0.45444  0.45444  0.00000  0.09111

   Total alpha = 32.00000, Total beta = 32.00000, Total charge = -0.00000

*** Psi4 exiting successfully. Buy a developer a beer!
