  ==> Input File <==

--------------------------------------------------------------------------
set {
	reference rhf
	basis 6-31G*
}

set_num_threads( 4 )
memory 2 gb

molecule MOL {
0 1

H	 1.148083	 -1.049780	 0.784252
O	 1.319262	 -0.618148	 -0.041729
C	 0.709265	 0.639550	 -0.033818
C	 0.409984	 1.171676	 1.343082
H	 -0.214314	 0.531195	 -0.591011
H	 1.314725	 1.366715	 -0.573887
C	 0.534226	 0.492555	 2.465634
H	 0.065384	 2.193907	 1.370949
H	 0.857079	 -0.532690	 2.473901
H	 0.302749	 0.937042	 3.416857

	symmetry c1
}
set optking {
	frozen_dihedral = ("
		5 3 2 1
	")
}

ee = optimize('scf')
oeprop('DIPOLE', 'QUADRUPOLE', 'MULLIKEN_CHARGES')
f=open( 'psi4out.xyz', 'w' )
f.write( "10  " )
f.write( str(ee) + "\n" )
f.write( MOL.save_string_xyz() )
f.close()
--------------------------------------------------------------------------

    Molecular point group: c1
  Charge       = 0
  Multiplicity = 1
  Basis Set: 6-31G*
  Basis Set:
  @DF-RHF Final Energy:  -191.91023256216815
    Total Energy =                       -191.9102325621680905
    Molecular point group: c1
  Basis Set: 6-31G*
  Basis Set:
  Basis Set: 6-31G*
  Basis Set:
  @DF-RHF Final Energy:  -191.91218936961803
    Total Energy =                       -191.9121893696179768
  Basis Set: 6-31G*
  Basis Set:
  Basis Set: 6-31G*
  Basis Set:
  @DF-RHF Final Energy:  -191.91307580695431
    Total Energy =                       -191.9130758069543390
  Basis Set: 6-31G*
  Basis Set:
  Basis Set: 6-31G*
  Basis Set:
  @DF-RHF Final Energy:  -191.91336149482731
    Total Energy =                       -191.9133614948273419
  Basis Set: 6-31G*
  Basis Set:
  @DF-RHF Final Energy:  -191.91360681360902
    Total Energy =                       -191.9136068136090501
  @DF-RHF Final Energy:  -191.91381894235963
    Total Energy =                       -191.9138189423596828
  Basis Set: 6-31G*
  Basis Set:
  @DF-RHF Final Energy:  -191.91424671469687
    Total Energy =                       -191.9142467146968443
  Basis Set: 6-31G*
  Basis Set:
  Basis Set: 6-31G*
  Basis Set:
  @DF-RHF Final Energy:  -191.91433126943662
    Total Energy =                       -191.9143312694366159
  Basis Set: 6-31G*
  Basis Set:
  Basis Set: 6-31G*
  Basis Set:
  @DF-RHF Final Energy:  -191.91433478737815
    Total Energy =                       -191.9143347873781522
  Basis Set: 6-31G*
  Basis Set:
  Charge       = 0
  Multiplicity = 1
  Basis Set: 6-31G*
  Basis Set:

    Orbital Energies (a.u.)
    -----------------------

    Doubly Occupied:

       1A    -20.556787     2A    -11.278000     3A    -11.240541
       4A    -11.228755     5A     -1.366373     6A     -1.064603
       7A     -0.932917     8A     -0.775898     9A     -0.685433
      10A     -0.659831    11A     -0.622784    12A     -0.570773
      13A     -0.554298    14A     -0.482003    15A     -0.452003
      16A     -0.370822

  @DF-RHF Final Energy:  -191.91433492504044

   => Energetics <=

    Nuclear Repulsion Energy =            119.3446174650848377
    One-Electron Energy =                -496.8342602660804914
    Two-Electron Energy =                 185.5753078759551329
    DFT Exchange-Correlation Energy =       0.0000000000000000
    Empirical Dispersion Energy =           0.0000000000000000
    PCM Polarization Energy =               0.0000000000000000
    EFP Energy =                            0.0000000000000000
    Total Energy =                       -191.9143349250404924
    Molecular point group: c1
  Basis Set: 6-31G*
  Basis Set:

  -Total Gradient:
     Atom            X                  Y                   Z
    ------   -----------------  -----------------  -----------------
       1        0.003256650508     0.001058316065     0.002439556066
       2       -0.003351173739    -0.000994334503    -0.003691998240
       3       -0.002355580398    -0.000990515181     0.003801886643
       4       -0.000009663074     0.000001665585     0.000008446292
       5        0.002442538340     0.000932080270    -0.002565683313
       6        0.000003312774    -0.000016136982     0.000007396997
       7        0.000024128744     0.000013421615     0.000011057190
       8        0.000006972384     0.000004377637    -0.000000294590
       9       -0.000001910742    -0.000000419992    -0.000005210578
      10       -0.000015274797    -0.000008454512    -0.000005156468

  **** Optimization is complete! (in 10 steps) ****
    Final optimized geometry and variables:
    Molecular point group: c1

    Geometry (in Angstrom), charge = 0, multiplicity = 1:

    H            0.080069479836    -1.526648513918    -0.243957379503
    O            0.457916638804    -1.032915858301    -0.957271319974
    C            0.000148703410     0.288302968888    -0.908856726352
    C           -0.432125572064     0.762635175166     0.453048222119
    H           -0.805865739554     0.428723851010    -1.626061993009
    H            0.816122714010     0.915988419773    -1.255662406975
    C           -0.104659280717     0.206844257577     1.603240634960
    H           -1.049401997474     1.646635506930     0.451320926243
    H            0.533398201217    -0.657465635282     1.667602070910
    H           -0.452157321733     0.609691033699     2.537071498279

  Mulliken Charges: (a.u.)
   Center  Symbol    Alpha    Beta     Spin     Total
       1     H     0.27894  0.27894  0.00000  0.44213
       2     O     4.37350  4.37350  0.00000 -0.74701
       3     C     2.98953  2.98953  0.00000  0.02094
       4     C     3.09634  3.09634  0.00000 -0.19269
       5     H     0.42317  0.42317  0.00000  0.15366
       6     H     0.41138  0.41138  0.00000  0.17723
       7     C     3.20337  3.20337  0.00000 -0.40675
       8     H     0.40584  0.40584  0.00000  0.18832
       9     H     0.41076  0.41076  0.00000  0.17848
      10     H     0.40716  0.40716  0.00000  0.18569

   Total alpha = 16.00000, Total beta = 16.00000, Total charge =  0.00000
