                              Psi4 1.0.54 Driver

  ==> Input File <==

--------------------------------------------------------------------------
set {
	reference rhf
	basis cc-pvtz
}

set_num_threads( 4 )
memory 2 gb

molecule MOL {
0 1

H	 -3.144994	 -1.202467	 -0.018751
O	 -2.321472	 -0.864941	 -0.318626
C	 -2.021813	 0.336996	 0.342658
C	 -0.669613	 0.837286	 -0.127252
H	 -2.780861	 1.084746	 0.127159
H	 -2.006390	 0.184138	 1.420053
C	 0.490865	 -0.082543	 0.241244
H	 -0.708709	 0.967192	 -1.204587
H	 -0.507562	 1.822272	 0.303070
C	 1.839800	 0.429565	 -0.255472
H	 0.305636	 -1.070211	 -0.165276
H	 0.527397	 -0.195943	 1.322876
C	 3.017028	 -0.107319	 0.551792
H	 1.964675	 0.154299	 -1.299185
H	 1.848333	 1.516147	 -0.224548
H	 3.056335	 -1.190702	 0.511141
H	 3.959433	 0.272477	 0.173727
H	 2.939665	 0.180029	 1.595291

	symmetry c1
}
set optking {
	frozen_dihedral = ("
		14 10 7 11
	")
}

ee,wfn = optimize('scf', return_wfn=True)
oeprop( wfn, 'DIPOLE', 'QUADRUPOLE', 'MULLIKEN_CHARGES')
f=open( 'psi4out.xyz', 'w' )
f.write( "18  " )
f.write( str(ee) + "\n" )
f.write( MOL.save_string_xyz() )
f.close()
--------------------------------------------------------------------------

    Molecular point group: c1
  Charge       = 0
  Multiplicity = 1
  Basis Set: CC-PVTZ
  Basis Set:
  @DF-RHF Final Energy:  -271.28494650062783
    Total Energy =                       -271.2849465006277114
    Molecular point group: c1
  Basis Set: CC-PVTZ
  Basis Set:
  Basis Set: CC-PVTZ
  Basis Set:
  @DF-RHF Final Energy:  -271.28513980777734
    Total Energy =                       -271.2851398077774547
  Basis Set: CC-PVTZ
  Basis Set:
  Basis Set: CC-PVTZ
  Basis Set:
  @DF-RHF Final Energy:  -271.28521233793845
    Total Energy =                       -271.2852123379383897
  Basis Set: CC-PVTZ
  Basis Set:
  Charge       = 0
  Multiplicity = 1
  Basis Set: CC-PVTZ
  Basis Set:

    Orbital Energies (a.u.)
    -----------------------

    Doubly Occupied:

       1A    -20.546343     2A    -11.265831     3A    -11.210334
       4A    -11.209074     5A    -11.204916     6A    -11.202954
       7A     -1.364174     8A     -1.075876     9A     -1.009971
      10A     -0.914172    11A     -0.818361    12A     -0.784416
      13A     -0.708682    14A     -0.641466    15A     -0.627563
      16A     -0.585494    17A     -0.573183    18A     -0.556831
      19A     -0.524450    20A     -0.501398    21A     -0.490505
      22A     -0.467731    23A     -0.458625    24A     -0.449265
      25A     -0.430588

  @DF-RHF Final Energy:  -271.28521287871132

   => Energetics <=

    Nuclear Repulsion Energy =            249.1826898002686335
    One-Electron Energy =                -861.6913955196796451
    Two-Electron Energy =                 341.2234928406996914
    DFT Exchange-Correlation Energy =       0.0000000000000000
    Empirical Dispersion Energy =           0.0000000000000000
    PCM Polarization Energy =               0.0000000000000000
    EFP Energy =                            0.0000000000000000
    Total Energy =                       -271.2852128787112633
    Molecular point group: c1
  Basis Set: CC-PVTZ
  Basis Set:

  -Total Gradient:
     Atom            X                  Y                   Z
    ------   -----------------  -----------------  -----------------
       1       -0.000003968686    -0.000012896115    -0.000011019167
       2       -0.000025099374    -0.000023179037     0.000027580373
       3       -0.000029463294     0.000042376334    -0.000048638949
       4        0.000029687364    -0.000026680440     0.000065043095
       5       -0.000019992647    -0.000005776931     0.000011560521
       6        0.000005679719    -0.000007416244    -0.000013834948
       7        0.002620598501    -0.002645424177     0.004092940273
       8       -0.000009582756    -0.000005746043     0.000013870786
       9        0.000009315081     0.000013678215    -0.000008891818
      10       -0.002496341700     0.004445482361    -0.002093690741
      11       -0.001817057687     0.001547241744    -0.003129128197
      12       -0.000009202527     0.000008339079    -0.000011411818
      13        0.000007938452     0.000036739621    -0.000029726708
      14        0.001704489233    -0.003343672068     0.001124211387
      15        0.000008998967    -0.000017208625     0.000007465085
      16       -0.000000075765     0.000017914956    -0.000001085015
      17        0.000021103511    -0.000011289234     0.000019919919
      18        0.000002973606    -0.000012483398    -0.000015164076

  **** Optimization is complete! (in 4 steps) ****
    Final optimized geometry and variables:
    Molecular point group: c1

    Geometry (in Angstrom), charge = 0, multiplicity = 1:

    H           -3.120407108323    -1.315422890506    -0.137907234836
    O           -2.297211078327    -0.961267406080    -0.418628742269
    C           -2.039006107499     0.248567955135     0.246001170285
    C           -0.685507058581     0.775024278910    -0.190518487907
    H           -2.807605505337     0.979825028927     0.008898057238
    H           -2.047996117033     0.098885414700     1.323970823590
    C            0.486174915445    -0.115674945803     0.219241946328
    H           -0.697089769649     0.893363495297    -1.270077377455
    H           -0.557128931932     1.767564914417     0.233386627349
    C            1.828642524322     0.391331725761    -0.313291563807
    H            0.298287418361    -1.110835649588    -0.165292554441
    H            0.519444559615    -0.184623920295     1.303465061748
    C            3.021683435444    -0.166333280194     0.459250081774
    H            1.932453640213     0.094763625129    -1.352602971806
    H            1.857764452592     1.476373764089    -0.283638611336
    H            3.022847851474    -1.251380694279     0.443813665899
    H            3.960006631754     0.170801312945     0.033291689954
    H            2.997339559771     0.147263352697     1.497632597742

  Mulliken Charges: (a.u.)
   Center  Symbol    Alpha    Beta     Spin     Total
       1     H     0.39561  0.39561  0.00000  0.20877
       2     O     4.19899  4.19899  0.00000 -0.39799
       3     C     2.97370  2.97370  0.00000  0.05261
       4     C     3.09087  3.09087  0.00000 -0.18174
       5     H     0.46520  0.46520  0.00000  0.06960
       6     H     0.47369  0.47369  0.00000  0.05263
       7     C     3.08837  3.08837  0.00000 -0.17673
       8     H     0.45211  0.45211  0.00000  0.09579
       9     H     0.45447  0.45447  0.00000  0.09106
      10     C     3.08417  3.08417  0.00000 -0.16835
      11     H     0.44391  0.44391  0.00000  0.11219
      12     H     0.45946  0.45946  0.00000  0.08107
      13     C     3.14923  3.14923  0.00000 -0.29847
      14     H     0.45260  0.45260  0.00000  0.09479
      15     H     0.45682  0.45682  0.00000  0.08635
      16     H     0.45439  0.45439  0.00000  0.09123
      17     H     0.44975  0.44975  0.00000  0.10051
      18     H     0.45667  0.45667  0.00000  0.08666

   Total alpha = 25.00000, Total beta = 25.00000, Total charge =  0.00000

*** Psi4 exiting successfully. Buy a developer a beer!
