  ==> Input File <==

--------------------------------------------------------------------------
set {
	reference rhf
	basis cc-pvtz
}

set_num_threads( 4 )
memory 2 gb

molecule MOL {
0 1

H	 -2.816458	 -0.841657	 -0.064679
N	 -1.878861	 -0.711874	 0.250184
C	 -1.341419	 0.551458	 -0.220231
H	 -1.333674	 -1.468530	 -0.105118
C	 0.082190	 0.731516	 0.254705
H	 -1.357065	 0.652078	 -1.304747
H	 -1.939897	 1.357530	 0.189797
O	 0.880862	 -0.249454	 -0.334810
H	 0.441383	 1.721955	 -0.021310
H	 0.119676	 0.644999	 1.338235
C	 2.207672	 -0.235589	 0.075801
H	 2.724841	 -1.029141	 -0.444006
H	 2.688438	 0.710384	 -0.164394
H	 2.294488	 -0.403205	 1.146749

	symmetry c1
}
set optking {
	frozen_dihedral = ("
		8 5 3 6
	")
}

ee = optimize('scf')
oeprop('DIPOLE', 'QUADRUPOLE', 'MULLIKEN_CHARGES')
f=open( 'psi4out.xyz', 'w' )
f.write( "14  " )
f.write( str(ee) + "\n" )
f.write( MOL.save_string_xyz() )
f.close()
--------------------------------------------------------------------------

    Molecular point group: c1
  Charge       = 0
  Multiplicity = 1
  Basis Set: CC-PVTZ
  Basis Set:

    Orbital Energies (a.u.)
    -----------------------

    Doubly Occupied:

       1A    -20.550812     2A    -15.523564     3A    -11.263966
       4A    -11.263667     5A    -11.239930     6A     -1.384667
       7A     -1.176044     8A     -1.000619     9A     -0.907684
      10A     -0.815794    11A     -0.685519    12A     -0.676185
      13A     -0.647398    14A     -0.612234    15A     -0.607646
      16A     -0.542199    17A     -0.530350    18A     -0.498039
      19A     -0.474567    20A     -0.420266    21A     -0.383925

  @DF-RHF Final Energy:  -248.22619657298725

   => Energetics <=

    Nuclear Repulsion Energy =            194.7034322824291621
    One-Electron Energy =                -723.4491065622165706
    Two-Electron Energy =                 280.5194777068002168
    DFT Exchange-Correlation Energy =       0.0000000000000000
    Empirical Dispersion Energy =           0.0000000000000000
    PCM Polarization Energy =               0.0000000000000000
    EFP Energy =                            0.0000000000000000
    Total Energy =                       -248.2261965729871918
    Molecular point group: c1
  Basis Set: CC-PVTZ
  Basis Set:

  -Total Gradient:
     Atom            X                  Y                   Z
    ------   -----------------  -----------------  -----------------
       1       -0.000020032263     0.000021408044    -0.000003408678
       2       -0.000024357078    -0.000008830695     0.000027970094
       3        0.000065666754     0.000044043589    -0.000066993943
       4        0.000034286518    -0.000001867294    -0.000005001436
       5       -0.000043949806    -0.000003452146     0.000038527588
       6       -0.000017558013     0.000001436690     0.000000274618
       7        0.000000585061    -0.000036949832     0.000024757670
       8       -0.000001212275    -0.000023660887    -0.000029216236
       9       -0.000012893460    -0.000012088126    -0.000015444102
      10        0.000004648773     0.000015733777     0.000019602133
      11        0.000003430512     0.000015711338     0.000009373654
      12        0.000006990368    -0.000005248122    -0.000001727392
      13        0.000001111229    -0.000002745515    -0.000001255273
      14        0.000003283682    -0.000003490820     0.000002541302

  **** Optimization is complete! (in 1 steps) ****
    Final optimized geometry and variables:
    Molecular point group: c1

    Geometry (in Angstrom), charge = 0, multiplicity = 1:

    H           -2.816310946582    -0.841192534868    -0.065296824364
    N           -1.878713946582    -0.711409534868     0.249566175636
    C           -1.341271946582     0.551922465132    -0.220848824364
    H           -1.333526946582    -1.468065534868    -0.105735824364
    C            0.082337053418     0.731980465132     0.254087175636
    H           -1.356917946582     0.652542465132    -1.305364824364
    H           -1.939749946582     1.357994465132     0.189179175636
    O            0.881009053418    -0.248989534868    -0.335427824364
    H            0.441530053418     1.722419465132    -0.021927824364
    H            0.119823053418     0.645463465132     1.337617175636
    C            2.207819053418    -0.235124534868     0.075183175636
    H            2.724988053418    -1.028676534868    -0.444623824364
    H            2.688585053418     0.710848465132    -0.165011824364
    H            2.294635053418    -0.402740534868     1.146131175636

  Mulliken Charges: (a.u.)
   Center  Symbol    Alpha    Beta     Spin     Total
       1     H     0.43022  0.43022  0.00000  0.13955
       2     N     3.69419  3.69419  0.00000 -0.38837
       3     C     3.02194  3.02194  0.00000 -0.04389
       4     H     0.42247  0.42247  0.00000  0.15505
       5     C     2.96934  2.96934  0.00000  0.06131
       6     H     0.46454  0.46454  0.00000  0.07092
       7     H     0.45869  0.45869  0.00000  0.08262
       8     O     4.17997  4.17997  0.00000 -0.35994
       9     H     0.46968  0.46968  0.00000  0.06063
      10     H     0.46861  0.46861  0.00000  0.06277
      11     C     3.03185  3.03185  0.00000 -0.06370
      12     H     0.44758  0.44758  0.00000  0.10485
      13     H     0.47117  0.47117  0.00000  0.05767
      14     H     0.46974  0.46974  0.00000  0.06052

   Total alpha = 21.00000, Total beta = 21.00000, Total charge = -0.00000
