  ==> Input File <==

--------------------------------------------------------------------------
set {
	reference rhf
	basis 6-31G*
}

set_num_threads( 1 )
memory 2 gb

molecule MOL {
0 1

H	 3.877244	 0.391579	 -0.376766
N	 3.080823	 -0.215241	 -0.344700
C	 1.860385	 0.546470	 -0.121423
H	 3.236585	 -0.857576	 0.408941
C	 0.640605	 -0.367589	 -0.170280
H	 1.785092	 1.287343	 -0.911548
H	 1.864120	 1.095752	 0.823391
C	 -0.679275	 0.379305	 0.025956
H	 0.639628	 -0.887509	 -1.123966
H	 0.738941	 -1.133570	 0.598445
C	 -1.903357	 -0.536963	 -0.023547
H	 -0.776767	 1.146962	 -0.740234
H	 -0.663379	 0.902814	 0.980698
C	 -3.225172	 0.228290	 0.028445
H	 -1.867824	 -1.134999	 -0.931459
H	 -1.860449	 -1.239604	 0.805977
H	 -3.313397	 0.915643	 -0.808262
H	 -4.073500	 -0.448134	 -0.008893
H	 -3.306061	 0.809945	 0.942516

	symmetry c1
}
set optking {
	frozen_dihedral = ("
		6 3 5 9,
		12 8 5 9,
		1 2 3 6
	")
}

ee = energy('scf')
oeprop('DIPOLE', 'QUADRUPOLE', 'MULLIKEN_CHARGES')
f=open( 'psi4out.xyz', 'w' )
f.write( "19  " )
f.write( str(ee) + "\n" )
f.write( MOL.save_string_xyz() )
f.close()
--------------------------------------------------------------------------

    Molecular point group: c1

    Geometry (in Angstrom), charge = 0, multiplicity = 1:

       Center              X                  Y                   Z               Mass
    ------------   -----------------  -----------------  -----------------  -----------------
           H          3.880569302777     0.381988173365    -0.281468413042     1.007825032070
           N          3.084148302777    -0.224831826635    -0.249402413042    14.003074004780
           C          1.863710302777     0.536879173365    -0.026125413042    12.000000000000
           H          3.239910302777    -0.867166826635     0.504238586958     1.007825032070
           C          0.643930302777    -0.377179826635    -0.074982413042    12.000000000000
           H          1.788417302777     1.277752173365    -0.816250413042     1.007825032070
           H          1.867445302777     1.086161173365     0.918688586958     1.007825032070
           C         -0.675949697223     0.369714173365     0.121253586958    12.000000000000
           H          0.642953302777    -0.897099826635    -1.028668413042     1.007825032070
           H          0.742266302777    -1.143160826635     0.693742586958     1.007825032070
           C         -1.900031697223    -0.546553826635     0.071750586958    12.000000000000
           H         -0.773441697223     1.137371173365    -0.644936413042     1.007825032070
           H         -0.660053697223     0.893223173365     1.075995586958     1.007825032070
           C         -3.221846697223     0.218699173365     0.123742586958    12.000000000000
           H         -1.864498697223    -1.144589826635    -0.836161413042     1.007825032070
           H         -1.857123697223    -1.249194826635     0.901274586958     1.007825032070
           H         -3.310071697223     0.906052173365    -0.712964413042     1.007825032070
           H         -4.070174697223    -0.457724826635     0.086404586958     1.007825032070
           H         -3.302735697223     0.800354173365     1.037813586958     1.007825032070

  Charge       = 0
  Multiplicity = 1
  Basis Set: 6-31G*
  Basis Set:

    Orbital Energies (a.u.)
    -----------------------

    Doubly Occupied:

       1A    -15.532493     2A    -11.239734     3A    -11.213904
       4A    -11.212703     5A    -11.209472     6A    -11.207475
       7A     -1.176607     8A     -1.072939     9A     -0.998362
      10A     -0.900174    11A     -0.812969    12A     -0.789263
      13A     -0.665022    14A     -0.641298    15A     -0.617022
      16A     -0.588709    17A     -0.565571    18A     -0.546850
      19A     -0.530824    20A     -0.498318    21A     -0.481114
      22A     -0.464815    23A     -0.460888    24A     -0.449776
      25A     -0.380963

  @DF-RHF Final Energy:  -251.35160830011606

   => Energetics <=

    Nuclear Repulsion Energy =            245.6554542013149387
    One-Electron Energy =                -825.4994983083099669
    Two-Electron Energy =                 328.4924358068794845
    DFT Exchange-Correlation Energy =       0.0000000000000000
    Empirical Dispersion Energy =           0.0000000000000000
    PCM Polarization Energy =               0.0000000000000000
    EFP Energy =                            0.0000000000000000
    Total Energy =                       -251.3516083001155721

  Mulliken Charges: (a.u.)
   Center  Symbol    Alpha    Beta     Spin     Total
       1     H     0.33248  0.33248  0.00000  0.33504
       2     N     3.92190  3.92190  0.00000 -0.84380
       3     C     3.06023  3.06023  0.00000 -0.12046
       4     H     0.33536  0.33536  0.00000  0.32927
       5     C     3.15162  3.15162  0.00000 -0.30324
       6     H     0.42084  0.42084  0.00000  0.15831
       7     H     0.43478  0.43478  0.00000  0.13044
       8     C     3.15494  3.15494  0.00000 -0.30989
       9     H     0.41305  0.41305  0.00000  0.17391
      10     H     0.42772  0.42772  0.00000  0.14456
      11     C     3.15091  3.15091  0.00000 -0.30183
      12     H     0.42374  0.42374  0.00000  0.15251
      13     H     0.42459  0.42459  0.00000  0.15082
      14     C     3.23934  3.23934  0.00000 -0.47868
      15     H     0.42194  0.42194  0.00000  0.15612
      16     H     0.42316  0.42316  0.00000  0.15368
      17     H     0.42169  0.42169  0.00000  0.15661
      18     H     0.41940  0.41940  0.00000  0.16120
      19     H     0.42229  0.42229  0.00000  0.15541

   Total alpha = 25.00000, Total beta = 25.00000, Total charge =  0.00000
