  ==> Input File <==

--------------------------------------------------------------------------
set {
	reference rhf
	basis cc-pvtz
}

set_num_threads( 4 )
memory 2 gb

molecule MOL {
0 1

H	 -3.144994	 -1.202467	 -0.018751
O	 -2.321472	 -0.864941	 -0.318626
C	 -2.021813	 0.336996	 0.342658
C	 -0.669613	 0.837286	 -0.127252
H	 -2.780861	 1.084746	 0.127159
H	 -2.006390	 0.184138	 1.420053
C	 0.490865	 -0.082543	 0.241244
H	 -0.708709	 0.967192	 -1.204587
H	 -0.507562	 1.822272	 0.303070
C	 1.839800	 0.429565	 -0.255472
H	 0.305636	 -1.070211	 -0.165276
H	 0.527397	 -0.195943	 1.322876
C	 2.978173	 -0.556918	 -0.017259
H	 1.770380	 0.648249	 -1.317574
H	 2.072110	 1.371798	 0.234344
H	 2.791692	 -1.497774	 -0.524141
H	 3.921024	 -0.165564	 -0.382194
H	 3.096131	 -0.770703	 1.040014

	symmetry c1
}
set optking {
	frozen_dihedral = ("
		14 10 7 11
	")
}

ee = optimize('scf')
oeprop('DIPOLE', 'QUADRUPOLE', 'MULLIKEN_CHARGES')
f=open( 'psi4out.xyz', 'w' )
f.write( "18  " )
f.write( str(ee) + "\n" )
f.write( MOL.save_string_xyz() )
f.close()
--------------------------------------------------------------------------

    Molecular point group: c1
  Charge       = 0
  Multiplicity = 1
  Basis Set: CC-PVTZ
  Basis Set:
  @DF-RHF Final Energy:  -271.28677510749037
    Total Energy =                       -271.2867751074904845
    Molecular point group: c1
  Basis Set: CC-PVTZ
  Basis Set:
  Basis Set: CC-PVTZ
  Basis Set:
  @DF-RHF Final Energy:  -271.28679514329588
    Total Energy =                       -271.2867951432954214
  Basis Set: CC-PVTZ
  Basis Set:
  Basis Set: CC-PVTZ
  Basis Set:
  @DF-RHF Final Energy:  -271.28680130965665
    Total Energy =                       -271.2868013096567665
  Basis Set: CC-PVTZ
  Basis Set:
  Charge       = 0
  Multiplicity = 1
  Basis Set: CC-PVTZ
  Basis Set:

    Orbital Energies (a.u.)
    -----------------------

    Doubly Occupied:

       1A    -20.546245     2A    -11.265985     3A    -11.210555
       4A    -11.209113     5A    -11.204967     6A    -11.202806
       7A     -1.364149     8A     -1.076560     9A     -1.010311
      10A     -0.914522    11A     -0.818595    12A     -0.784943
      13A     -0.708215    14A     -0.643521    15A     -0.626783
      16A     -0.581916    17A     -0.572018    18A     -0.560238
      19A     -0.523972    20A     -0.502220    21A     -0.489226
      22A     -0.468749    23A     -0.458521    24A     -0.449760
      25A     -0.431535

  @DF-RHF Final Energy:  -271.28680140905419

   => Energetics <=

    Nuclear Repulsion Energy =            249.3086798590835258
    One-Electron Energy =                -861.9401148277028142
    Two-Electron Energy =                 341.3446335595647838
    DFT Exchange-Correlation Energy =       0.0000000000000000
    Empirical Dispersion Energy =           0.0000000000000000
    PCM Polarization Energy =               0.0000000000000000
    EFP Energy =                            0.0000000000000000
    Total Energy =                       -271.2868014090544762
    Molecular point group: c1
  Basis Set: CC-PVTZ
  Basis Set:

  -Total Gradient:
     Atom            X                  Y                   Z
    ------   -----------------  -----------------  -----------------
       1        0.000000573946     0.000001361090    -0.000000181855
       2       -0.000019524858     0.000012891700    -0.000010850053
       3        0.000022543549    -0.000018972683     0.000039162215
       4       -0.000002003685    -0.000001119790    -0.000038660022
       5       -0.000000516466    -0.000009028721    -0.000005944304
       6       -0.000008083254     0.000003063953     0.000004759292
       7       -0.000738255265     0.000881573720    -0.001125920028
       8        0.000006512285     0.000005037698    -0.000007511354
       9        0.000006270006    -0.000012444798    -0.000001267550
      10        0.000542377049    -0.001504495941    -0.000078490180
      11        0.000528937531    -0.000485362130     0.000961245380
      12        0.000003676990    -0.000004048294     0.000009196958
      13       -0.000001332607    -0.000008822418    -0.000003979864
      14       -0.000334669942     0.001121470696     0.000260811680
      15        0.000004320991     0.000008050801     0.000000362274
      16       -0.000000876955     0.000001794941     0.000000644709
      17       -0.000003723384     0.000003770307    -0.000001338220
      18       -0.000006225931     0.000005279867    -0.000002039078

  **** Optimization is complete! (in 4 steps) ****
    Final optimized geometry and variables:
    Molecular point group: c1

    Geometry (in Angstrom), charge = 0, multiplicity = 1:

    H           -3.149087916569    -1.181186025305     0.023807406095
    O           -2.326479129599    -0.848541874436    -0.283698818029
    C           -2.015306936760     0.353333097407     0.372240763482
    C           -0.665187453730     0.846333988358    -0.110989840575
    H           -2.772791613588     1.104161452681     0.162005579905
    H           -1.990763275268     0.202696535520     1.449737516217
    C            0.493726842745    -0.079142845314     0.246013406806
    H           -0.713876863929     0.976680272793    -1.187790328525
    H           -0.493610701280     1.830332108255     0.318027730784
    C            1.845640420857     0.438251910552    -0.237856359619
    H            0.310984095552    -1.064676342659    -0.166756467017
    H            0.529256683073    -0.206183696814     1.326349102805
    C            2.987638587390    -0.539647755732     0.014494576941
    H            1.785949351786     0.664061607966    -1.299118120956
    H            2.065397471713     1.382045017902     0.255143696126
    H            2.819399928176    -1.478032064072    -0.502999665856
    H            3.933888243294    -0.136960304362    -0.328569733107
    H            3.086608098456    -0.760550452134     1.072290410400

  Mulliken Charges: (a.u.)
   Center  Symbol    Alpha    Beta     Spin     Total
       1     H     0.39572  0.39572  0.00000  0.20856
       2     O     4.19875  4.19875  0.00000 -0.39750
       3     C     2.97377  2.97377  0.00000  0.05245
       4     C     3.09123  3.09123  0.00000 -0.18247
       5     H     0.46539  0.46539  0.00000  0.06921
       6     H     0.47370  0.47370  0.00000  0.05260
       7     C     3.08646  3.08646  0.00000 -0.17292
       8     H     0.45200  0.45200  0.00000  0.09601
       9     H     0.45436  0.45436  0.00000  0.09127
      10     C     3.08356  3.08356  0.00000 -0.16713
      11     H     0.44483  0.44483  0.00000  0.11034
      12     H     0.45941  0.45941  0.00000  0.08117
      13     C     3.14963  3.14963  0.00000 -0.29927
      14     H     0.45495  0.45495  0.00000  0.09010
      15     H     0.45656  0.45656  0.00000  0.08689
      16     H     0.45431  0.45431  0.00000  0.09137
      17     H     0.44942  0.44942  0.00000  0.10116
      18     H     0.45593  0.45593  0.00000  0.08815

   Total alpha = 25.00000, Total beta = 25.00000, Total charge =  0.00000
