                              Psi4 1.0.54 Driver

  ==> Input File <==

--------------------------------------------------------------------------
set {
	reference rhf
	basis cc-pvtz
}

set_num_threads( 4 )
memory 2 gb

molecule MOL {
0 1

O	 -1.607571	 1.210119	 0.195189
C	 -1.081510	 0.147522	 0.122720
C	 0.327029	 -0.064006	 0.641890
C	 -1.775023	 -1.038740	 -0.503453
C	 1.349460	 -0.017068	 -0.500215
H	 0.399029	 -1.014606	 1.159950
H	 0.538021	 0.726928	 1.350471
C	 2.779782	 -0.209014	 -0.009215
H	 1.115007	 -0.782959	 -1.233891
H	 1.259071	 0.936707	 -1.006644
H	 3.481860	 -0.160270	 -0.833072
H	 2.903471	 -1.171535	 0.475559
H	 3.052569	 0.559584	 0.705428
H	 -1.135185	 -1.510788	 -1.240702
H	 -2.701472	 -0.728568	 -0.961692
H	 -1.979786	 -1.778603	 0.263702

	symmetry c1
}
set optking {
	frozen_dihedral = ("
		4 2 3 5
	")
}

ee,wfn = optimize('scf', return_wfn=True)
oeprop( wfn, 'DIPOLE', 'QUADRUPOLE', 'MULLIKEN_CHARGES')
f=open( 'psi4out.xyz', 'w' )
f.write( "16  " )
f.write( str(ee) + "\n" )
f.write( MOL.save_string_xyz() )
f.close()
--------------------------------------------------------------------------

    Molecular point group: c1
  Charge       = 0
  Multiplicity = 1
  Basis Set: CC-PVTZ
  Basis Set:
  @DF-RHF Final Energy:  -270.12912740924787
    Total Energy =                       -270.1291274092478147
    Molecular point group: c1
  Basis Set: CC-PVTZ
  Basis Set:
  Basis Set: CC-PVTZ
  Basis Set:
  @DF-RHF Final Energy:  -270.12910920805700
    Total Energy =                       -270.1291092080571161
  Basis Set: CC-PVTZ
  Basis Set:
  Basis Set: CC-PVTZ
  Basis Set:
  @DF-RHF Final Energy:  -270.12913851499502
    Total Energy =                       -270.1291385149950202
  Basis Set: CC-PVTZ
  Basis Set:
  Basis Set: CC-PVTZ
  Basis Set:
  @DF-RHF Final Energy:  -270.12918163517332
    Total Energy =                       -270.1291816351733246
  Basis Set: CC-PVTZ
  Basis Set:
  @DF-RHF Final Energy:  -270.12918384583986
    Total Energy =                       -270.1291838458396342
  Basis Set: CC-PVTZ
  Basis Set:
  @DF-RHF Final Energy:  -270.12898767785941
    Total Energy =                       -270.1289876778595271
  Basis Set: CC-PVTZ
  Basis Set:
  Basis Set: CC-PVTZ
  Basis Set:
  @DF-RHF Final Energy:  -270.12921955772055
    Total Energy =                       -270.1292195577203756
  Basis Set: CC-PVTZ
  Basis Set:
  Basis Set: CC-PVTZ
  Basis Set:
  @DF-RHF Final Energy:  -270.12922743911963
    Total Energy =                       -270.1292274391196315
  Basis Set: CC-PVTZ
  Basis Set:
  Charge       = 0
  Multiplicity = 1
  Basis Set: CC-PVTZ
  Basis Set:

    Orbital Energies (a.u.)
    -----------------------

    Doubly Occupied:

       1A    -20.537769     2A    -11.319694     3A    -11.233129
       4A    -11.228719     5A    -11.226796     6A    -11.218656
       7A     -1.397461     8A     -1.085247     9A     -1.013031
      10A     -0.951168    11A     -0.831658    12A     -0.736641
      13A     -0.661258    14A     -0.651838    15A     -0.615347
      16A     -0.610255    17A     -0.577526    18A     -0.557209
      19A     -0.535539    20A     -0.521387    21A     -0.507549
      22A     -0.485989    23A     -0.476070    24A     -0.400803

  @DF-RHF Final Energy:  -270.12922768655221

   => Energetics <=

    Nuclear Repulsion Energy =            237.4259892632845492
    One-Electron Energy =                -836.3489584640879002
    Two-Electron Energy =                 328.7937415142507689
    DFT Exchange-Correlation Energy =       0.0000000000000000
    Empirical Dispersion Energy =           0.0000000000000000
    PCM Polarization Energy =               0.0000000000000000
    EFP Energy =                            0.0000000000000000
    Total Energy =                       -270.1292276865525537
    Molecular point group: c1
  Basis Set: CC-PVTZ
  Basis Set:

  -Total Gradient:
     Atom            X                  Y                   Z
    ------   -----------------  -----------------  -----------------
       1       -0.000013700362     0.000014614312    -0.000011539619
       2       -0.000374901634    -0.000514736854     0.000866219366
       3        0.000204287664     0.000954793138    -0.000162804471
       4        0.000226871930     0.000179757951    -0.000589637591
       5       -0.000069445487    -0.000623916203    -0.000086758567
       6        0.000004983531    -0.000002436935     0.000001748955
       7        0.000000276796    -0.000007392605    -0.000015762914
       8        0.000012893923     0.000000086688     0.000003724528
       9       -0.000008390579     0.000001646638     0.000013699673
      10       -0.000002337081     0.000000458197    -0.000006456301
      11        0.000001168146     0.000002271598     0.000005205483
      12        0.000005222257    -0.000003130850     0.000000632893
      13        0.000000379388    -0.000006148519    -0.000002444702
      14        0.000003331909     0.000008753856    -0.000007349720
      15        0.000004397284     0.000002902546    -0.000001901988
      16        0.000004962315    -0.000007522959    -0.000006575024

  **** Optimization is complete! (in 9 steps) ****
    Final optimized geometry and variables:
    Molecular point group: c1

    Geometry (in Angstrom), charge = 0, multiplicity = 1:

    O           -1.617485669225     1.203153688564     0.229311871958
    C           -1.088490742565     0.143137120175     0.139971588408
    C            0.327319750476    -0.071243456942     0.636107810343
    C           -1.797618679152    -1.039096605671    -0.479866991416
    C            1.354351828728    -0.027144194906    -0.502163522070
    H            0.393300416360    -1.029295335656     1.143682856996
    H            0.541214418908     0.709280787103     1.353946378891
    C            2.783218836688    -0.195265395601     0.002707876779
    H            1.137837808023    -0.803843227667    -1.228080851465
    H            1.261502394786     0.920173520943    -1.022389778959
    H            3.491054441992    -0.154202988993    -0.816590430109
    H            2.911879911360    -1.147922621873     0.505305372120
    H            3.042853684022     0.588191841260     0.705740127558
    H           -1.179239288244    -1.516730990364    -1.229989951512
    H           -2.729006108862    -0.718208008017    -0.920302329638
    H           -1.999001154015    -1.777852491603     0.289315206094

  Mulliken Charges: (a.u.)
   Center  Symbol    Alpha    Beta     Spin     Total
       1     O     4.17465  4.17465  0.00000 -0.34930
       2     C     2.85826  2.85826  0.00000  0.28348
       3     C     3.09581  3.09581  0.00000 -0.19162
       4     C     3.15558  3.15558  0.00000 -0.31116
       5     C     3.09494  3.09494  0.00000 -0.18988
       6     H     0.45129  0.45129  0.00000  0.09742
       7     H     0.43870  0.43870  0.00000  0.12259
       8     C     3.14859  3.14859  0.00000 -0.29718
       9     H     0.45151  0.45151  0.00000  0.09698
      10     H     0.44338  0.44338  0.00000  0.11323
      11     H     0.44611  0.44611  0.00000  0.10778
      12     H     0.45468  0.45468  0.00000  0.09064
      13     H     0.45093  0.45093  0.00000  0.09814
      14     H     0.45105  0.45105  0.00000  0.09791
      15     H     0.43535  0.43535  0.00000  0.12929
      16     H     0.44916  0.44916  0.00000  0.10168

   Total alpha = 24.00000, Total beta = 24.00000, Total charge = -0.00000

*** Psi4 exiting successfully. Buy a developer a beer!
