  ==> Input File <==

--------------------------------------------------------------------------
set {
	reference rhf
	basis 6-31G*
}

set_num_threads( 4 )
memory 2 gb

molecule MOL {
0 1

H	 2.652209	 0.763231	 0.000000
O	 2.263154	 -0.100023	 0.000000
C	 0.912879	 -0.015685	 0.000000
C	 0.208030	 -1.041295	 0.616353
C	 0.234208	 1.041111	 -0.584528
H	 0.753495	 -1.851421	 1.063538
C	 -1.172412	 -0.999747	 0.642096
H	 0.781682	 1.836331	 -1.062460
C	 -1.152361	 1.070059	 -0.551305
H	 -1.713687	 -1.796427	 1.120645
C	 -1.864200	 0.054320	 0.059611
H	 -1.671582	 1.894093	 -1.007449
H	 -2.938230	 0.079768	 0.083603

	symmetry c1
}
set optking {
	frozen_dihedral = ("
		4 3 2 1
	")
}

ee = optimize('scf')
oeprop('DIPOLE', 'QUADRUPOLE', 'MULLIKEN_CHARGES')
f=open( 'psi4out.xyz', 'w' )
f.write( "13  " )
f.write( str(ee) + "\n" )
f.write( MOL.save_string_xyz() )
f.close()
--------------------------------------------------------------------------

    Molecular point group: c1
  Charge       = 0
  Multiplicity = 1
  Basis Set: 6-31G*
  Basis Set:
  @DF-RHF Final Energy:  -305.55636200010997
    Total Energy =                       -305.5563620001098570
    Molecular point group: c1
  Basis Set: 6-31G*
  Basis Set:
  Basis Set: 6-31G*
  Basis Set:
  @DF-RHF Final Energy:  -305.55641231806050
    Total Energy =                       -305.5564123180605520
  Basis Set: 6-31G*
  Basis Set:
  Basis Set: 6-31G*
  Basis Set:
  @DF-RHF Final Energy:  -305.55642141883408
    Total Energy =                       -305.5564214188339633
  Basis Set: 6-31G*
  Basis Set:
  Charge       = 0
  Multiplicity = 1
  Basis Set: 6-31G*
  Basis Set:

    Orbital Energies (a.u.)
    -----------------------

    Doubly Occupied:

       1A    -20.586846     2A    -11.295763     3A    -11.236545
       4A    -11.234669     5A    -11.228030     6A    -11.223244
       7A    -11.222698     8A     -1.404524     9A     -1.147399
      10A     -1.018488    11A     -1.003933    12A     -0.843680
      13A     -0.822239    14A     -0.735098    15A     -0.683003
      16A     -0.648707    17A     -0.614248    18A     -0.592775
      19A     -0.588383    20A     -0.547277    21A     -0.513819
      22A     -0.490559    23A     -0.476474    24A     -0.337773
      25A     -0.312702

  @DF-RHF Final Energy:  -305.55642223913003

   => Energetics <=

    Nuclear Repulsion Energy =            273.0209955469325678
    One-Electron Energy =                -955.5370858933119962
    Two-Electron Energy =                 376.9596681072494562
    DFT Exchange-Correlation Energy =       0.0000000000000000
    Empirical Dispersion Energy =           0.0000000000000000
    PCM Polarization Energy =               0.0000000000000000
    EFP Energy =                            0.0000000000000000
    Total Energy =                       -305.5564222391299722
    Molecular point group: c1
  Basis Set: 6-31G*
  Basis Set:

  -Total Gradient:
     Atom            X                  Y                   Z
    ------   -----------------  -----------------  -----------------
       1       -0.000024680796    -0.000000689489     0.002393126344
       2        0.000103426205     0.000363522216    -0.002254089610
       3       -0.000194279666    -0.001133651741    -0.001652428461
       4       -0.000046704910     0.000838021208     0.001506177248
       5        0.000122577579    -0.000093124581    -0.000003340652
       6        0.000020916874    -0.000006330428     0.000012664217
       7        0.000142893722    -0.000104212211     0.000026071926
       8       -0.000006979179     0.000002722731    -0.000001275653
       9       -0.000166083217    -0.000053250414     0.000045388431
      10        0.000006099616     0.000011341876    -0.000007585300
      11        0.000037977837     0.000179496804    -0.000064091033
      12        0.000011383797     0.000008238531     0.000006453902
      13       -0.000006547865    -0.000012084502    -0.000007071359

  **** Optimization is complete! (in 4 steps) ****
    Final optimized geometry and variables:
    Molecular point group: c1

    Geometry (in Angstrom), charge = 0, multiplicity = 1:

    H            2.650343252021     0.760448515828    -0.034566818410
    O            2.266254651635    -0.104995049135    -0.032909197369
    C            0.910791995843    -0.023789624205    -0.021788341496
    C            0.206461300426    -1.046741721361     0.595661626106
    C            0.233902557913     1.034638440335    -0.606071047011
    H            0.751729399226    -1.853426549074     1.049230725390
    C           -1.175772842478    -1.010433160069     0.612340467527
    H            0.784983854966     1.822912496219    -1.090195632095
    C           -1.151846079480     1.066182732623    -0.572229352647
    H           -1.718355662450    -1.807250193790     1.089181156396
    C           -1.864419942211     0.045761824943     0.032510843700
    H           -1.671216678379     1.891213800100    -1.026387577653
    H           -2.938682756974     0.071141407630     0.053707011665

  Mulliken Charges: (a.u.)
   Center  Symbol    Alpha    Beta     Spin     Total
       1     H     0.27215  0.27215  0.00000  0.45570
       2     O     4.38126  4.38126  0.00000 -0.76252
       3     C     2.79953  2.79953  0.00000  0.40093
       4     C     3.12184  3.12184  0.00000 -0.24369
       5     C     3.13894  3.13894  0.00000 -0.27788
       6     H     0.39178  0.39178  0.00000  0.21644
       7     C     3.09241  3.09241  0.00000 -0.18483
       8     H     0.40241  0.40241  0.00000  0.19519
       9     C     3.09183  3.09183  0.00000 -0.18365
      10     H     0.39799  0.39799  0.00000  0.20402
      11     C     3.11126  3.11126  0.00000 -0.22252
      12     H     0.39830  0.39830  0.00000  0.20340
      13     H     0.40030  0.40030  0.00000  0.19940

   Total alpha = 25.00000, Total beta = 25.00000, Total charge = -0.00000
