  ==> Input File <==

--------------------------------------------------------------------------
set {
	reference rhf
	basis cc-pvtz
}

set_num_threads( 4 )
memory 2 gb

molecule MOL {
0 1

O	 0.395927	 1.296676	 -0.000076
C	 0.503051	 0.114301	 -0.000074
C	 -0.701422	 -0.805636	 -0.000109
C	 1.858118	 -0.556123	 0.000212
C	 -1.389830	 -0.925607	 -1.350584
H	 -0.370728	 -1.778482	 0.354359
H	 -1.391960	 -0.441449	 0.756175
H	 -0.710615	 -1.310616	 -2.099359
H	 -2.239020	 -1.594928	 -1.281721
H	 -1.740911	 0.038262	 -1.693993
H	 1.961106	 -1.191101	 -0.872843
H	 2.636688	 0.191085	 -0.000109
H	 1.961070	 -1.190284	 0.873873

	symmetry c1
}
set optking {
	frozen_dihedral = ("
		6 3 2 1
	")
}

ee = optimize('scf')
oeprop('DIPOLE', 'QUADRUPOLE', 'MULLIKEN_CHARGES')
f=open( 'psi4out.xyz', 'w' )
f.write( "13  " )
f.write( str(ee) + "\n" )
f.write( MOL.save_string_xyz() )
f.close()
--------------------------------------------------------------------------

    Molecular point group: c1
  Charge       = 0
  Multiplicity = 1
  Basis Set: CC-PVTZ
  Basis Set:
  @DF-RHF Final Energy:  -231.08040948359135
    Total Energy =                       -231.0804094835912679
    Molecular point group: c1
  Basis Set: CC-PVTZ
  Basis Set:
  Basis Set: CC-PVTZ
  Basis Set:
  @DF-RHF Final Energy:  -231.08121441732337
    Total Energy =                       -231.0812144173233378
  Basis Set: CC-PVTZ
  Basis Set:
  Basis Set: CC-PVTZ
  Basis Set:
  @DF-RHF Final Energy:  -231.07956700539870
    Total Energy =                       -231.0795670053986441
  Basis Set: CC-PVTZ
  Basis Set:
  Basis Set: CC-PVTZ
  Basis Set:
  @DF-RHF Final Energy:  -231.08136743989022
    Total Energy =                       -231.0813674398897319
  Basis Set: CC-PVTZ
  Basis Set:
  Basis Set: CC-PVTZ
  Basis Set:
  @DF-RHF Final Energy:  -231.08139174738423
    Total Energy =                       -231.0813917473840888
  Basis Set: CC-PVTZ
  Basis Set:
  Basis Set: CC-PVTZ
  Basis Set:
  @DF-RHF Final Energy:  -231.08139419358019
    Total Energy =                       -231.0813941935800813
  Basis Set: CC-PVTZ
  Basis Set:
  Charge       = 0
  Multiplicity = 1
  Basis Set: CC-PVTZ
  Basis Set:

    Orbital Energies (a.u.)
    -----------------------

    Doubly Occupied:

       1A    -20.537987     2A    -11.320688     3A    -11.231684
       4A    -11.228237     5A    -11.225140     6A     -1.398395
       7A     -1.065838     8A     -0.999540     9A     -0.882784
      10A     -0.734894    11A     -0.657587    12A     -0.648824
      13A     -0.610264    14A     -0.593297    15A     -0.568653
      16A     -0.540101    17A     -0.527987    18A     -0.503502
      19A     -0.483681    20A     -0.402089

  @DF-RHF Final Energy:  -231.08139473248946

   => Energetics <=

    Nuclear Repulsion Energy =            177.3752446917383168
    One-Electron Energy =                -664.5909329512603563
    Two-Electron Energy =                 256.1342935270323551
    DFT Exchange-Correlation Energy =       0.0000000000000000
    Empirical Dispersion Energy =           0.0000000000000000
    PCM Polarization Energy =               0.0000000000000000
    EFP Energy =                            0.0000000000000000
    Total Energy =                       -231.0813947324896844
    Molecular point group: c1
  Basis Set: CC-PVTZ
  Basis Set:

  -Total Gradient:
     Atom            X                  Y                   Z
    ------   -----------------  -----------------  -----------------
       1       -0.000015722409     0.000017526578    -0.000250868468
       2        0.000000022211    -0.000035433050     0.000266780361
       3       -0.000032208049     0.000115070167     0.000265670017
       4       -0.000003388062    -0.000003750887     0.000040088194
       5       -0.000017082472    -0.000007148981    -0.000047053099
       6        0.000048177377    -0.000060242254    -0.000241924868
       7       -0.000007984222    -0.000014032789    -0.000002509954
       8        0.000000822998     0.000001709000     0.000000771511
       9        0.000004943457     0.000006211553    -0.000000420310
      10        0.000000463517    -0.000004372099     0.000001629106
      11        0.000005407209    -0.000004973953    -0.000008622021
      12        0.000006443057    -0.000003627256    -0.000006732212
      13        0.000010105388    -0.000006936027    -0.000016808256

  **** Optimization is complete! (in 7 steps) ****
    Final optimized geometry and variables:
    Molecular point group: c1

    Geometry (in Angstrom), charge = 0, multiplicity = 1:

    O            0.225117226131     1.455560323886     0.313153321436
    C            0.362337259395     0.275955608072     0.294527904768
    C           -0.840687744062    -0.648620780517     0.303303111509
    C            1.728282752973    -0.363971331705     0.237540290230
    C           -1.478112331808    -0.723175538851    -1.087393189970
    H           -0.553128250672    -1.640535843558     0.632025353861
    H           -1.555177159670    -0.248966058510     1.011203472570
    H           -0.783730098430    -1.116397023894    -1.821868963280
    H           -2.344554203934    -1.372118175722    -1.071357878769
    H           -1.792569026143     0.259561854130    -1.412353156411
    H            1.777621777185    -1.079242935337    -0.576372817276
    H            2.488839164591     0.391322187386     0.112883780029
    H            1.906824979990    -0.912690712261     1.156651139246

  Mulliken Charges: (a.u.)
   Center  Symbol    Alpha    Beta     Spin     Total
       1     O     4.17661  4.17661  0.00000 -0.35322
       2     C     2.85329  2.85329  0.00000  0.29342
       3     C     3.09831  3.09831  0.00000 -0.19661
       4     C     3.15366  3.15366  0.00000 -0.30733
       5     C     3.14776  3.14776  0.00000 -0.29552
       6     H     0.45013  0.45013  0.00000  0.09975
       7     H     0.44029  0.44029  0.00000  0.11942
       8     H     0.45519  0.45519  0.00000  0.08961
       9     H     0.44678  0.44678  0.00000  0.10645
      10     H     0.44214  0.44214  0.00000  0.11571
      11     H     0.45084  0.45084  0.00000  0.09832
      12     H     0.43631  0.43631  0.00000  0.12738
      13     H     0.44869  0.44869  0.00000  0.10262

   Total alpha = 20.00000, Total beta = 20.00000, Total charge = -0.00000
