                              Psi4 1.0.54 Driver

  ==> Input File <==

--------------------------------------------------------------------------
set {
	reference rhf
	basis cc-pvtz
}

set_num_threads( 4 )
memory 2 gb

molecule MOL {
0 1

H	 -3.436473	 1.252944	 -1.023892
O	 -3.458596	 0.315260	 -0.960865
C	 -3.176635	 -0.080824	 0.355601
C	 -1.763371	 0.265266	 0.799691
H	 -3.321825	 -1.153438	 0.379502
H	 -3.895468	 0.357385	 1.043382
C	 -0.673390	 -0.426948	 -0.013392
H	 -1.631049	 1.344913	 0.747560
H	 -1.664587	 -0.001624	 1.849167
C	 0.737842	 -0.043159	 0.423759
H	 -0.806103	 -0.190518	 -1.063345
H	 -0.797221	 -1.503753	 0.074146
C	 1.395352	 0.970158	 -0.511076
H	 0.697763	 0.355050	 1.433072
H	 1.356359	 -0.936966	 0.472783
C	 2.841114	 1.326003	 -0.160369
H	 0.798359	 1.879024	 -0.531338
H	 1.374677	 0.573132	 -1.522294
C	 3.012099	 2.074922	 1.159111
H	 3.247821	 1.936269	 -0.960957
H	 3.438627	 0.418287	 -0.139188
H	 2.420810	 2.985059	 1.169331
H	 4.048541	 2.354052	 1.311155
H	 2.709582	 1.474712	 2.008720

	symmetry c1
}
set optking {
	frozen_dihedral = ("
		13 10 7 11
	")
}

ee,wfn = optimize('scf', return_wfn=True)
oeprop( wfn, 'DIPOLE', 'QUADRUPOLE', 'MULLIKEN_CHARGES')
f=open( 'psi4out.xyz', 'w' )
f.write( "24  " )
f.write( str(ee) + "\n" )
f.write( MOL.save_string_xyz() )
f.close()
--------------------------------------------------------------------------

    Molecular point group: c1
  Charge       = 0
  Multiplicity = 1
  Basis Set: CC-PVTZ
  Basis Set:
  @DF-RHF Final Energy:  -349.37567320059145
    Total Energy =                       -349.3756732005916774
    Molecular point group: c1
  Basis Set: CC-PVTZ
  Basis Set:
  Basis Set: CC-PVTZ
  Basis Set:
  @DF-RHF Final Energy:  -349.37596907050369
    Total Energy =                       -349.3759690705040839
  Basis Set: CC-PVTZ
  Basis Set:
  Basis Set: CC-PVTZ
  Basis Set:
  @DF-RHF Final Energy:  -349.37602617583690
    Total Energy =                       -349.3760261758372394
  Basis Set: CC-PVTZ
  Basis Set:
  Basis Set: CC-PVTZ
  Basis Set:
  @DF-RHF Final Energy:  -349.37602896503017
    Total Energy =                       -349.3760289650302866
  Basis Set: CC-PVTZ
  Basis Set:
  Basis Set: CC-PVTZ
  Basis Set:
  @DF-RHF Final Energy:  -349.37604280409977
    Total Energy =                       -349.3760428040995976
  Basis Set: CC-PVTZ
  Basis Set:
  Charge       = 0
  Multiplicity = 1
  Basis Set: CC-PVTZ
  Basis Set:

    Orbital Energies (a.u.)
    -----------------------

    Doubly Occupied:

       1A    -20.546381     2A    -11.265294     3A    -11.215205
       4A    -11.212578     5A    -11.210835     6A    -11.209820
       7A    -11.208768     8A    -11.206100     9A     -1.364133
      10A     -1.089119    11A     -1.048739    12A     -0.985792
      13A     -0.916198    14A     -0.852341    15A     -0.804389
      16A     -0.775817    17A     -0.682610    18A     -0.642785
      19A     -0.633639    20A     -0.616179    21A     -0.602908
      22A     -0.588541    23A     -0.561617    24A     -0.538195
      25A     -0.520258    26A     -0.510654    27A     -0.496473
      28A     -0.480722    29A     -0.466889    30A     -0.460868
      31A     -0.452850    32A     -0.446354    33A     -0.421932

  @DF-RHF Final Energy:  -349.37604289379573

   => Energetics <=

    Nuclear Repulsion Energy =            388.8871075164133231
    One-Electron Energy =               -1244.4563380035815499
    Two-Electron Energy =                 506.1931875933726133
    DFT Exchange-Correlation Energy =       0.0000000000000000
    Empirical Dispersion Energy =           0.0000000000000000
    PCM Polarization Energy =               0.0000000000000000
    EFP Energy =                            0.0000000000000000
    Total Energy =                       -349.3760428937955567
    Molecular point group: c1
  Basis Set: CC-PVTZ
  Basis Set:

  -Total Gradient:
     Atom            X                  Y                   Z
    ------   -----------------  -----------------  -----------------
       1       -0.000002095234     0.000005815017    -0.000011987567
       2       -0.000014350266     0.000036123845     0.000020820780
       3        0.000005989622    -0.000065084143    -0.000009993899
       4        0.000004801445     0.000020440125    -0.000019279795
       5       -0.000000682410    -0.000005625085     0.000014868717
       6        0.000005118428     0.000004988421    -0.000009479762
       7        0.001519525420    -0.004020543579    -0.001531282343
       8        0.000006526775     0.000004941401     0.000000892069
       9       -0.000002173915     0.000003278498    -0.000006572599
      10       -0.001347809034     0.002898915208     0.001962182385
      11       -0.000983597783     0.002749460320     0.000867350494
      12        0.000007366590    -0.000004614125    -0.000006518838
      13        0.000804887254    -0.001618829593    -0.001275787636
      14       -0.000002114991     0.000006184443    -0.000004257486
      15        0.000002895551    -0.000009984076     0.000000976243
      16        0.000004193368     0.000003426959     0.000001238762
      17        0.000006007152    -0.000009811977     0.000000135904
      18        0.000012519702     0.000003056400     0.000011748721
      19       -0.000005699141     0.000002819831    -0.000000147054
      20       -0.000004583957    -0.000007946112     0.000016714894
      21       -0.000015906717     0.000009475146    -0.000004622535
      22        0.000000735821    -0.000009321206     0.000003510773
      23       -0.000008227494    -0.000003870740    -0.000003965611
      24        0.000006673806     0.000006705022    -0.000016544613

  **** Optimization is complete! (in 6 steps) ****
    Final optimized geometry and variables:
    Molecular point group: c1

    Geometry (in Angstrom), charge = 0, multiplicity = 1:

    H           -3.208165847590     0.747825759685    -1.069030103356
    O           -3.250835814821    -0.190819678572    -1.040753591166
    C           -2.969905287830    -0.641868762512     0.258194989338
    C           -1.546059643901    -0.346269550247     0.704497794596
    H           -3.140473763031    -1.711023796836     0.243440041593
    H           -3.674005122722    -0.212847082385     0.966722835198
    C           -0.476727250250    -1.043477558021    -0.136325610380
    H           -1.385914823753     0.730879050709     0.684512003011
    H           -1.448273967918    -0.647408825640     1.744542915167
    C            0.957216511090    -0.654087036329     0.265165401435
    H           -0.648611243034    -0.787145631542    -1.174739192595
    H           -0.612395628573    -2.116444403899    -0.049567548211
    C            1.583421368816     0.385264576245    -0.665210642082
    H            0.961840155317    -0.296283997224     1.288988313239
    H            1.589172559148    -1.537399813388     0.254664845425
    C            3.011485271196     0.795876391221    -0.303052788461
    H            0.955153750881     1.273456121354    -0.697110175406
    H            1.584452275362    -0.018821529478    -1.673110638569
    C            3.139644316891     1.582587898836     0.999258040259
    H            3.410830649688     1.399046236653    -1.112679966506
    H            3.636715712132    -0.091701403786    -0.251108778301
    H            2.522194729605     2.475013469531     0.976856932394
    H            4.164875732128     1.896185436474     1.159633142343
    H            2.841472568369     0.996075454150     1.859761241597

  Mulliken Charges: (a.u.)
   Center  Symbol    Alpha    Beta     Spin     Total
       1     H     0.39525  0.39525  0.00000  0.20951
       2     O     4.20319  4.20319  0.00000 -0.40638
       3     C     2.97634  2.97634  0.00000  0.04733
       4     C     3.10135  3.10135  0.00000 -0.20271
       5     H     0.45918  0.45918  0.00000  0.08164
       6     H     0.46034  0.46034  0.00000  0.07931
       7     C     3.09647  3.09647  0.00000 -0.19294
       8     H     0.45892  0.45892  0.00000  0.08216
       9     H     0.45285  0.45285  0.00000  0.09431
      10     C     3.10193  3.10193  0.00000 -0.20386
      11     H     0.44737  0.44737  0.00000  0.10525
      12     H     0.44768  0.44768  0.00000  0.10465
      13     C     3.09266  3.09266  0.00000 -0.18531
      14     H     0.45301  0.45301  0.00000  0.09397
      15     H     0.44752  0.44752  0.00000  0.10495
      16     C     3.09059  3.09059  0.00000 -0.18119
      17     H     0.45631  0.45631  0.00000  0.08738
      18     H     0.44738  0.44738  0.00000  0.10524
      19     C     3.15243  3.15243  0.00000 -0.30485
      20     H     0.44860  0.44860  0.00000  0.10280
      21     H     0.45476  0.45476  0.00000  0.09048
      22     H     0.45548  0.45548  0.00000  0.08904
      23     H     0.44637  0.44637  0.00000  0.10726
      24     H     0.45402  0.45402  0.00000  0.09197

   Total alpha = 33.00000, Total beta = 33.00000, Total charge = -0.00000

*** Psi4 exiting successfully. Buy a developer a beer!
