                              Psi4 1.0.54 Driver

  ==> Input File <==

--------------------------------------------------------------------------
set {
	reference rhf
	basis cc-pvtz
}

set_num_threads( 4 )
memory 2 gb

molecule MOL {
0 1

H	 3.442172	 0.414151	 -0.713295
C	 2.732421	 0.225749	 0.081714
C	 1.322304	 0.099773	 -0.484271
H	 3.036122	 -0.682920	 0.589116
H	 2.801601	 1.044372	 0.789110
C	 0.308557	 -0.162619	 0.622645
H	 1.278785	 -0.711927	 -1.199801
H	 1.046675	 1.008881	 -1.004355
N	 -1.069352	 -0.004081	 0.085342
H	 0.371632	 -1.172932	 0.991288
H	 0.400391	 0.548875	 1.426218
O	 -1.584901	 -0.965470	 -0.377818
O	 -1.548033	 1.079343	 0.130056

	symmetry c1
}
set optking {
	frozen_dihedral = ("
		7 3 6 9
	")
}

ee,wfn = optimize('scf', return_wfn=True)
oeprop( wfn, 'DIPOLE', 'QUADRUPOLE', 'MULLIKEN_CHARGES')
f=open( 'psi4out.xyz', 'w' )
f.write( "13  " )
f.write( str(ee) + "\n" )
f.write( MOL.save_string_xyz() )
f.close()
--------------------------------------------------------------------------

    Molecular point group: c1
  Charge       = 0
  Multiplicity = 1
  Basis Set: CC-PVTZ
  Basis Set:
  @DF-RHF Final Energy:  -321.86103122280571
    Total Energy =                       -321.8610312228055932
    Molecular point group: c1
  Basis Set: CC-PVTZ
  Basis Set:
  Basis Set: CC-PVTZ
  Basis Set:
  @DF-RHF Final Energy:  -321.86105426536659
    Total Energy =                       -321.8610542653664197
  Basis Set: CC-PVTZ
  Basis Set:
  Basis Set: CC-PVTZ
  Basis Set:
  @DF-RHF Final Energy:  -321.86065405173218
    Total Energy =                       -321.8606540517319559
  Basis Set: CC-PVTZ
  Basis Set:
  Basis Set: CC-PVTZ
  Basis Set:
  @DF-RHF Final Energy:  -321.86102584916188
    Total Energy =                       -321.8610258491619902
  Basis Set: CC-PVTZ
  Basis Set:
  Basis Set: CC-PVTZ
  Basis Set:
  @DF-RHF Final Energy:  -321.86108772404992
    Total Energy =                       -321.8610877240497530
  Basis Set: CC-PVTZ
  Basis Set:
  Basis Set: CC-PVTZ
  Basis Set:
  @DF-RHF Final Energy:  -321.86109174110914
    Total Energy =                       -321.8610917411090213
  Basis Set: CC-PVTZ
  Basis Set:
  Charge       = 0
  Multiplicity = 1
  Basis Set: CC-PVTZ
  Basis Set:

    Orbital Energies (a.u.)
    -----------------------

    Doubly Occupied:

       1A    -20.590351     2A    -20.590286     3A    -15.836850
       4A    -11.297285     5A    -11.254507     6A    -11.237082
       7A     -1.635908     8A     -1.420236     9A     -1.134191
      10A     -1.027894    11A     -0.883826    12A     -0.834475
      13A     -0.761549    14A     -0.738528    15A     -0.727599
      16A     -0.673316    17A     -0.604401    18A     -0.589354
      19A     -0.549982    20A     -0.520466    21A     -0.515602
      22A     -0.486683    23A     -0.474989    24A     -0.453004

  @DF-RHF Final Energy:  -321.86109234585501

   => Energetics <=

    Nuclear Repulsion Energy =            248.0378688966656853
    One-Electron Energy =                -930.1211955161493279
    Two-Electron Energy =                 360.2222342736283736
    DFT Exchange-Correlation Energy =       0.0000000000000000
    Empirical Dispersion Energy =           0.0000000000000000
    PCM Polarization Energy =               0.0000000000000000
    EFP Energy =                            0.0000000000000000
    Total Energy =                       -321.8610923458552406
    Molecular point group: c1
  Basis Set: CC-PVTZ
  Basis Set:

  -Total Gradient:
     Atom            X                  Y                   Z
    ------   -----------------  -----------------  -----------------
       1       -0.000007574496    -0.000002295412     0.000016398959
       2        0.000014578939    -0.000009945461    -0.000004415665
       3       -0.001961895063     0.001969403578    -0.001306972449
       4        0.000000720683     0.000014046613    -0.000007303607
       5       -0.000005133398    -0.000015484089    -0.000012183054
       6        0.000333658363    -0.002445282235    -0.000284380091
       7        0.001602526671    -0.001129909740     0.001172934743
       8        0.000006724677    -0.000010304596     0.000006988979
       9        0.000005397974     0.001593905052     0.000427737159
      10        0.000003435780     0.000013586057    -0.000002765960
      11       -0.000004100603     0.000011580626     0.000003720736
      12       -0.000007899410     0.000012997935     0.000008460702
      13        0.000019559881    -0.000002298327    -0.000018220452

  **** Optimization is complete! (in 7 steps) ****
    Final optimized geometry and variables:
    Molecular point group: c1

    Geometry (in Angstrom), charge = 0, multiplicity = 1:

    H            3.447899315487     0.334897910332    -0.742870956761
    C            2.737044095456     0.174693385428     0.057350943003
    C            1.322366951864     0.063465544773    -0.502881613454
    H            3.026494747441    -0.730150420944     0.580297875637
    H            2.822417541064     1.004177985898     0.749754221572
    C            0.315729854926    -0.204397017504     0.610872750001
    H            1.279746890948    -0.747361972576    -1.218959909544
    H            1.052240332596     0.978973935256    -1.013765609699
    N           -1.066743575725    -0.053037718343     0.083579682663
    H            0.389965155577    -1.209963431476     0.989619220609
    H            0.405136095148     0.515883626220     1.406917724142
    O           -1.569625454098    -1.009341268081    -0.403909995376
    O           -1.561689734388     1.021216572124     0.159373113741

  Mulliken Charges: (a.u.)
   Center  Symbol    Alpha    Beta     Spin     Total
       1     H     0.44187  0.44187  0.00000  0.11626
       2     C     3.15109  3.15109  0.00000 -0.30217
       3     C     3.09517  3.09517  0.00000 -0.19034
       4     H     0.45226  0.45226  0.00000  0.09547
       5     H     0.45083  0.45083  0.00000  0.09834
       6     C     3.03883  3.03883  0.00000 -0.07767
       7     H     0.43895  0.43895  0.00000  0.12210
       8     H     0.43757  0.43757  0.00000  0.12487
       9     N     3.27681  3.27681  0.00000  0.44639
      10     H     0.43348  0.43348  0.00000  0.13303
      11     H     0.43600  0.43600  0.00000  0.12800
      12     O     4.17432  4.17432  0.00000 -0.34864
      13     O     4.17282  4.17282  0.00000 -0.34564

   Total alpha = 24.00000, Total beta = 24.00000, Total charge =  0.00000

*** Psi4 exiting successfully. Buy a developer a beer!
