  ==> Input File <==

--------------------------------------------------------------------------
set {
	reference rhf
	basis cc-pvtz
}

set_num_threads( 4 )
memory 2 gb

molecule MOL {
0 1

H	 1.128311	 0.207724	 1.465118
C	 1.134565	 0.093781	 0.372499
C	 0.062554	 0.862911	 -0.350953
O	 1.948932	 -0.587720	 -0.146651
C	 -1.257493	 0.906181	 0.425074
H	 -0.068575	 0.429665	 -1.334109
H	 0.436462	 1.876433	 -0.477605
C	 -1.937520	 -0.454860	 0.542472
H	 -1.924061	 1.601737	 -0.071376
H	 -1.079050	 1.313537	 1.416369
H	 -2.159615	 -0.863536	 -0.436923
H	 -2.869197	 -0.373806	 1.089326
H	 -1.311935	 -1.172712	 1.061478

	symmetry c1
}
set optking {
	frozen_dihedral = ("
		6 3 2 4
	")
}

ee = optimize('scf')
oeprop('DIPOLE', 'QUADRUPOLE', 'MULLIKEN_CHARGES')
f=open( 'psi4out.xyz', 'w' )
f.write( "13  " )
f.write( str(ee) + "\n" )
f.write( MOL.save_string_xyz() )
f.close()
--------------------------------------------------------------------------

    Molecular point group: c1
  Charge       = 0
  Multiplicity = 1
  Basis Set: CC-PVTZ
  Basis Set:
  @DF-RHF Final Energy:  -231.07037129682448
    Total Energy =                       -231.0703712968244758
    Molecular point group: c1
  Basis Set: CC-PVTZ
  Basis Set:
  Basis Set: CC-PVTZ
  Basis Set:
  @DF-RHF Final Energy:  -231.06944346479463
    Total Energy =                       -231.0694434647945741
  Basis Set: CC-PVTZ
  Basis Set:
  Basis Set: CC-PVTZ
  Basis Set:
  @DF-RHF Final Energy:  -231.07043756039084
    Total Energy =                       -231.0704375603909284
  Basis Set: CC-PVTZ
  Basis Set:
  Basis Set: CC-PVTZ
  Basis Set:
  @DF-RHF Final Energy:  -231.07044426342623
    Total Energy =                       -231.0704442634263955
  Basis Set: CC-PVTZ
  Basis Set:
  Basis Set: CC-PVTZ
  Basis Set:
  @DF-RHF Final Energy:  -231.07044206767162
    Total Energy =                       -231.0704420676717064
  Basis Set: CC-PVTZ
  Basis Set:
  Charge       = 0
  Multiplicity = 1
  Basis Set: CC-PVTZ
  Basis Set:

    Orbital Energies (a.u.)
    -----------------------

    Doubly Occupied:

       1A    -20.552148     2A    -11.322356     3A    -11.236084
       4A    -11.234945     5A    -11.221318     6A     -1.407501
       7A     -1.088725     8A     -0.974013     9A     -0.848868
      10A     -0.791403    11A     -0.665160    12A     -0.650766
      13A     -0.634696    14A     -0.595683    15A     -0.564344
      16A     -0.534820    17A     -0.508689    18A     -0.493769
      19A     -0.484588    20A     -0.412926

  @DF-RHF Final Energy:  -231.07044481079677

   => Energetics <=

    Nuclear Repulsion Energy =            173.5226002862327448
    One-Electron Energy =                -656.7404860071383155
    Two-Electron Energy =                 252.1474409101086565
    DFT Exchange-Correlation Energy =       0.0000000000000000
    Empirical Dispersion Energy =           0.0000000000000000
    PCM Polarization Energy =               0.0000000000000000
    EFP Energy =                            0.0000000000000000
    Total Energy =                       -231.0704448107968858
    Molecular point group: c1
  Basis Set: CC-PVTZ
  Basis Set:

  -Total Gradient:
     Atom            X                  Y                   Z
    ------   -----------------  -----------------  -----------------
       1       -0.000013358043     0.000001180813    -0.000009470762
       2       -0.001128342898    -0.001435949383     0.000191540397
       3        0.001199205067     0.001205316657    -0.000513566697
       4        0.000678360728     0.000884361466    -0.000074675269
       5       -0.000013016583     0.000009539503    -0.000007666457
       6       -0.000729671834    -0.000669307519     0.000405237337
       7        0.000001109845     0.000008520300     0.000004399991
       8        0.000014293142    -0.000000522840     0.000007771779
       9        0.000003807531     0.000009225152    -0.000003016582
      10       -0.000005686913    -0.000006255370    -0.000004558884
      11       -0.000000809250     0.000004105030     0.000001632802
      12       -0.000004123108    -0.000005641716     0.000005114099
      13       -0.000001767689    -0.000004572094    -0.000002741754

  **** Optimization is complete! (in 6 steps) ****
    Final optimized geometry and variables:
    Molecular point group: c1

    Geometry (in Angstrom), charge = 0, multiplicity = 1:

    H            1.169388843069     0.072294203695     1.296550303380
    C            1.150119948488    -0.055263362416     0.205756142637
    C            0.069726867947     0.711919596624    -0.512154868311
    O            1.962873832221    -0.729102337155    -0.325322956053
    C           -1.251574450951     0.760460326690     0.255688015575
    H           -0.059800962184     0.278095645858    -1.495603864082
    H            0.452685827409     1.721248111359    -0.645356056682
    C           -1.932970519210    -0.600322650614     0.370383482245
    H           -1.916725079082     1.456017234592    -0.242763693841
    H           -1.077256240089     1.167242090918     1.247939629928
    H           -2.152924863508    -1.007868533629    -0.610105623363
    H           -2.865724525238    -0.521904385535     0.915636484454
    H           -1.308550808589    -1.319166339712     0.890525281037

  Mulliken Charges: (a.u.)
   Center  Symbol    Alpha    Beta     Spin     Total
       1     H     0.46347  0.46347  0.00000  0.07305
       2     C     2.90889  2.90889  0.00000  0.18223
       3     C     3.08701  3.08701  0.00000 -0.17401
       4     O     4.16391  4.16391  0.00000 -0.32782
       5     C     3.10385  3.10385  0.00000 -0.20769
       6     H     0.44180  0.44180  0.00000  0.11640
       7     H     0.44083  0.44083  0.00000  0.11834
       8     C     3.14511  3.14511  0.00000 -0.29022
       9     H     0.44375  0.44375  0.00000  0.11250
      10     H     0.45166  0.45166  0.00000  0.09668
      11     H     0.45089  0.45089  0.00000  0.09821
      12     H     0.44585  0.44585  0.00000  0.10831
      13     H     0.45299  0.45299  0.00000  0.09402

   Total alpha = 20.00000, Total beta = 20.00000, Total charge =  0.00000
