  ==> Input File <==

--------------------------------------------------------------------------
set {
	reference rhf
	basis cc-pvtz
}

set_num_threads( 4 )
memory 2 gb

molecule MOL {
0 1

O	 -0.312581	 0.304769	 0.864597
C	 0.485107	 0.171416	 -0.000134
C	 1.606966	 -0.836201	 0.000174
O	 0.495593	 0.903454	 -1.100405
C	 2.988788	 -0.202529	 -0.000115
H	 1.465110	 -1.474645	 -0.864821
H	 1.465209	 -1.474077	 0.865596
H	 3.131767	 0.419673	 -0.873407
H	 3.750876	 -0.972315	 0.000098
H	 3.131883	 0.420264	 0.872742
C	 -0.507054	 1.899719	 -1.243384
C	 -0.283146	 2.593524	 -2.566633
H	 -0.437791	 2.591565	 -0.415797
H	 -1.479792	 1.430357	 -1.200910
H	 0.694076	 3.058748	 -2.597878
H	 -1.033542	 3.362420	 -2.707833
H	 -0.353919	 1.890966	 -3.387470

	symmetry c1
}
set optking {
	frozen_dihedral = ("
		4 2 3 6
	")
}

ee = optimize('scf')
oeprop('DIPOLE', 'QUADRUPOLE', 'MULLIKEN_CHARGES')
f=open( 'psi4out.xyz', 'w' )
f.write( "17  " )
f.write( str(ee) + "\n" )
f.write( MOL.save_string_xyz() )
f.close()
--------------------------------------------------------------------------

    Molecular point group: c1
  Charge       = 0
  Multiplicity = 1
  Basis Set: CC-PVTZ
  Basis Set:
  @DF-RHF Final Energy:  -345.03878009433271
    Total Energy =                       -345.0387800943329921
    Molecular point group: c1
  Basis Set: CC-PVTZ
  Basis Set:
  Basis Set: CC-PVTZ
  Basis Set:
  @DF-RHF Final Energy:  -345.03906709244666
    Total Energy =                       -345.0390670924464303
  Basis Set: CC-PVTZ
  Basis Set:
  Basis Set: CC-PVTZ
  Basis Set:
  @DF-RHF Final Energy:  -345.03906888858205
    Total Energy =                       -345.0390688885821078
  Basis Set: CC-PVTZ
  Basis Set:
  Basis Set: CC-PVTZ
  Basis Set:
  @DF-RHF Final Energy:  -345.03905034477174
    Total Energy =                       -345.0390503447713968
  Basis Set: CC-PVTZ
  Basis Set:
  Basis Set: CC-PVTZ
  Basis Set:
  @DF-RHF Final Energy:  -345.03907819782182
    Total Energy =                       -345.0390781978220502
  Basis Set: CC-PVTZ
  Basis Set:
  Charge       = 0
  Multiplicity = 1
  Basis Set: CC-PVTZ
  Basis Set:

    Orbital Energies (a.u.)
    -----------------------

    Doubly Occupied:

       1A    -20.594139     2A    -20.531686     3A    -11.362710
       4A    -11.282802     5A    -11.235045     6A    -11.223372
       7A    -11.220759     8A     -1.470292     9A     -1.363767
      10A     -1.073890    11A     -1.031339    12A     -0.908219
      13A     -0.857632    14A     -0.779588    15A     -0.695284
      16A     -0.682424    17A     -0.673452    18A     -0.621729
      19A     -0.593924    20A     -0.575234    21A     -0.553712
      22A     -0.544308    23A     -0.526313    24A     -0.509644
      25A     -0.505355    26A     -0.497576    27A     -0.455507
      28A     -0.434484

  @DF-RHF Final Energy:  -345.03907827659179

   => Energetics <=

    Nuclear Repulsion Energy =            317.5790057692491928
    One-Electron Energy =               -1099.6278072150203116
    Two-Electron Energy =                 437.0097231691791535
    DFT Exchange-Correlation Energy =       0.0000000000000000
    Empirical Dispersion Energy =           0.0000000000000000
    PCM Polarization Energy =               0.0000000000000000
    EFP Energy =                            0.0000000000000000
    Total Energy =                       -345.0390782765919653
    Molecular point group: c1
  Basis Set: CC-PVTZ
  Basis Set:

  -Total Gradient:
     Atom            X                  Y                   Z
    ------   -----------------  -----------------  -----------------
       1        0.000021375135     0.000009272249    -0.000049367168
       2       -0.000247899206    -0.000283108903    -0.000029224320
       3        0.000271485897     0.000272937106    -0.000157564194
       4        0.000133997461     0.000209340377     0.000094549740
       5       -0.000018563518    -0.000004026364    -0.000011146752
       6       -0.000163486513    -0.000182678591     0.000166121568
       7        0.000000239915    -0.000005899870     0.000000271646
       8        0.000005247419     0.000003640225    -0.000000659338
       9        0.000004186706    -0.000002959068     0.000001915304
      10       -0.000002559393    -0.000002953222    -0.000000932706
      11       -0.000013179384    -0.000047429021    -0.000023350660
      12        0.000001699238     0.000017695108     0.000003083796
      13        0.000006636298     0.000003295869     0.000005780743
      14       -0.000001694078     0.000010074174     0.000002334580
      15        0.000002065613     0.000002404547    -0.000004998379
      16        0.000001338807     0.000002359750    -0.000002279771
      17       -0.000000890399    -0.000001964365     0.000005465907

  **** Optimization is complete! (in 6 steps) ****
    Final optimized geometry and variables:
    Molecular point group: c1

    Geometry (in Angstrom), charge = 0, multiplicity = 1:

    O           -0.957530245289    -0.416191323129     1.440625526045
    C           -0.151568609107    -0.540880394755     0.581757825959
    C            0.968532399091    -1.549949181265     0.599520034205
    O           -0.136722139069     0.199599756274    -0.513094331096
    C            2.354487617301    -0.904940413373     0.575896251662
    H            0.847601988104    -2.193550432198    -0.264643570115
    H            0.838198870500    -2.150177228505     1.487571801586
    H            2.502255341585    -0.326328404088    -0.325496260747
    H            3.119194970215    -1.670146044863     0.617993628303
    H            2.492575418480    -0.249724615428     1.428056378542
    C           -1.140477815645     1.195101370407    -0.653899127165
    C           -0.911379342308     1.900062571266    -1.970356484572
    H           -1.077050747875     1.880181108424     0.179694302207
    H           -2.112219219032     0.723137769965    -0.620130455167
    H            0.064169750363     2.369409589873    -1.992653846150
    H           -1.663746430369     2.667357010799    -2.109644048015
    H           -0.975217444858     1.203839826651    -2.797150212832

  Mulliken Charges: (a.u.)
   Center  Symbol    Alpha    Beta     Spin     Total
       1     O     4.19907  4.19907  0.00000 -0.39814
       2     C     2.80725  2.80725  0.00000  0.38549
       3     C     3.08427  3.08427  0.00000 -0.16855
       4     O     4.15431  4.15431  0.00000 -0.30861
       5     C     3.15001  3.15001  0.00000 -0.30003
       6     H     0.44790  0.44790  0.00000  0.10419
       7     H     0.43650  0.43650  0.00000  0.12700
       8     H     0.44619  0.44619  0.00000  0.10762
       9     H     0.44775  0.44775  0.00000  0.10450
      10     H     0.44997  0.44997  0.00000  0.10007
      11     C     2.97871  2.97871  0.00000  0.04258
      12     C     3.13369  3.13369  0.00000 -0.26737
      13     H     0.45444  0.45444  0.00000  0.09112
      14     H     0.45302  0.45302  0.00000  0.09396
      15     H     0.45148  0.45148  0.00000  0.09704
      16     H     0.45398  0.45398  0.00000  0.09203
      17     H     0.45145  0.45145  0.00000  0.09709

   Total alpha = 28.00000, Total beta = 28.00000, Total charge =  0.00000
