  ==> Input File <==

--------------------------------------------------------------------------
set {
	reference rhf
	basis cc-pvtz
}

set_num_threads( 4 )
memory 2 gb

molecule MOL {
0 1

H	 1.255363	 1.794454	 -2.933264
O	 1.863449	 1.706729	 -2.221044
C	 1.289328	 1.127518	 -1.151707
C	 2.078151	 0.937117	 -0.026262
C	 -0.030014	 0.727954	 -1.145001
H	 3.101526	 1.255164	 -0.052815
C	 1.544651	 0.349369	 1.097696
H	 -0.661176	 0.862514	 -1.998714
C	 -0.532034	 0.141680	 0.000000
H	 2.161802	 0.206265	 1.962793
C	 0.222109	 -0.060355	 1.128597
N	 -1.937041	 -0.281114	 0.000000
H	 -0.205548	 -0.517885	 1.993754
O	 -2.159542	 -1.446261	 0.000000
O	 -2.764978	 0.565773	 0.000000

	symmetry c1
}
set optking {
	frozen_dihedral = ("
		11 9 12 14
	")
}

ee = optimize('scf')
oeprop('DIPOLE', 'QUADRUPOLE', 'MULLIKEN_CHARGES')
f=open( 'psi4out.xyz', 'w' )
f.write( "15  " )
f.write( str(ee) + "\n" )
f.write( MOL.save_string_xyz() )
f.close()
--------------------------------------------------------------------------

    Molecular point group: c1
  Charge       = 0
  Multiplicity = 1
  Basis Set: CC-PVTZ
  Basis Set:
  @DF-RHF Final Energy:  -509.21074936755588
    Total Energy =                       -509.2107493675556498
    Molecular point group: c1
  Basis Set: CC-PVTZ
  Basis Set:
  Basis Set: CC-PVTZ
  Basis Set:
  @DF-RHF Final Energy:  -509.20434493910449
    Total Energy =                       -509.2043449391045442
  Basis Set: CC-PVTZ
  Basis Set:
  Basis Set: CC-PVTZ
  Basis Set:
  @DF-RHF Final Energy:  -509.21084299011176
    Total Energy =                       -509.2108429901119280
  Basis Set: CC-PVTZ
  Basis Set:
  Basis Set: CC-PVTZ
  Basis Set:
  @DF-RHF Final Energy:  -509.21116009331013
    Total Energy =                       -509.2111600933102409
  Basis Set: CC-PVTZ
  Basis Set:
  Charge       = 0
  Multiplicity = 1
  Basis Set: CC-PVTZ
  Basis Set:

    Orbital Energies (a.u.)
    -----------------------

    Doubly Occupied:

       1A    -20.610411     2A    -20.600463     3A    -20.599980
       4A    -15.850826     5A    -11.330525     6A    -11.314114
       7A    -11.265101     8A    -11.263915     9A    -11.258080
      10A    -11.250957    11A     -1.647782    12A     -1.443350
      13A     -1.431086    14A     -1.204529    15A     -1.096665
      16A     -1.049922    17A     -0.966868    18A     -0.886665
      19A     -0.833861    20A     -0.794001    21A     -0.767702
      22A     -0.741071    23A     -0.724508    24A     -0.712859
      25A     -0.673057    26A     -0.636210    27A     -0.623682
      28A     -0.596576    29A     -0.565443    30A     -0.550156
      31A     -0.536750    32A     -0.495537    33A     -0.488327
      34A     -0.461171    35A     -0.376708    36A     -0.346474

  @DF-RHF Final Energy:  -509.21116103420661

   => Energetics <=

    Nuclear Repulsion Energy =            504.0257197023104254
    One-Electron Energy =               -1694.4830956769617387
    Two-Electron Energy =                 681.2462149404445881
    DFT Exchange-Correlation Energy =       0.0000000000000000
    Empirical Dispersion Energy =           0.0000000000000000
    PCM Polarization Energy =               0.0000000000000000
    EFP Energy =                            0.0000000000000000
    Total Energy =                       -509.2111610342067252
    Molecular point group: c1
  Basis Set: CC-PVTZ
  Basis Set:

  -Total Gradient:
     Atom            X                  Y                   Z
    ------   -----------------  -----------------  -----------------
       1       -0.000001058312    -0.000006097283    -0.000003208042
       2        0.000020564517     0.000026018925    -0.000040147395
       3       -0.000058114438    -0.000014087962     0.000038514062
       4       -0.000007876636     0.000012305644    -0.000004660621
       5        0.000057254098    -0.000035506741    -0.000081533611
       6       -0.000004963587     0.000000276297     0.000002430110
       7        0.000007037722    -0.000050259987     0.000016825296
       8        0.000015908873    -0.000001916799     0.000022008253
       9        0.001186945009    -0.004852760581    -0.003244982612
      10       -0.000005101430     0.000003159800     0.000006373349
      11       -0.000905624215     0.003371474523     0.001237842914
      12       -0.000607817620     0.001787283713     0.006236331030
      13        0.000013784891     0.000005806386    -0.000022892777
      14        0.000135097530    -0.000361917617    -0.004198674391
      15        0.000153963585     0.000116221684     0.000035774435

  **** Optimization is complete! (in 5 steps) ****
    Final optimized geometry and variables:
    Molecular point group: c1

    Geometry (in Angstrom), charge = 0, multiplicity = 1:

    H            1.356299761641     1.422579235617    -2.659068566447
    O            1.965249890069     1.331606042687    -1.948075459271
    C            1.395461429066     0.751629388737    -0.879185146674
    C            2.184595495384     0.567777000832     0.247302705318
    C            0.073631405777     0.352133131733    -0.870046211611
    H            3.205217631036     0.893568810722     0.221727315521
    C            1.652192813405    -0.019125458950     1.371639950640
    H           -0.564932155810     0.508017981286    -1.717774743320
    C           -0.411269115117    -0.253096152184     0.267485727825
    H            2.267160444399    -0.149165403969     2.240567163147
    C            0.333714603842    -0.445784828029     1.399375800348
    N           -1.821983333137    -0.649232325975     0.277226458323
    H           -0.088923230301    -0.915263872854     2.263841712829
    O           -2.056711278727    -1.809557567241     0.302806447119
    O           -2.625007802145     0.220078599053     0.227760812131

  Mulliken Charges: (a.u.)
   Center  Symbol    Alpha    Beta     Spin     Total
       1     H     0.38452  0.38452  0.00000  0.23095
       2     O     4.16722  4.16722  0.00000 -0.33444
       3     C     2.84176  2.84176  0.00000  0.31649
       4     C     3.10748  3.10748  0.00000 -0.21496
       5     C     3.13963  3.13963  0.00000 -0.27926
       6     H     0.41420  0.41420  0.00000  0.17160
       7     C     3.04934  3.04934  0.00000 -0.09867
       8     H     0.42173  0.42173  0.00000  0.15654
       9     C     2.92121  2.92121  0.00000  0.15759
      10     H     0.41632  0.41632  0.00000  0.16736
      11     C     3.10800  3.10800  0.00000 -0.21599
      12     N     3.28827  3.28827  0.00000  0.42347
      13     H     0.41318  0.41318  0.00000  0.17364
      14     O     4.16278  4.16278  0.00000 -0.32555
      15     O     4.16437  4.16437  0.00000 -0.32875

   Total alpha = 36.00000, Total beta = 36.00000, Total charge = -0.00000
