                              Psi4 1.0.54 Driver

  ==> Input File <==

--------------------------------------------------------------------------
set {
	reference rhf
	basis cc-pvtz
}

set_num_threads( 4 )
memory 2 gb

molecule MOL {
0 1

H	 -4.067231	 0.949684	 -0.444879
O	 -3.355176	 0.383425	 -0.678382
C	 -2.302264	 0.528872	 0.237390
C	 -1.175688	 -0.398187	 -0.171891
H	 -1.948975	 1.557840	 0.250991
H	 -2.636293	 0.284080	 1.243537
C	 0.196029	 0.106276	 0.266738
H	 -1.201873	 -0.515469	 -1.250677
H	 -1.365975	 -1.378728	 0.252664
C	 1.330220	 -0.826136	 -0.155230
H	 0.359542	 1.097229	 -0.145561
H	 0.212134	 0.218135	 1.348778
C	 2.719700	 -0.407669	 0.328325
H	 1.339388	 -0.911200	 -1.239363
H	 1.119001	 -1.821953	 0.224128
C	 3.241564	 0.893452	 -0.276737
H	 3.418299	 -1.204729	 0.093035
H	 2.711776	 -0.323368	 1.411960
H	 3.254204	 0.841071	 -1.360784
H	 2.634460	 1.745075	 0.005842
H	 4.254264	 1.092401	 0.054971

	symmetry c1
}
set optking {
	frozen_dihedral = ("
		2 3 4 8
	")
}

ee,wfn = optimize('scf', return_wfn=True)
oeprop( wfn, 'DIPOLE', 'QUADRUPOLE', 'MULLIKEN_CHARGES')
f=open( 'psi4out.xyz', 'w' )
f.write( "21  " )
f.write( str(ee) + "\n" )
f.write( MOL.save_string_xyz() )
f.close()
--------------------------------------------------------------------------

    Molecular point group: c1
  Charge       = 0
  Multiplicity = 1
  Basis Set: CC-PVTZ
  Basis Set:
  @DF-RHF Final Energy:  -310.33033373566309
    Total Energy =                       -310.3303337356629754
    Molecular point group: c1
  Basis Set: CC-PVTZ
  Basis Set:
  Basis Set: CC-PVTZ
  Basis Set:
  @DF-RHF Final Energy:  -310.33056048268594
    Total Energy =                       -310.3305604826861668
  Basis Set: CC-PVTZ
  Basis Set:
  Basis Set: CC-PVTZ
  Basis Set:
  @DF-RHF Final Energy:  -310.33064846240120
    Total Energy =                       -310.3306484624012000
  Basis Set: CC-PVTZ
  Basis Set:
  Basis Set: CC-PVTZ
  Basis Set:
  @DF-RHF Final Energy:  -310.33065081157764
    Total Energy =                       -310.3306508115776978
  Basis Set: CC-PVTZ
  Basis Set:
  Basis Set: CC-PVTZ
  Basis Set:
  @DF-RHF Final Energy:  -310.33065199760358
    Total Energy =                       -310.3306519976038089
  Basis Set: CC-PVTZ
  Basis Set:
  Charge       = 0
  Multiplicity = 1
  Basis Set: CC-PVTZ
  Basis Set:

    Orbital Energies (a.u.)
    -----------------------

    Doubly Occupied:

       1A    -20.545462     2A    -11.265122     3A    -11.213005
       4A    -11.212905     5A    -11.210968     6A    -11.208703
       7A    -11.205665     8A     -1.362974     9A     -1.086866
      10A     -1.033434    11A     -0.954994    12A     -0.876618
      13A     -0.808044    14A     -0.779243    15A     -0.699780
      16A     -0.656162    17A     -0.621246    18A     -0.609778
      19A     -0.590259    20A     -0.567151    21A     -0.540622
      22A     -0.520868    23A     -0.509490    24A     -0.491547
      25A     -0.478368    26A     -0.459979    27A     -0.456223
      28A     -0.444300    29A     -0.434472

  @DF-RHF Final Energy:  -310.33065242884874

   => Energetics <=

    Nuclear Repulsion Energy =            312.9314121624025233
    One-Electron Energy =               -1040.8356287472406621
    Two-Electron Energy =                 417.5735641559894589
    DFT Exchange-Correlation Energy =       0.0000000000000000
    Empirical Dispersion Energy =           0.0000000000000000
    PCM Polarization Energy =               0.0000000000000000
    EFP Energy =                            0.0000000000000000
    Total Energy =                       -310.3306524288487367
    Molecular point group: c1
  Basis Set: CC-PVTZ
  Basis Set:

  -Total Gradient:
     Atom            X                  Y                   Z
    ------   -----------------  -----------------  -----------------
       1        0.000000465870    -0.000001239016    -0.000002747019
       2        0.001244368568     0.002525251284    -0.001864749847
       3       -0.002156473997    -0.004048063618     0.002515302014
       4        0.003514863891     0.005029755485    -0.001026769651
       5        0.000002690088     0.000004219032    -0.000000927817
       6       -0.000003265544     0.000000040572    -0.000000492129
       7       -0.000022219076    -0.000012997560    -0.000005279240
       8       -0.002578223441    -0.003492559829     0.000376314975
       9       -0.000003273237    -0.000007306202     0.000008784741
      10        0.000001241903     0.000003052740    -0.000010437895
      11        0.000000380998    -0.000001949517     0.000001935305
      12       -0.000003452443     0.000000070282     0.000002953145
      13        0.000000658539     0.000001621853     0.000012841787
      14       -0.000000306158    -0.000006001549    -0.000001816469
      15       -0.000004272117     0.000005761877    -0.000000689282
      16        0.000000483962    -0.000002594766    -0.000005095028
      17       -0.000000337026     0.000007743213    -0.000004651498
      18        0.000005381306    -0.000005595429     0.000005360158
      19        0.000002513147     0.000000155595     0.000000034290
      20       -0.000000531853    -0.000002418298    -0.000000494109
      21       -0.000000693373     0.000003053853     0.000000623567

  **** Optimization is complete! (in 6 steps) ****
    Final optimized geometry and variables:
    Molecular point group: c1

    Geometry (in Angstrom), charge = 0, multiplicity = 1:

    H           -4.149279702775     0.808003727712    -0.270758672437
    O           -3.405392440979     0.322203858685    -0.575647343993
    C           -2.335976813335     0.463712378049     0.322913392055
    C           -1.192915768679    -0.432359296005    -0.131947336091
    H           -2.005376842783     1.500229342762     0.339052515454
    H           -2.642127252912     0.204679133875     1.333197599092
    C            0.178044408960     0.056413738683     0.321600193575
    H           -1.245036066378    -0.516137519971    -1.211799567198
    H           -1.363794023008    -1.437576870173     0.243037800055
    C            1.306492347751    -0.893747056422    -0.073622825052
    H            0.356686414427     1.041309685250    -0.097417868179
    H            0.179563429952     0.179119206262     1.403238176742
    C            2.695769567315    -0.479960999499     0.414726522166
    H            1.323593208020    -0.997392155498    -1.156080961177
    H            1.082862528076    -1.880938229705     0.320836400838
    C            3.236945874066     0.803344680739    -0.210939011411
    H            3.388227467486    -1.288510670512     0.201643696791
    H            2.678800932143    -0.374270718450     1.496413925461
    H            3.259008615387     0.729157719163    -1.293496587240
    H            2.636312751557     1.666669994080     0.048788554185
    H            4.248576002328     0.998242797540     0.126398938124

  Mulliken Charges: (a.u.)
   Center  Symbol    Alpha    Beta     Spin     Total
       1     H     0.39621  0.39621  0.00000  0.20758
       2     O     4.19598  4.19598  0.00000 -0.39196
       3     C     2.96277  2.96277  0.00000  0.07446
       4     C     3.08704  3.08704  0.00000 -0.17408
       5     H     0.47778  0.47778  0.00000  0.04445
       6     H     0.47223  0.47223  0.00000  0.05554
       7     C     3.10125  3.10125  0.00000 -0.20250
       8     H     0.44623  0.44623  0.00000  0.10754
       9     H     0.45499  0.45499  0.00000  0.09002
      10     C     3.09517  3.09517  0.00000 -0.19035
      11     H     0.45139  0.45139  0.00000  0.09722
      12     H     0.45601  0.45601  0.00000  0.08799
      13     C     3.08987  3.08987  0.00000 -0.17974
      14     H     0.45267  0.45267  0.00000  0.09466
      15     H     0.44911  0.44911  0.00000  0.10179
      16     C     3.15218  3.15218  0.00000 -0.30437
      17     H     0.44849  0.44849  0.00000  0.10301
      18     H     0.45531  0.45531  0.00000  0.08938
      19     H     0.45444  0.45444  0.00000  0.09112
      20     H     0.45421  0.45421  0.00000  0.09158
      21     H     0.44667  0.44667  0.00000  0.10666

   Total alpha = 29.00000, Total beta = 29.00000, Total charge = -0.00000

*** Psi4 exiting successfully. Buy a developer a beer!
