  ==> Input File <==

--------------------------------------------------------------------------
set {
	reference rhf
	basis 6-31G*
}

set_num_threads( 1 )
memory 2 gb

molecule MOL {
0 1

O	 -0.988096	 -1.408613	 0.050699
C	 -0.676749	 -0.249230	 -0.009274
C	 -1.746085	 0.827156	 -0.009539
N	 0.623947	 0.147590	 -0.102813
H	 -1.701500	 1.431508	 -0.908902
H	 -2.703425	 0.330732	 0.036390
H	 -1.647323	 1.487769	 0.845106
C	 1.039087	 0.897071	 -1.272349
C	 1.698606	 -0.405156	 0.692061
H	 1.748961	 1.662143	 -0.977796
H	 0.179955	 1.361738	 -1.723920
H	 1.516209	 0.251447	 -2.006479
H	 2.446901	 0.360773	 0.857734
H	 1.349439	 -0.734176	 1.657857
H	 2.181881	 -1.244104	 0.194644

	symmetry c1
}
set optking {
	frozen_dihedral = ("
		2 4 8 10
	")
}

ee = energy('scf')
oeprop('DIPOLE', 'QUADRUPOLE', 'MULLIKEN_CHARGES')
f=open( 'psi4out.xyz', 'w' )
f.write( "15  " )
f.write( str(ee) + "\n" )
f.write( MOL.save_string_xyz() )
f.close()
--------------------------------------------------------------------------

    Molecular point group: c1

    Geometry (in Angstrom), charge = 0, multiplicity = 1:

       Center              X                  Y                   Z               Mass
    ------------   -----------------  -----------------  -----------------  -----------------
           O         -0.989341570066    -1.377837143095     0.163934075525    15.994914619560
           C         -0.677994570066    -0.218454143095     0.103961075525    12.000000000000
           C         -1.747330570066     0.857931856905     0.103696075525    12.000000000000
           N          0.622701429934     0.178365856905     0.010422075525    14.003074004780
           H         -1.702745570066     1.462283856905    -0.795666924475     1.007825032070
           H         -2.704670570066     0.361507856905     0.149625075525     1.007825032070
           H         -1.648568570066     1.518544856905     0.958341075525     1.007825032070
           C          1.037841429934     0.927846856905    -1.159113924475    12.000000000000
           C          1.697360429934    -0.374380143095     0.805296075525    12.000000000000
           H          1.747715429934     1.692918856905    -0.864560924475     1.007825032070
           H          0.178709429934     1.392513856905    -1.610684924475     1.007825032070
           H          1.514963429934     0.282222856905    -1.893243924475     1.007825032070
           H          2.445655429934     0.391548856905     0.970969075525     1.007825032070
           H          1.348193429934    -0.703400143095     1.771092075525     1.007825032070
           H          2.180635429934    -1.213328143095     0.307879075525     1.007825032070

  Charge       = 0
  Multiplicity = 1
  Basis Set: 6-31G*
  Basis Set:

    Orbital Energies (a.u.)
    -----------------------

    Doubly Occupied:

       1A    -20.532428     2A    -15.563697     3A    -11.344355
       4A    -11.262174     5A    -11.254953     6A    -11.226276
       7A     -1.391217     8A     -1.238797     9A     -1.010801
      10A     -0.971403    11A     -0.918595    12A     -0.738911
      13A     -0.676228    14A     -0.656719    15A     -0.648450
      16A     -0.597965    17A     -0.584617    18A     -0.566542
      19A     -0.558314    20A     -0.553001    21A     -0.533364
      22A     -0.487571    23A     -0.418658    24A     -0.357578

  @DF-RHF Final Energy:  -286.00737474976086

   => Energetics <=

    Nuclear Repulsion Energy =            251.4134347255723867
    One-Electron Energy =                -886.6562460463865136
    Two-Electron Energy =                 349.2354365710527873
    DFT Exchange-Correlation Energy =       0.0000000000000000
    Empirical Dispersion Energy =           0.0000000000000000
    PCM Polarization Energy =               0.0000000000000000
    EFP Energy =                            0.0000000000000000
    Total Energy =                       -286.0073747497613113

  Mulliken Charges: (a.u.)
   Center  Symbol    Alpha    Beta     Spin     Total
       1     O     4.27103  4.27103  0.00000 -0.54205
       2     C     2.65601  2.65601  0.00000  0.68797
       3     C     3.28357  3.28357  0.00000 -0.56713
       4     N     3.82024  3.82024  0.00000 -0.64049
       5     H     0.41065  0.41065  0.00000  0.17871
       6     H     0.39605  0.39605  0.00000  0.20790
       7     H     0.40495  0.40495  0.00000  0.19010
       8     C     3.13957  3.13957  0.00000 -0.27915
       9     C     3.13242  3.13242  0.00000 -0.26484
      10     H     0.41608  0.41608  0.00000  0.16784
      11     H     0.41366  0.41366  0.00000  0.17267
      12     H     0.41443  0.41443  0.00000  0.17113
      13     H     0.41778  0.41778  0.00000  0.16445
      14     H     0.40642  0.40642  0.00000  0.18716
      15     H     0.41714  0.41714  0.00000  0.16572

   Total alpha = 24.00000, Total beta = 24.00000, Total charge =  0.00000
