  ==> Input File <==

--------------------------------------------------------------------------
set {
	reference rhf
	basis 6-31G*
}

set_num_threads( 1 )
memory 2 gb

molecule MOL {
0 1

H	 3.367094	 -0.354787	 -1.348642
O	 2.445296	 -0.555741	 -1.219568
C	 2.077727	 -0.067559	 -0.035091
C	 0.624473	 -0.343591	 0.253101
O	 2.837356	 0.508157	 0.673804
C	 -0.265902	 0.883932	 0.072916
H	 0.324016	 -1.163849	 -0.390541
H	 0.565024	 -0.726111	 1.268924
C	 -1.728698	 0.646073	 0.462102
H	 -0.209144	 1.219470	 -0.958188
H	 0.135059	 1.692851	 0.673903
C	 -2.482460	 -0.343073	 -0.431425
H	 -2.245265	 1.602650	 0.432430
H	 -1.779332	 0.308348	 1.496285
C	 -3.960546	 -0.461025	 -0.060175
H	 -2.395034	 -0.026811	 -1.468912
H	 -2.024850	 -1.327147	 -0.371646
H	 -4.472726	 -1.168004	 -0.705284
H	 -4.465146	 0.496508	 -0.151489
H	 -4.081218	 -0.800940	 0.964585

	symmetry c1
}
set optking {
	frozen_dihedral = ("
		16 12 9 6,
		7 4 6 10,
		12 9 6 10,
		1 2 3 5
	")
}

ee = energy('scf')
oeprop('DIPOLE', 'QUADRUPOLE', 'MULLIKEN_CHARGES')
f=open( 'psi4out.xyz', 'w' )
f.write( "20  " )
f.write( str(ee) + "\n" )
f.write( MOL.save_string_xyz() )
f.close()
--------------------------------------------------------------------------

    Molecular point group: c1

    Geometry (in Angstrom), charge = 0, multiplicity = 1:

       Center              X                  Y                   Z               Mass
    ------------   -----------------  -----------------  -----------------  -----------------
           H          3.382135339253    -0.378616530431    -1.295617700474     1.007825032070
           O          2.460337339253    -0.579570530431    -1.166543700474    15.994914619560
           C          2.092768339253    -0.091388530431     0.017933299526    12.000000000000
           C          0.639514339253    -0.367420530431     0.306125299526    12.000000000000
           O          2.852397339253     0.484327469569     0.726828299526    15.994914619560
           C         -0.250860660747     0.860102469569     0.125940299526    12.000000000000
           H          0.339057339253    -1.187678530431    -0.337516700474     1.007825032070
           H          0.580065339253    -0.749940530431     1.321948299526     1.007825032070
           C         -1.713656660747     0.622243469569     0.515126299526    12.000000000000
           H         -0.194102660747     1.195640469569    -0.905163700474     1.007825032070
           H          0.150100339253     1.669021469569     0.726927299526     1.007825032070
           C         -2.467418660747    -0.366902530431    -0.378400700474    12.000000000000
           H         -2.230223660747     1.578820469569     0.485454299526     1.007825032070
           H         -1.764290660747     0.284518469569     1.549309299526     1.007825032070
           C         -3.945504660747    -0.484854530431    -0.007150700474    12.000000000000
           H         -2.379992660747    -0.050640530431    -1.415887700474     1.007825032070
           H         -2.009808660747    -1.350976530431    -0.318621700474     1.007825032070
           H         -4.457684660747    -1.191833530431    -0.652259700474     1.007825032070
           H         -4.450104660747     0.472678469569    -0.098464700474     1.007825032070
           H         -4.066176660747    -0.824769530431     1.017609299526     1.007825032070

  Charge       = 0
  Multiplicity = 1
  Basis Set: 6-31G*
  Basis Set:

    Orbital Energies (a.u.)
    -----------------------

    Doubly Occupied:

       1A    -20.613037     2A    -20.549147     3A    -11.379951
       4A    -11.237858     5A    -11.232537     6A    -11.224522
       7A    -11.222229     8A    -11.213927     9A     -1.473789
      10A     -1.364153    11A     -1.099785    12A     -1.042409
      13A     -0.961983    14A     -0.868499    15A     -0.818829
      16A     -0.788214    17A     -0.701683    18A     -0.686066
      19A     -0.645135    20A     -0.637000    21A     -0.614921
      22A     -0.594461    23A     -0.575954    24A     -0.554910
      25A     -0.547661    26A     -0.514169    27A     -0.503031
      28A     -0.479189    29A     -0.475438    30A     -0.466925
      31A     -0.461415    32A     -0.437047

  @DF-RHF Final Energy:  -383.94624595826110

   => Energetics <=

    Nuclear Repulsion Energy =            376.0528379892216435
    One-Electron Energy =               -1268.0264056652472391
    Two-Electron Energy =                 508.0273217177647211
    DFT Exchange-Correlation Energy =       0.0000000000000000
    Empirical Dispersion Energy =           0.0000000000000000
    PCM Polarization Energy =               0.0000000000000000
    EFP Energy =                            0.0000000000000000
    Total Energy =                       -383.9462459582608744

  Mulliken Charges: (a.u.)
   Center  Symbol    Alpha    Beta     Spin     Total
       1     H     0.26862  0.26862  0.00000  0.46276
       2     O     4.34709  4.34709  0.00000 -0.69419
       3     C     2.63056  2.63056  0.00000  0.73889
       4     C     3.20434  3.20434  0.00000 -0.40869
       5     O     4.27870  4.27870  0.00000 -0.55741
       6     C     3.16473  3.16473  0.00000 -0.32945
       7     H     0.39878  0.39878  0.00000  0.20245
       8     H     0.40032  0.40032  0.00000  0.19935
       9     C     3.15477  3.15477  0.00000 -0.30955
      10     H     0.41348  0.41348  0.00000  0.17305
      11     H     0.40436  0.40436  0.00000  0.19129
      12     C     3.15472  3.15472  0.00000 -0.30944
      13     H     0.41755  0.41755  0.00000  0.16490
      14     H     0.42057  0.42057  0.00000  0.15885
      15     C     3.23963  3.23963  0.00000 -0.47926
      16     H     0.42124  0.42124  0.00000  0.15752
      17     H     0.42118  0.42118  0.00000  0.15765
      18     H     0.41776  0.41776  0.00000  0.16448
      19     H     0.42073  0.42073  0.00000  0.15854
      20     H     0.42087  0.42087  0.00000  0.15826

   Total alpha = 32.00000, Total beta = 32.00000, Total charge =  0.00000
