  ==> Input File <==

--------------------------------------------------------------------------
set {
	reference rhf
	basis cc-pvtz
}

set_num_threads( 4 )
memory 2 gb

molecule MOL {
0 1

O	 0.395927	 1.296676	 -0.000076
C	 0.503051	 0.114301	 -0.000074
C	 -0.701422	 -0.805636	 -0.000109
C	 1.858118	 -0.556123	 0.000212
C	 -2.031317	 -0.085754	 -0.158951
H	 -0.557465	 -1.533944	 -0.794010
H	 -0.677606	 -1.376759	 0.924386
H	 -2.066036	 0.463998	 -1.089970
H	 -2.847795	 -0.797901	 -0.150901
H	 -2.187260	 0.622578	 0.643656
H	 1.961106	 -1.191101	 -0.872843
H	 2.636688	 0.191085	 -0.000109
H	 1.961070	 -1.190284	 0.873873

	symmetry c1
}
set optking {
	frozen_dihedral = ("
		6 3 2 1
	")
}

ee = optimize('scf')
oeprop('DIPOLE', 'QUADRUPOLE', 'MULLIKEN_CHARGES')
f=open( 'psi4out.xyz', 'w' )
f.write( "13  " )
f.write( str(ee) + "\n" )
f.write( MOL.save_string_xyz() )
f.close()
--------------------------------------------------------------------------

    Molecular point group: c1
  Charge       = 0
  Multiplicity = 1
  Basis Set: CC-PVTZ
  Basis Set:
  @DF-RHF Final Energy:  -231.08352711262472
    Total Energy =                       -231.0835271126248927
    Molecular point group: c1
  Basis Set: CC-PVTZ
  Basis Set:
  Basis Set: CC-PVTZ
  Basis Set:
  @DF-RHF Final Energy:  -231.08319661873529
    Total Energy =                       -231.0831966187352009
  Basis Set: CC-PVTZ
  Basis Set:
  Basis Set: CC-PVTZ
  Basis Set:
  @DF-RHF Final Energy:  -231.08356034041716
    Total Energy =                       -231.0835603404171934
  Basis Set: CC-PVTZ
  Basis Set:
  Basis Set: CC-PVTZ
  Basis Set:
  @DF-RHF Final Energy:  -231.08357040958731
    Total Energy =                       -231.0835704095874235
  Basis Set: CC-PVTZ
  Basis Set:
  Basis Set: CC-PVTZ
  Basis Set:
  @DF-RHF Final Energy:  -231.08357793739182
    Total Energy =                       -231.0835779373917944
  Basis Set: CC-PVTZ
  Basis Set:
  Basis Set: CC-PVTZ
  Basis Set:
  @DF-RHF Final Energy:  -231.08358359921985
    Total Energy =                       -231.0835835992198781
  Basis Set: CC-PVTZ
  Basis Set:
  Charge       = 0
  Multiplicity = 1
  Basis Set: CC-PVTZ
  Basis Set:

    Orbital Energies (a.u.)
    -----------------------

    Doubly Occupied:

       1A    -20.539807     2A    -11.321295     3A    -11.233677
       4A    -11.227545     5A    -11.212673     6A     -1.399985
       7A     -1.062892     8A     -1.001326     9A     -0.879199
      10A     -0.731160    11A     -0.661073    12A     -0.642051
      13A     -0.624479    14A     -0.583799    15A     -0.571716
      16A     -0.522460    17A     -0.513628    18A     -0.509564
      19A     -0.488925    20A     -0.405197

  @DF-RHF Final Energy:  -231.08358456233594

   => Energetics <=

    Nuclear Repulsion Energy =            177.3035743668992836
    One-Electron Energy =                -664.5094227799697819
    Two-Electron Energy =                 256.1222638507342708
    DFT Exchange-Correlation Energy =       0.0000000000000000
    Empirical Dispersion Energy =           0.0000000000000000
    PCM Polarization Energy =               0.0000000000000000
    EFP Energy =                            0.0000000000000000
    Total Energy =                       -231.0835845623362275
    Molecular point group: c1
  Basis Set: CC-PVTZ
  Basis Set:

  -Total Gradient:
     Atom            X                  Y                   Z
    ------   -----------------  -----------------  -----------------
       1       -0.000006582780     0.000004552788     0.000192386240
       2        0.000040602125    -0.000025664462    -0.000243315761
       3       -0.000104063282     0.000129186773    -0.000060375960
       4       -0.000002845469     0.000019170995     0.000005244678
       5        0.000001504021    -0.000002468254    -0.000008669935
       6        0.000083436341    -0.000103139341     0.000125853979
       7       -0.000001888052    -0.000003135321     0.000004590103
       8       -0.000004923886     0.000003541290    -0.000003572431
       9        0.000000114867    -0.000000987671    -0.000001619726
      10        0.000003596661    -0.000002644724    -0.000001526556
      11       -0.000006134244    -0.000007290812    -0.000002589199
      12       -0.000001509103    -0.000003530243    -0.000002204530
      13       -0.000001307199    -0.000007591017    -0.000004200903

  **** Optimization is complete! (in 7 steps) ****
    Final optimized geometry and variables:
    Molecular point group: c1

    Geometry (in Angstrom), charge = 0, multiplicity = 1:

    O            0.395912394624     1.298013305274    -0.007087295885
    C            0.502220633306     0.116008143063     0.026349968800
    C           -0.702743504184    -0.802625536048     0.052397735331
    C            1.856545732997    -0.555166162269     0.046467793565
    C           -2.033378896896    -0.085307854907    -0.111385411803
    H           -0.566884260821    -1.556451315839    -0.718203380451
    H           -0.670441896580    -1.343971486520     0.994931935439
    H           -2.078269420218     0.438286596533    -1.057370687296
    H           -2.850681220488    -0.795585708401    -0.075026976204
    H           -2.178527281183     0.645175820158     0.672638372796
    H            2.002964083755    -1.105075304018    -0.877229990711
    H            2.632744466640     0.187578112659     0.148088712966
    H            1.918792178500    -1.268919745926     0.859980078860

  Mulliken Charges: (a.u.)
   Center  Symbol    Alpha    Beta     Spin     Total
       1     O     4.16975  4.16975  0.00000 -0.33950
       2     C     2.86295  2.86295  0.00000  0.27411
       3     C     3.10065  3.10065  0.00000 -0.20129
       4     C     3.14951  3.14951  0.00000 -0.29902
       5     C     3.14143  3.14143  0.00000 -0.28286
       6     H     0.44720  0.44720  0.00000  0.10560
       7     H     0.44609  0.44609  0.00000  0.10782
       8     H     0.44906  0.44906  0.00000  0.10189
       9     H     0.45072  0.45072  0.00000  0.09856
      10     H     0.44631  0.44631  0.00000  0.10739
      11     H     0.44944  0.44944  0.00000  0.10112
      12     H     0.43559  0.43559  0.00000  0.12882
      13     H     0.45131  0.45131  0.00000  0.09738

   Total alpha = 20.00000, Total beta = 20.00000, Total charge = -0.00000
