  ==> Input File <==

--------------------------------------------------------------------------
set {
	reference rhf
	basis 6-31G*
}

set_num_threads( 1 )
memory 2 gb

molecule MOL {
0 1

O	 1.776178	 0.059333	 -0.793932
C	 2.701189	 0.057885	 -0.047330
C	 3.295834	 1.274490	 0.619796
O	 3.347903	 -1.046386	 0.304773
C	 2.576073	 2.570894	 0.254564
H	 3.283145	 1.089401	 1.688801
H	 4.344963	 1.316872	 0.338320
C	 3.231308	 3.826544	 0.839803
H	 1.541626	 2.510470	 0.579200
H	 2.545914	 2.656888	 -0.826231
C	 3.177592	 3.930559	 2.366697
H	 2.733902	 4.695249	 0.414761
H	 4.267865	 3.881664	 0.510378
C	 3.745147	 5.250179	 2.893465
H	 2.144928	 3.826371	 2.696195
H	 3.726757	 3.107258	 2.817880
C	 3.701409	 5.363025	 4.418419
H	 3.191740	 6.079702	 2.456581
H	 4.774374	 5.360007	 2.555340
C	 4.266479	 6.685298	 4.936097
H	 2.673760	 5.252494	 4.758070
H	 4.257712	 4.537147	 4.856863
H	 4.221821	 6.735284	 6.019662
H	 3.708859	 7.530644	 4.542848
H	 5.304813	 6.809967	 4.641830
C	 4.728119	 -1.109107	 -0.004993
H	 4.882018	 -1.033965	 -1.071845
H	 5.068212	 -2.067527	 0.355250
H	 5.265056	 -0.311663	 0.488280

	symmetry c1
}
set optking {
	frozen_dihedral = ("
		21 17 14 11,
		17 14 11 15,
		15 11 8 5,
		6 3 5 9,
		11 8 5 9,
		2 4 26 27,
		6 3 2 1
	")
}

ee = energy('scf')
oeprop('DIPOLE', 'QUADRUPOLE', 'MULLIKEN_CHARGES')
f=open( 'psi4out.xyz', 'w' )
f.write( "29  " )
f.write( str(ee) + "\n" )
f.write( MOL.save_string_xyz() )
f.close()
--------------------------------------------------------------------------

    Molecular point group: c1

    Geometry (in Angstrom), charge = 0, multiplicity = 1:

       Center              X                  Y                   Z               Mass
    ------------   -----------------  -----------------  -----------------  -----------------
           O         -1.559709232975    -2.349248340622    -2.220677920630    15.994914619560
           C         -0.634698232975    -2.350696340622    -1.474075920630    12.000000000000
           C         -0.040053232975    -1.134091340622    -0.806949920630    12.000000000000
           O          0.012015767025    -3.454967340622    -1.121972920630    15.994914619560
           C         -0.759814232975     0.162312659378    -1.172181920630    12.000000000000
           H         -0.052742232975    -1.319180340622     0.262055079370     1.007825032070
           H          1.009075767025    -1.091709340622    -1.088425920630     1.007825032070
           C         -0.104579232975     1.417962659378    -0.586942920630    12.000000000000
           H         -1.794261232975     0.101888659378    -0.847545920630     1.007825032070
           H         -0.789973232975     0.248306659378    -2.252976920630     1.007825032070
           C         -0.158295232975     1.521977659378     0.939951079370    12.000000000000
           H         -0.601985232975     2.286667659378    -1.011984920630     1.007825032070
           H          0.931977767025     1.473082659378    -0.916367920630     1.007825032070
           C          0.409259767025     2.841597659378     1.466719079370    12.000000000000
           H         -1.190959232975     1.417789659378     1.269449079370     1.007825032070
           H          0.390869767025     0.698676659378     1.391134079370     1.007825032070
           C          0.365521767025     2.954443659378     2.991673079370    12.000000000000
           H         -0.144147232975     3.671120659378     1.029835079370     1.007825032070
           H          1.438486767025     2.951425659378     1.128594079370     1.007825032070
           C          0.930591767025     4.276716659378     3.509351079370    12.000000000000
           H         -0.662127232975     2.843912659378     3.331324079370     1.007825032070
           H          0.921824767025     2.128565659378     3.430117079370     1.007825032070
           H          0.885933767025     4.326702659378     4.592916079370     1.007825032070
           H          0.372971767025     5.122062659378     3.116102079370     1.007825032070
           H          1.968925767025     4.401385659378     3.215084079370     1.007825032070
           C          1.392231767025    -3.517688340622    -1.431738920630    12.000000000000
           H          1.546130767025    -3.442546340622    -2.498590920630     1.007825032070
           H          1.732324767025    -4.476108340622    -1.071495920630     1.007825032070
           H          1.929168767025    -2.720244340622    -0.938465920630     1.007825032070

  Charge       = 0
  Multiplicity = 1
  Basis Set: 6-31G*
  Basis Set:

    Orbital Energies (a.u.)
    -----------------------

    Doubly Occupied:

       1A    -20.592503     2A    -20.552740     3A    -11.373820
       4A    -11.296956     5A    -11.237666     6A    -11.221474
       7A    -11.220129     8A    -11.218560     9A    -11.217855
      10A    -11.216721    11A    -11.210788    12A     -1.464560
      13A     -1.368934    14A     -1.100199    15A     -1.067510
      16A     -1.014835    17A     -0.984331    18A     -0.943890
      19A     -0.869198    20A     -0.805171    21A     -0.793905
      22A     -0.763356    23A     -0.700874    24A     -0.681646
      25A     -0.679419    26A     -0.653504    27A     -0.633283
      28A     -0.616186    29A     -0.601140    30A     -0.587864
      31A     -0.566790    32A     -0.559909    33A     -0.544891
      34A     -0.533385    35A     -0.519482    36A     -0.501623
      37A     -0.495840    38A     -0.480449    39A     -0.472617
      40A     -0.466521    41A     -0.464257    42A     -0.453080
      43A     -0.443032    44A     -0.430642

  @DF-RHF Final Energy:  -501.01870147177215

   => Energetics <=

    Nuclear Repulsion Energy =            615.8720146671419116
    One-Electron Energy =               -1902.5381660717562227
    Two-Electron Energy =                 785.6474499328404590
    DFT Exchange-Correlation Energy =       0.0000000000000000
    Empirical Dispersion Energy =           0.0000000000000000
    PCM Polarization Energy =               0.0000000000000000
    EFP Energy =                            0.0000000000000000
    Total Energy =                       -501.0187014717738521

  Mulliken Charges: (a.u.)
   Center  Symbol    Alpha    Beta     Spin     Total
       1     O     4.26009  4.26009  0.00000 -0.52019
       2     C     2.60684  2.60684  0.00000  0.78632
       3     C     3.22736  3.22736  0.00000 -0.45472
       4     O     4.30553  4.30553  0.00000 -0.61106
       5     C     3.15237  3.15237  0.00000 -0.30475
       6     H     0.39677  0.39677  0.00000  0.20645
       7     H     0.40771  0.40771  0.00000  0.18457
       8     C     3.15627  3.15627  0.00000 -0.31254
       9     H     0.41121  0.41121  0.00000  0.17759
      10     H     0.40922  0.40922  0.00000  0.18155
      11     C     3.15476  3.15476  0.00000 -0.30952
      12     H     0.41777  0.41777  0.00000  0.16446
      13     H     0.42562  0.42562  0.00000  0.14876
      14     C     3.15026  3.15026  0.00000 -0.30053
      15     H     0.42157  0.42157  0.00000  0.15686
      16     H     0.42515  0.42515  0.00000  0.14970
      17     C     3.15148  3.15148  0.00000 -0.30297
      18     H     0.42282  0.42282  0.00000  0.15436
      19     H     0.42454  0.42454  0.00000  0.15091
      20     C     3.23940  3.23940  0.00000 -0.47879
      21     H     0.42227  0.42227  0.00000  0.15546
      22     H     0.42382  0.42382  0.00000  0.15236
      23     H     0.41892  0.41892  0.00000  0.16215
      24     H     0.42126  0.42126  0.00000  0.15747
      25     H     0.42203  0.42203  0.00000  0.15594
      26     C     3.09775  3.09775  0.00000 -0.19551
      27     H     0.41082  0.41082  0.00000  0.17837
      28     H     0.39887  0.39887  0.00000  0.20226
      29     H     0.41750  0.41750  0.00000  0.16500

   Total alpha = 44.00000, Total beta = 44.00000, Total charge =  0.00000
