                              Psi4 1.0.54 Driver

  ==> Input File <==

--------------------------------------------------------------------------
set {
	reference rhf
	basis cc-pvtz
}

set_num_threads( 4 )
memory 2 gb

molecule MOL {
0 1

H	 -3.941973	 0.934228	 -0.390224
C	 -3.240162	 0.342701	 0.161016
C	 -2.105997	 -0.000418	 -0.398703
H	 -3.485368	 0.047206	 1.162193
O	 -1.189946	 -0.765863	 0.237511
H	 -1.846458	 0.297311	 -1.398265
C	 0.026572	 -0.995256	 -0.379403
C	 1.057223	 0.049888	 -0.004615
H	 -0.054361	 -1.010670	 -1.459674
H	 0.397526	 -1.952058	 -0.044198
F	 1.180299	 0.094344	 1.306856
F	 2.241445	 -0.225715	 -0.507775
F	 0.718149	 1.246867	 -0.417806

	symmetry c1
}
set optking {
	frozen_dihedral = ("
		11 8 7 9
	")
}

ee,wfn = optimize('scf', return_wfn=True)
oeprop( wfn, 'DIPOLE', 'QUADRUPOLE', 'MULLIKEN_CHARGES')
f=open( 'psi4out.xyz', 'w' )
f.write( "13  " )
f.write( str(ee) + "\n" )
f.write( MOL.save_string_xyz() )
f.close()
--------------------------------------------------------------------------

    Molecular point group: c1
  Charge       = 0
  Multiplicity = 1
  Basis Set: CC-PVTZ
  Basis Set:
  @DF-RHF Final Energy:  -527.74148191383051
    Total Energy =                       -527.7414819138307394
    Molecular point group: c1
  Basis Set: CC-PVTZ
  Basis Set:
  Basis Set: CC-PVTZ
  Basis Set:
  @DF-RHF Final Energy:  -527.74194214841600
    Total Energy =                       -527.7419421484157738
  Basis Set: CC-PVTZ
  Basis Set:
  Basis Set: CC-PVTZ
  Basis Set:
  @DF-RHF Final Energy:  -527.74203458584270
    Total Energy =                       -527.7420345858423616
  Basis Set: CC-PVTZ
  Basis Set:
  Basis Set: CC-PVTZ
  Basis Set:
  @DF-RHF Final Energy:  -527.74204477853687
    Total Energy =                       -527.7420447785367514
  Basis Set: CC-PVTZ
  Basis Set:
  Charge       = 0
  Multiplicity = 1
  Basis Set: CC-PVTZ
  Basis Set:

    Orbital Energies (a.u.)
    -----------------------

    Doubly Occupied:

       1A    -26.342075     2A    -26.340334     3A    -26.338058
       4A    -20.604009     5A    -11.497854     6A    -11.320212
       7A    -11.298634     8A    -11.213834     9A     -1.750511
      10A     -1.647107    11A     -1.645280    12A     -1.444614
      13A     -1.088168    14A     -1.020630    15A     -0.932283
      16A     -0.843915    17A     -0.839640    18A     -0.827122
      19A     -0.798475    20A     -0.728662    21A     -0.719144
      22A     -0.704006    23A     -0.681779    24A     -0.668274
      25A     -0.661565    26A     -0.650934    27A     -0.640730
      28A     -0.588076    29A     -0.566398    30A     -0.528939
      31A     -0.518523    32A     -0.356616

  @DF-RHF Final Energy:  -527.74204540668472

   => Energetics <=

    Nuclear Repulsion Energy =            413.6073366858435065
    One-Electron Energy =               -1551.0859648155187642
    Two-Electron Energy =                 609.7365827229907609
    DFT Exchange-Correlation Energy =       0.0000000000000000
    Empirical Dispersion Energy =           0.0000000000000000
    PCM Polarization Energy =               0.0000000000000000
    EFP Energy =                            0.0000000000000000
    Total Energy =                       -527.7420454066843831
    Molecular point group: c1
  Basis Set: CC-PVTZ
  Basis Set:

  -Total Gradient:
     Atom            X                  Y                   Z
    ------   -----------------  -----------------  -----------------
       1        0.000010112002     0.000015880578     0.000007427273
       2       -0.000010578203     0.000002673103    -0.000003268805
       3       -0.000008022297    -0.000090161937    -0.000026454969
       4        0.000000886813     0.000000663472     0.000002170752
       5        0.000011701031     0.000016551402     0.000019429306
       6        0.000002468613     0.000025168924     0.000008717934
       7        0.000525537197    -0.000492026833    -0.000006949974
       8        0.000439254763    -0.000437796834    -0.000109447392
       9       -0.000512645347     0.000530258805     0.000024834920
      10       -0.000045142738    -0.000007017946     0.000006358054
      11       -0.000393948372     0.000402538307     0.000026512967
      12       -0.000046365890     0.000023676559     0.000069970946
      13        0.000026742429     0.000009592396    -0.000019301009

  **** Optimization is complete! (in 5 steps) ****
    Final optimized geometry and variables:
    Molecular point group: c1

    Geometry (in Angstrom), charge = 0, multiplicity = 1:

    H           -3.924949552192     0.965864823257    -0.432091480236
    C           -3.234049483050     0.374574106964     0.133026269809
    C           -2.100051285977     0.009924672586    -0.413424219230
    H           -3.489579499973     0.097242064402     1.136825659047
    O           -1.197110594814    -0.755726599407     0.240711420643
    H           -1.830322992035     0.290114812880    -1.415383943302
    C            0.022715269813    -1.004881841534    -0.362434762168
    C            1.057116565527     0.040448541472     0.002171733385
    H           -0.052979699141    -1.034001110575    -1.442821414157
    H            0.382903685469    -1.958995447620    -0.008849751646
    F            1.216502341240     0.145757310877     1.298764223032
    F            2.219171399338    -0.287138164606    -0.525322247976
    F            0.732234250460     1.230925200369    -0.456730396336

  Mulliken Charges: (a.u.)
   Center  Symbol    Alpha    Beta     Spin     Total
       1     H     0.42515  0.42515  0.00000  0.14969
       2     C     3.19745  3.19745  0.00000 -0.39490
       3     C     2.95903  2.95903  0.00000  0.08194
       4     H     0.42473  0.42473  0.00000  0.15054
       5     O     4.14438  4.14438  0.00000 -0.28875
       6     H     0.43444  0.43444  0.00000  0.13112
       7     C     3.01890  3.01890  0.00000 -0.03780
       8     C     2.67578  2.67578  0.00000  0.64844
       9     H     0.45529  0.45529  0.00000  0.08941
      10     H     0.43504  0.43504  0.00000  0.12992
      11     F     4.60649  4.60649  0.00000 -0.21298
      12     F     4.61230  4.61230  0.00000 -0.22461
      13     F     4.61101  4.61101  0.00000 -0.22203

   Total alpha = 32.00000, Total beta = 32.00000, Total charge = -0.00000

*** Psi4 exiting successfully. Buy a developer a beer!
