  ==> Input File <==

--------------------------------------------------------------------------
set {
	reference rhf
	basis 6-31G*
}

set_num_threads( 4 )
memory 2 gb

molecule MOL {
0 1

H	 -0.000158	 1.970498	 0.756846
O	 -0.000074	 1.880206	 -0.189275
C	 -0.000015	 0.544847	 -0.545111
C	 -0.417064	 0.396653	 -2.004595
C	 -0.861391	 -0.251899	 0.429171
H	 1.012584	 0.180071	 -0.457452
F	 0.428424	 1.047915	 -2.774369
F	 -0.436011	 -0.860836	 -2.392825
F	 -1.621236	 0.908328	 -2.203986
F	 -0.378984	 -0.130165	 1.647367
F	 -0.896522	 -1.533411	 0.131055
F	 -2.103951	 0.203642	 0.439485

	symmetry c1
}
set optking {
	frozen_dihedral = ("
		6 3 2 1
	")
}

ee = optimize('scf')
oeprop('DIPOLE', 'QUADRUPOLE', 'MULLIKEN_CHARGES')
f=open( 'psi4out.xyz', 'w' )
f.write( "12  " )
f.write( str(ee) + "\n" )
f.write( MOL.save_string_xyz() )
f.close()
--------------------------------------------------------------------------

    Molecular point group: c1
  Charge       = 0
  Multiplicity = 1
  Basis Set: 6-31G*
  Basis Set:
  @DF-RHF Final Energy:  -786.27281950903853
    Total Energy =                       -786.2728195090385270
    Molecular point group: c1
  Basis Set: 6-31G*
  Basis Set:
  Basis Set: 6-31G*
  Basis Set:
  @DF-RHF Final Energy:  -786.27494968064809
    Total Energy =                       -786.2749496806482057
  Basis Set: 6-31G*
  Basis Set:
  Basis Set: 6-31G*
  Basis Set:
  @DF-RHF Final Energy:  -786.27542829848437
    Total Energy =                       -786.2754282984844849
  Basis Set: 6-31G*
  Basis Set:
  Basis Set: 6-31G*
  Basis Set:
  @DF-RHF Final Energy:  -786.27550412675680
    Total Energy =                       -786.2755041267574825
  Basis Set: 6-31G*
  Basis Set:
  Basis Set: 6-31G*
  Basis Set:
  @DF-RHF Final Energy:  -786.27552092693838
    Total Energy =                       -786.2755209269382703
  Basis Set: 6-31G*
  Basis Set:
  Basis Set: 6-31G*
  Basis Set:
  @DF-RHF Final Energy:  -786.27552456672709
    Total Energy =                       -786.2755245667271993
  Basis Set: 6-31G*
  Basis Set:
  Charge       = 0
  Multiplicity = 1
  Basis Set: 6-31G*
  Basis Set:

    Orbital Energies (a.u.)
    -----------------------

    Doubly Occupied:

       1A    -26.369553     2A    -26.365217     3A    -26.363159
       4A    -26.355537     5A    -26.351771     6A    -26.351151
       7A    -20.614725     8A    -11.530296     9A    -11.521174
      10A    -11.349144    11A     -1.767163    12A     -1.753901
      13A     -1.664179    14A     -1.662283    15A     -1.650954
      16A     -1.649256    17A     -1.433639    18A     -1.103255
      19A     -0.997115    20A     -0.935028    21A     -0.868954
      22A     -0.859640    23A     -0.854774    24A     -0.841148
      25A     -0.830589    26A     -0.787138    27A     -0.751885
      28A     -0.733293    29A     -0.719238    30A     -0.717220
      31A     -0.711750    32A     -0.686745    33A     -0.683391
      34A     -0.667331    35A     -0.667039    36A     -0.663065
      37A     -0.651626    38A     -0.643634    39A     -0.616094
      40A     -0.546585    41A     -0.504622

  @DF-RHF Final Energy:  -786.27552560649622

   => Energetics <=

    Nuclear Repulsion Energy =            670.6959371735678133
    One-Electron Energy =               -2428.3544063781882869
    Two-Electron Energy =                 971.3829435981244842
    DFT Exchange-Correlation Energy =       0.0000000000000000
    Empirical Dispersion Energy =           0.0000000000000000
    PCM Polarization Energy =               0.0000000000000000
    EFP Energy =                            0.0000000000000000
    Total Energy =                       -786.2755256064958758
    Molecular point group: c1
  Basis Set: 6-31G*
  Basis Set:

  -Total Gradient:
     Atom            X                  Y                   Z
    ------   -----------------  -----------------  -----------------
       1       -0.002324585870     0.000028999876     0.000103631715
       2        0.002984353223     0.000056718307    -0.000707577021
       3       -0.000935467385    -0.000620483233     0.002514832769
       4       -0.000071235856     0.000098006871    -0.000017104328
       5       -0.000086472111     0.000025964210    -0.000019428755
       6        0.000281442346     0.000503511067    -0.001949291028
       7        0.000049344611     0.000008440787    -0.000017538464
       8        0.000014169475    -0.000061468520     0.000003234779
       9        0.000013049973    -0.000018820727     0.000032476779
      10        0.000043916401    -0.000011842601     0.000067385340
      11       -0.000014161097     0.000031771088     0.000009969789
      12        0.000045646289    -0.000040797123    -0.000020591582

  **** Optimization is complete! (in 7 steps) ****
    Final optimized geometry and variables:
    Molecular point group: c1

    Geometry (in Angstrom), charge = 0, multiplicity = 1:

    H            0.726751497013     1.768256326447     1.483395474271
    O            0.690974863740     1.655302975892     0.542309164489
    C            0.671301204206     0.313887028805     0.207602281860
    C            0.214718765185     0.235412466525    -1.243648030492
    C           -0.214670959648    -0.477190050757     1.162927240512
    H            1.659916479238    -0.132120016427     0.240329606010
    F            1.089687080150     0.847676648443    -2.013822024990
    F            0.142241626573    -1.025265692971    -1.633076013583
    F           -0.959264339165     0.791188676258    -1.432371885143
    F            0.164852087908    -0.197461936950     2.406009806755
    F           -0.082780039127    -1.773046437368     0.984614920058
    F           -1.487127151642    -0.169044880517     1.060488197098

  Mulliken Charges: (a.u.)
   Center  Symbol    Alpha    Beta     Spin     Total
       1     H     0.26308  0.26308  0.00000  0.47384
       2     O     4.36908  4.36908  0.00000 -0.73816
       3     C     3.03640  3.03640  0.00000 -0.07280
       4     C     2.43546  2.43546  0.00000  1.12908
       5     C     2.45303  2.45303  0.00000  1.09394
       6     H     0.38743  0.38743  0.00000  0.22514
       7     F     4.67656  4.67656  0.00000 -0.35313
       8     F     4.67936  4.67936  0.00000 -0.35872
       9     F     4.67072  4.67072  0.00000 -0.34145
      10     F     4.68754  4.68754  0.00000 -0.37507
      11     F     4.67218  4.67218  0.00000 -0.34436
      12     F     4.66916  4.66916  0.00000 -0.33832

   Total alpha = 41.00000, Total beta = 41.00000, Total charge = -0.00000
