  ==> Input File <==

--------------------------------------------------------------------------
set {
	reference rhf
	basis 6-31G*
}

set_num_threads( 1 )
memory 2 gb

molecule MOL {
0 1

H	 -2.172150	 0.880146	 0.502514
C	 -2.018062	 -0.000025	 -0.114509
O	 -0.774054	 0.001095	 -0.743181
H	 -2.760490	 0.003458	 -0.901350
H	 -2.173624	 -0.884374	 0.496163
C	 0.266530	 -0.817983	 -0.240360
C	 1.433248	 -0.540584	 -1.185786
C	 0.645021	 -0.415519	 1.188611
C	 -0.116629	 -2.299958	 -0.304031
H	 1.689683	 0.512584	 -1.163217
H	 1.159249	 -0.798514	 -2.202531
H	 2.309001	 -1.116991	 -0.905656
H	 0.845024	 0.649646	 1.238135
H	 1.537756	 -0.945449	 1.504520
H	 -0.139143	 -0.648872	 1.900783
H	 -0.451261	 -2.558726	 -1.303087
H	 0.739440	 -2.920373	 -0.059566
H	 -0.907244	 -2.548666	 0.395757

	symmetry c1
}
set optking {
	frozen_dihedral = ("
		2 3 6 7
	")
}

ee = energy('scf')
oeprop('DIPOLE', 'QUADRUPOLE', 'MULLIKEN_CHARGES')
f=open( 'psi4out.xyz', 'w' )
f.write( "18  " )
f.write( str(ee) + "\n" )
f.write( MOL.save_string_xyz() )
f.close()
--------------------------------------------------------------------------

    Molecular point group: c1

    Geometry (in Angstrom), charge = 0, multiplicity = 1:

       Center              X                  Y                   Z               Mass
    ------------   -----------------  -----------------  -----------------  -----------------
           H         -2.056517566246     1.553655322646     0.732525549914     1.007825032070
           C         -1.902429566246     0.673484322646     0.115502549914    12.000000000000
           O         -0.658421566246     0.674604322646    -0.513169450086    15.994914619560
           H         -2.644857566246     0.676967322646    -0.671338450086     1.007825032070
           H         -2.057991566246    -0.210864677354     0.726174549914     1.007825032070
           C          0.382162433754    -0.144473677354    -0.010348450086    12.000000000000
           C          1.548880433754     0.132925322646    -0.955774450086    12.000000000000
           C          0.760653433754     0.257990322646     1.418622549914    12.000000000000
           C         -0.000996566246    -1.626448677354    -0.074019450086    12.000000000000
           H          1.805315433754     1.186093322646    -0.933205450086     1.007825032070
           H          1.274881433754    -0.125004677354    -1.972519450086     1.007825032070
           H          2.424633433754    -0.443481677354    -0.675644450086     1.007825032070
           H          0.960656433754     1.323155322646     1.468146549914     1.007825032070
           H          1.653388433754    -0.271939677354     1.734531549914     1.007825032070
           H         -0.023510566246     0.024637322646     2.130794549914     1.007825032070
           H         -0.335628566246    -1.885216677354    -1.073075450086     1.007825032070
           H          0.855072433754    -2.246863677354     0.170445549914     1.007825032070
           H         -0.791611566246    -1.875156677354     0.625768549914     1.007825032070

  Charge       = 0
  Multiplicity = 1
  Basis Set: 6-31G*
  Basis Set:

    Orbital Energies (a.u.)
    -----------------------

    Doubly Occupied:

       1A    -20.545191     2A    -11.281834     3A    -11.260209
       4A    -11.209014     5A    -11.208647     6A    -11.203276
       7A     -1.369442     8A     -1.073071     9A     -0.946167
      10A     -0.939789    11A     -0.912128    12A     -0.752732
      13A     -0.655660    14A     -0.643974    15A     -0.638642
      16A     -0.590283    17A     -0.572767    18A     -0.552336
      19A     -0.537644    20A     -0.523561    21A     -0.515187
      22A     -0.489243    23A     -0.486235    24A     -0.438513
      25A     -0.401867

  @DF-RHF Final Energy:  -271.17321105579930

   => Energetics <=

    Nuclear Repulsion Energy =            272.3127835841518731
    One-Electron Energy =                -907.4768865621822442
    Two-Electron Energy =                 363.9908919222308441
    DFT Exchange-Correlation Energy =       0.0000000000000000
    Empirical Dispersion Energy =           0.0000000000000000
    PCM Polarization Energy =               0.0000000000000000
    EFP Energy =                            0.0000000000000000
    Total Energy =                       -271.1732110557994702

  Mulliken Charges: (a.u.)
   Center  Symbol    Alpha    Beta     Spin     Total
       1     H     0.42475  0.42475  0.00000  0.15050
       2     C     3.07666  3.07666  0.00000 -0.15332
       3     O     4.32018  4.32018  0.00000 -0.64037
       4     H     0.41713  0.41713  0.00000  0.16574
       5     H     0.43084  0.43084  0.00000  0.13832
       6     C     2.84443  2.84443  0.00000  0.31113
       7     C     3.23306  3.23306  0.00000 -0.46612
       8     C     3.24551  3.24551  0.00000 -0.49102
       9     C     3.24654  3.24654  0.00000 -0.49307
      10     H     0.41398  0.41398  0.00000  0.17203
      11     H     0.41411  0.41411  0.00000  0.17178
      12     H     0.42519  0.42519  0.00000  0.14961
      13     H     0.41321  0.41321  0.00000  0.17357
      14     H     0.42014  0.42014  0.00000  0.15973
      15     H     0.42112  0.42112  0.00000  0.15776
      16     H     0.41318  0.41318  0.00000  0.17364
      17     H     0.41959  0.41959  0.00000  0.16081
      18     H     0.42036  0.42036  0.00000  0.15927

   Total alpha = 25.00000, Total beta = 25.00000, Total charge =  0.00000
