  ==> Input File <==

--------------------------------------------------------------------------
set {
	reference rhf
	basis 6-31G*
}

set_num_threads( 4 )
memory 2 gb

molecule MOL {
0 1

H	 1.169217	 1.339402	 -3.894864
O	 2.098795	 1.175518	 -3.830845
C	 2.628754	 1.876098	 -2.734311
C	 2.239333	 1.271750	 -1.389751
H	 3.703978	 1.839797	 -2.853681
H	 2.334505	 2.924268	 -2.773522
C	 0.737219	 1.316359	 -1.099011
H	 2.586198	 0.242076	 -1.361069
H	 2.774966	 1.808853	 -0.608736
C	 0.384847	 0.751958	 0.280157
H	 0.208338	 0.757189	 -1.865809
H	 0.386335	 2.346428	 -1.163657
C	 -1.097916	 0.851182	 0.656864
H	 0.700581	 -0.288434	 0.332532
H	 0.966893	 1.283007	 1.030431
C	 -2.037799	 -0.007733	 -0.193645
H	 -1.206309	 0.556242	 1.698534
H	 -1.413360	 1.892098	 0.603710
C	 -3.489788	 0.042957	 0.286558
H	 -1.691690	 -1.040266	 -0.179695
H	 -2.000159	 0.312212	 -1.232163
C	 -4.216917	 1.317354	 -0.141063
H	 -4.025645	 -0.823308	 -0.095450
H	 -3.513059	 -0.038752	 1.371301
H	 -4.239342	 1.411634	 -1.223113
H	 -5.243387	 1.322503	 0.212445
H	 -3.726170	 2.201406	 0.256408

	symmetry c1
}
set optking {
	frozen_dihedral = ("
		20 16 19 22
	")
}

ee = optimize('scf')
oeprop('DIPOLE', 'QUADRUPOLE', 'MULLIKEN_CHARGES')
f=open( 'psi4out.xyz', 'w' )
f.write( "27  " )
f.write( str(ee) + "\n" )
f.write( MOL.save_string_xyz() )
f.close()
--------------------------------------------------------------------------

    Molecular point group: c1
  Charge       = 0
  Multiplicity = 1
  Basis Set: 6-31G*
  Basis Set:
  @DF-RHF Final Energy:  -388.27946034528043
    Total Energy =                       -388.2794603452801994
    Molecular point group: c1
  Basis Set: 6-31G*
  Basis Set:
  Basis Set: 6-31G*
  Basis Set:
  @DF-RHF Final Energy:  -388.27966547455583
    Total Energy =                       -388.2796654745557134
  Basis Set: 6-31G*
  Basis Set:
  Basis Set: 6-31G*
  Basis Set:
  @DF-RHF Final Energy:  -388.27968980212637
    Total Energy =                       -388.2796898021265406
  Basis Set: 6-31G*
  Basis Set:
  Basis Set: 6-31G*
  Basis Set:
  @DF-RHF Final Energy:  -388.27968194036146
    Total Energy =                       -388.2796819403610016
  Basis Set: 6-31G*
  Basis Set:
  Basis Set: 6-31G*
  Basis Set:
  @DF-RHF Final Energy:  -388.27969085985177
    Total Energy =                       -388.2796908598522805
  Basis Set: 6-31G*
  Basis Set:
  Charge       = 0
  Multiplicity = 1
  Basis Set: 6-31G*
  Basis Set:

    Orbital Energies (a.u.)
    -----------------------

    Doubly Occupied:

       1A    -20.552303     2A    -11.267048     3A    -11.219790
       4A    -11.217348     5A    -11.216356     6A    -11.215648
       7A    -11.215209     8A    -11.214445     9A    -11.209760
      10A     -1.359057    11A     -1.095063    12A     -1.060932
      13A     -1.010181    14A     -0.947226    15A     -0.891626
      16A     -0.826277    17A     -0.800061    18A     -0.772247
      19A     -0.693717    20A     -0.649818    21A     -0.626088
      22A     -0.615030    23A     -0.613054    24A     -0.589893
      25A     -0.579780    26A     -0.554392    27A     -0.534603
      28A     -0.526149    29A     -0.514038    30A     -0.492483
      31A     -0.486093    32A     -0.476554    33A     -0.469940
      34A     -0.454945    35A     -0.451008    36A     -0.442206
      37A     -0.422897

  @DF-RHF Final Energy:  -388.27969116282844

   => Energetics <=

    Nuclear Repulsion Energy =            463.0701758059234976
    One-Electron Energy =               -1444.1332032554992111
    Two-Electron Energy =                 592.7833362867472715
    DFT Exchange-Correlation Energy =       0.0000000000000000
    Empirical Dispersion Energy =           0.0000000000000000
    PCM Polarization Energy =               0.0000000000000000
    EFP Energy =                            0.0000000000000000
    Total Energy =                       -388.2796911628283851
    Molecular point group: c1
  Basis Set: 6-31G*
  Basis Set:

  -Total Gradient:
     Atom            X                  Y                   Z
    ------   -----------------  -----------------  -----------------
       1        0.000007378249     0.000003146540     0.000000875574
       2        0.000015104531    -0.000003988125    -0.000005628694
       3       -0.000023275859     0.000012867100    -0.000003078394
       4       -0.000000244788    -0.000022689532    -0.000000417024
       5       -0.000003097819    -0.000001594176    -0.000003187712
       6        0.000001009845     0.000002848481    -0.000001360130
       7       -0.000012917968     0.000010581150     0.000000801405
       8       -0.000000199842    -0.000005550110     0.000002352059
       9       -0.000004293359    -0.000004462600    -0.000000759877
      10        0.000025502960     0.000028284755     0.000040408542
      11       -0.000004436971    -0.000001911847     0.000006871139
      12        0.000004391878     0.000003678078    -0.000003969254
      13       -0.000007438249    -0.000070569625    -0.000049057151
      14       -0.000011336743     0.000014071264     0.000005726581
      15        0.000028746347     0.000004393886    -0.000000263043
      16        0.000608315389     0.000050992534     0.001974202724
      17       -0.000000615577     0.000000455046    -0.000009348702
      18       -0.000004171951    -0.000001761793    -0.000003301593
      19        0.000493404223     0.000959950160     0.001379605102
      20       -0.000608051001    -0.000266356088    -0.002024554244
      21        0.000023595293     0.000016689988    -0.000004808365
      22       -0.000481007864    -0.000754364074    -0.001320354097
      23       -0.000041412841     0.000005653827     0.000012576472
      24       -0.000010682512     0.000014957390     0.000001115174
      25        0.000010372880     0.000004938067     0.000005890439
      26       -0.000022327787     0.000020886011    -0.000004379798
      27        0.000017689521    -0.000021146309     0.000004042875

  **** Optimization is complete! (in 6 steps) ****
    Final optimized geometry and variables:
    Molecular point group: c1

    Geometry (in Angstrom), charge = 0, multiplicity = 1:

    H            1.442428690419     0.389167420764    -2.933900273274
    O            2.370159587980     0.212797692085    -2.876572890600
    C            2.915671297739     0.900234930680    -1.779379398379
    C            2.528148070867     0.292085158605    -0.435972572402
    H            3.989522970655     0.851698616476    -1.906360213341
    H            2.633860296893     1.952092248762    -1.810180669658
    C            1.028633840378     0.352491759233    -0.134979380540
    H            2.863076342371    -0.741732278985    -0.415840238877
    H            3.075209378903     0.818056567615     0.344685832229
    C            0.678932307931    -0.216092392526     1.243223631161
    H            0.488403225796    -0.195557703383    -0.901820176797
    H            0.689428286563     1.386961377206    -0.191016046678
    C           -0.801159756967    -0.106675706579     1.628688685289
    H            0.986460441293    -1.259260313789     1.288923775461
    H            1.269390125871     0.306714268441     1.992741875070
    C           -1.745789475189    -0.971959024755     0.788774137981
    H           -0.904843664973    -0.397851952154     2.671892475808
    H           -1.105776867930     0.936340179427     1.574208033635
    C           -3.210734652670    -0.922733952945     1.245256496701
    H           -1.400507526974    -2.003640249393     0.811523790131
    H           -1.699019424041    -0.670933932334    -0.255342863371
    C           -3.955295946496     0.342210984201     0.813918580567
    H           -3.733391366682    -1.782974907274     0.834402609886
    H           -3.259829073075    -1.027774575411     2.326820017598
    H           -3.958303565784     0.439005678064    -0.268177290746
    H           -4.988774553908     0.317237359546     1.145774596489
    H           -3.503021700307     1.239669962444     1.224545415458

  Mulliken Charges: (a.u.)
   Center  Symbol    Alpha    Beta     Spin     Total
       1     H     0.27990  0.27990  0.00000  0.44019
       2     O     4.37093  4.37093  0.00000 -0.74186
       3     C     2.99740  2.99740  0.00000  0.00519
       4     C     3.16092  3.16092  0.00000 -0.32183
       5     H     0.41444  0.41444  0.00000  0.17111
       6     H     0.43202  0.43202  0.00000  0.13595
       7     C     3.16319  3.16319  0.00000 -0.32638
       8     H     0.41495  0.41495  0.00000  0.17009
       9     H     0.42435  0.42435  0.00000  0.15130
      10     C     3.15217  3.15217  0.00000 -0.30434
      11     H     0.42289  0.42289  0.00000  0.15422
      12     H     0.42544  0.42544  0.00000  0.14911
      13     C     3.15433  3.15433  0.00000 -0.30865
      14     H     0.42162  0.42162  0.00000  0.15675
      15     H     0.42147  0.42147  0.00000  0.15706
      16     C     3.15508  3.15508  0.00000 -0.31016
      17     H     0.42126  0.42126  0.00000  0.15748
      18     H     0.42298  0.42298  0.00000  0.15404
      19     C     3.15318  3.15318  0.00000 -0.30636
      20     H     0.42137  0.42137  0.00000  0.15727
      21     H     0.42401  0.42401  0.00000  0.15198
      22     C     3.24024  3.24024  0.00000 -0.48049
      23     H     0.42059  0.42059  0.00000  0.15881
      24     H     0.42267  0.42267  0.00000  0.15466
      25     H     0.42247  0.42247  0.00000  0.15505
      26     H     0.41908  0.41908  0.00000  0.16185
      27     H     0.42103  0.42103  0.00000  0.15794

   Total alpha = 37.00000, Total beta = 37.00000, Total charge = -0.00000
