  ==> Input File <==

--------------------------------------------------------------------------
set {
	reference rhf
	basis 6-31G*
}

set_num_threads( 1 )
memory 2 gb

molecule MOL {
0 1

O	 -2.524165	 0.912375	 -0.619557
C	 -1.921153	 0.064240	 -0.045697
C	 -2.508010	 -1.233368	 0.440265
O	 -0.632575	 0.154573	 0.251549
H	 -2.385795	 -1.311036	 1.514499
H	 -3.555801	 -1.276235	 0.183104
H	 -1.980365	 -2.065595	 -0.011117
C	 0.160891	 -1.019931	 0.106212
C	 1.589627	 -0.672828	 0.480843
H	 0.089836	 -1.367806	 -0.916050
H	 -0.238459	 -1.792301	 0.749618
C	 2.246377	 0.346236	 -0.452210
H	 2.163194	 -1.597435	 0.473358
H	 1.604769	 -0.303424	 1.502885
C	 3.691736	 0.652107	 -0.061850
H	 2.219579	 -0.032311	 -1.472055
H	 1.666466	 1.263317	 -0.447249
H	 4.134505	 1.377213	 -0.737283
H	 4.305508	 -0.243868	 -0.089969
H	 3.748266	 1.059562	 0.943567

	symmetry c1
}
set optking {
	frozen_dihedral = ("
		16 12 9 8,
		2 4 8 10,
		12 9 8 10
	")
}

ee = energy('scf')
oeprop('DIPOLE', 'QUADRUPOLE', 'MULLIKEN_CHARGES')
f=open( 'psi4out.xyz', 'w' )
f.write( "20  " )
f.write( str(ee) + "\n" )
f.write( MOL.save_string_xyz() )
f.close()
--------------------------------------------------------------------------

    Molecular point group: c1

    Geometry (in Angstrom), charge = 0, multiplicity = 1:

       Center              X                  Y                   Z               Mass
    ------------   -----------------  -----------------  -----------------  -----------------
           O         -2.528348585236     1.012612334656    -0.631884805582    15.994914619560
           C         -1.925336585236     0.164477334656    -0.058024805582    12.000000000000
           C         -2.512193585236    -1.133130665344     0.427937194418    12.000000000000
           O         -0.636758585236     0.254810334656     0.239221194418    15.994914619560
           H         -2.389978585236    -1.210798665344     1.502171194418     1.007825032070
           H         -3.559984585236    -1.175997665344     0.170776194418     1.007825032070
           H         -1.984548585236    -1.965357665344    -0.023444805582     1.007825032070
           C          0.156707414764    -0.919693665344     0.093884194418    12.000000000000
           C          1.585443414764    -0.572590665344     0.468515194418    12.000000000000
           H          0.085652414764    -1.267568665344    -0.928377805582     1.007825032070
           H         -0.242642585236    -1.692063665344     0.737290194418     1.007825032070
           C          2.242193414764     0.446473334656    -0.464537805582    12.000000000000
           H          2.159010414764    -1.497197665344     0.461030194418     1.007825032070
           H          1.600585414764    -0.203186665344     1.490557194418     1.007825032070
           C          3.687552414764     0.752344334656    -0.074177805582    12.000000000000
           H          2.215395414764     0.067926334656    -1.484382805582     1.007825032070
           H          1.662282414764     1.363554334656    -0.459576805582     1.007825032070
           H          4.130321414764     1.477450334656    -0.749610805582     1.007825032070
           H          4.301324414764    -0.143630665344    -0.102296805582     1.007825032070
           H          3.744082414764     1.159799334656     0.931239194418     1.007825032070

  Charge       = 0
  Multiplicity = 1
  Basis Set: 6-31G*
  Basis Set:

    Orbital Energies (a.u.)
    -----------------------

    Doubly Occupied:

       1A    -20.596952     2A    -20.547871     3A    -11.376374
       4A    -11.298832     5A    -11.236992     6A    -11.232444
       7A    -11.221472     8A    -11.214070     9A     -1.464840
      10A     -1.368697    11A     -1.087848    12A     -1.020647
      13A     -1.001798    14A     -0.890662    15A     -0.813754
      16A     -0.783434    17A     -0.698383    18A     -0.691258
      19A     -0.660704    20A     -0.639359    21A     -0.613908
      22A     -0.592948    23A     -0.576473    24A     -0.564131
      25A     -0.546182    26A     -0.529996    27A     -0.512311
      28A     -0.488576    29A     -0.477903    30A     -0.473959
      31A     -0.450478    32A     -0.433726

  @DF-RHF Final Energy:  -383.92184969353667

   => Energetics <=

    Nuclear Repulsion Energy =            386.6651081480303560
    One-Electron Energy =               -1288.9600280323425068
    Two-Electron Energy =                 518.3730701907749108
    DFT Exchange-Correlation Energy =       0.0000000000000000
    Empirical Dispersion Energy =           0.0000000000000000
    PCM Polarization Energy =               0.0000000000000000
    EFP Energy =                            0.0000000000000000
    Total Energy =                       -383.9218496935371832

  Mulliken Charges: (a.u.)
   Center  Symbol    Alpha    Beta     Spin     Total
       1     O     4.26330  4.26330  0.00000 -0.52660
       2     C     2.61270  2.61270  0.00000  0.77461
       3     C     3.31220  3.31220  0.00000 -0.62441
       4     O     4.30316  4.30316  0.00000 -0.60632
       5     H     0.39869  0.39869  0.00000  0.20262
       6     H     0.39207  0.39207  0.00000  0.21586
       7     H     0.40254  0.40254  0.00000  0.19492
       8     C     3.01403  3.01403  0.00000 -0.02806
       9     C     3.16102  3.16102  0.00000 -0.32204
      10     H     0.41405  0.41405  0.00000  0.17190
      11     H     0.41297  0.41297  0.00000  0.17405
      12     C     3.15644  3.15644  0.00000 -0.31287
      13     H     0.41932  0.41932  0.00000  0.16136
      14     H     0.41124  0.41124  0.00000  0.17751
      15     C     3.24115  3.24115  0.00000 -0.48230
      16     H     0.42334  0.42334  0.00000  0.15332
      17     H     0.40311  0.40311  0.00000  0.19378
      18     H     0.41581  0.41581  0.00000  0.16838
      19     H     0.42297  0.42297  0.00000  0.15406
      20     H     0.41990  0.41990  0.00000  0.16020

   Total alpha = 32.00000, Total beta = 32.00000, Total charge =  0.00000
