  ==> Input File <==

--------------------------------------------------------------------------
set {
	reference rhf
	basis 6-31G*
}

set_num_threads( 1 )
memory 2 gb

molecule MOL {
0 1

O	 2.926510	 -2.604422	 -1.210166
C	 2.540955	 -1.851961	 -0.374577
C	 1.105146	 -1.676631	 0.057281
O	 3.347903	 -1.046386	 0.304773
C	 0.138086	 -2.593183	 -0.688938
H	 1.073338	 -1.838354	 1.129673
H	 0.847978	 -0.631175	 -0.093002
C	 -1.334278	 -2.353989	 -0.337617
H	 0.400017	 -3.628230	 -0.490980
H	 0.277030	 -2.448007	 -1.754790
C	 -1.718770	 -2.702237	 1.103216
H	 -1.942934	 -2.950347	 -1.013352
H	 -1.590800	 -1.314865	 -0.538683
C	 -3.217358	 -2.550982	 1.372206
H	 -1.416880	 -3.726568	 1.316353
H	 -1.171620	 -2.071247	 1.799958
C	 -3.612409	 -2.891321	 2.810342
H	 -3.772100	 -3.189999	 0.687258
H	 -3.521993	 -1.529671	 1.149000
C	 -5.111074	 -2.741418	 3.069638
H	 -3.307819	 -3.911235	 3.035383
H	 -3.062172	 -2.250633	 3.496301
H	 -5.359703	 -2.989434	 4.096905
H	 -5.688259	 -3.395852	 2.422515
H	 -5.440726	 -1.722588	 2.886365
C	 4.728119	 -1.109107	 -0.004993
H	 4.882018	 -1.033965	 -1.071845
H	 5.068212	 -2.067527	 0.355250
H	 5.265056	 -0.311663	 0.488280

	symmetry c1
}
set optking {
	frozen_dihedral = ("
		21 17 14 11,
		17 14 11 15,
		15 11 8 5,
		6 3 5 9,
		11 8 5 9,
		1 2 4 26,
		6 3 2 1
	")
}

ee = energy('scf')
oeprop('DIPOLE', 'QUADRUPOLE', 'MULLIKEN_CHARGES')
f=open( 'psi4out.xyz', 'w' )
f.write( "29  " )
f.write( str(ee) + "\n" )
f.write( MOL.save_string_xyz() )
f.close()
--------------------------------------------------------------------------

    Molecular point group: c1

    Geometry (in Angstrom), charge = 0, multiplicity = 1:

       Center              X                  Y                   Z               Mass
    ------------   -----------------  -----------------  -----------------  -----------------
           O          2.901379604577    -0.420300703230    -1.764376441975    15.994914619560
           C          2.515824604577     0.332160296770    -0.928787441975    12.000000000000
           C          1.080015604577     0.507490296770    -0.496929441975    12.000000000000
           O          3.322772604577     1.137735296770    -0.249437441975    15.994914619560
           C          0.112955604577    -0.409061703230    -1.243148441975    12.000000000000
           H          1.048207604577     0.345767296770     0.575462558025     1.007825032070
           H          0.822847604577     1.552946296770    -0.647212441975     1.007825032070
           C         -1.359408395423    -0.169867703230    -0.891827441975    12.000000000000
           H          0.374886604577    -1.444108703230    -1.045190441975     1.007825032070
           H          0.251899604577    -0.263885703230    -2.309000441975     1.007825032070
           C         -1.743900395423    -0.518115703230     0.549005558025    12.000000000000
           H         -1.968064395423    -0.766225703230    -1.567562441975     1.007825032070
           H         -1.615930395423     0.869256296770    -1.092893441975     1.007825032070
           C         -3.242488395423    -0.366860703230     0.817995558025    12.000000000000
           H         -1.442010395423    -1.542446703230     0.762142558025     1.007825032070
           H         -1.196750395423     0.112874296770     1.245747558025     1.007825032070
           C         -3.637539395423    -0.707199703230     2.256131558025    12.000000000000
           H         -3.797230395423    -1.005877703230     0.133047558025     1.007825032070
           H         -3.547123395423     0.654450296770     0.594789558025     1.007825032070
           C         -5.136204395423    -0.557296703230     2.515427558025    12.000000000000
           H         -3.332949395423    -1.727113703230     2.481172558025     1.007825032070
           H         -3.087302395423    -0.066511703230     2.942090558025     1.007825032070
           H         -5.384833395423    -0.805312703230     3.542694558025     1.007825032070
           H         -5.713389395423    -1.211730703230     1.868304558025     1.007825032070
           H         -5.465856395423     0.461533296770     2.332154558025     1.007825032070
           C          4.702988604577     1.075014296770    -0.559203441975    12.000000000000
           H          4.856887604577     1.150156296770    -1.626055441975     1.007825032070
           H          5.043081604577     0.116594296770    -0.198960441975     1.007825032070
           H          5.239925604577     1.872458296770    -0.065930441975     1.007825032070

  Charge       = 0
  Multiplicity = 1
  Basis Set: 6-31G*
  Basis Set:

    Orbital Energies (a.u.)
    -----------------------

    Doubly Occupied:

       1A    -20.602434     2A    -20.544972     3A    -11.372401
       4A    -11.280444     5A    -11.234783     6A    -11.219107
       7A    -11.217652     8A    -11.215993     9A    -11.215846
      10A    -11.214449    11A    -11.209060    12A     -1.468894
      13A     -1.362288    14A     -1.098076    15A     -1.066800
      16A     -1.019392    17A     -0.976856    18A     -0.928391
      19A     -0.861577    20A     -0.799205    21A     -0.790433
      22A     -0.762830    23A     -0.700481    24A     -0.683764
      25A     -0.672817    26A     -0.650919    27A     -0.629430
      28A     -0.606187    29A     -0.594663    30A     -0.581811
      31A     -0.567064    32A     -0.549489    33A     -0.531595
      34A     -0.528722    35A     -0.514555    36A     -0.511165
      37A     -0.496037    38A     -0.477791    39A     -0.470218
      40A     -0.462372    41A     -0.458645    42A     -0.455062
      43A     -0.441109    44A     -0.435605

  @DF-RHF Final Energy:  -501.04239332064424

   => Energetics <=

    Nuclear Repulsion Energy =            610.2800197930013155
    One-Electron Energy =               -1891.6820304709469838
    Two-Electron Energy =                 780.3596173573029091
    DFT Exchange-Correlation Energy =       0.0000000000000000
    Empirical Dispersion Energy =           0.0000000000000000
    PCM Polarization Energy =               0.0000000000000000
    EFP Energy =                            0.0000000000000000
    Total Energy =                       -501.0423933206428728

  Mulliken Charges: (a.u.)
   Center  Symbol    Alpha    Beta     Spin     Total
       1     O     4.28589  4.28589  0.00000 -0.57179
       2     C     2.60473  2.60473  0.00000  0.79053
       3     C     3.20962  3.20962  0.00000 -0.41925
       4     O     4.30835  4.30835  0.00000 -0.61670
       5     C     3.15384  3.15384  0.00000 -0.30768
       6     H     0.39878  0.39878  0.00000  0.20243
       7     H     0.40118  0.40118  0.00000  0.19764
       8     C     3.15664  3.15664  0.00000 -0.31327
       9     H     0.41308  0.41308  0.00000  0.17384
      10     H     0.40874  0.40874  0.00000  0.18251
      11     C     3.15508  3.15508  0.00000 -0.31017
      12     H     0.41821  0.41821  0.00000  0.16357
      13     H     0.42385  0.42385  0.00000  0.15230
      14     C     3.15029  3.15029  0.00000 -0.30059
      15     H     0.42261  0.42261  0.00000  0.15478
      16     H     0.42359  0.42359  0.00000  0.15282
      17     C     3.15146  3.15146  0.00000 -0.30292
      18     H     0.42332  0.42332  0.00000  0.15336
      19     H     0.42397  0.42397  0.00000  0.15206
      20     C     3.23935  3.23935  0.00000 -0.47871
      21     H     0.42280  0.42280  0.00000  0.15440
      22     H     0.42342  0.42342  0.00000  0.15315
      23     H     0.41923  0.41923  0.00000  0.16155
      24     H     0.42154  0.42154  0.00000  0.15691
      25     H     0.42183  0.42183  0.00000  0.15635
      26     C     3.09357  3.09357  0.00000 -0.18715
      27     H     0.40618  0.40618  0.00000  0.18764
      28     H     0.41123  0.41123  0.00000  0.17753
      29     H     0.40758  0.40758  0.00000  0.18484

   Total alpha = 44.00000, Total beta = 44.00000, Total charge = -0.00000
