  ==> Input File <==

--------------------------------------------------------------------------
set {
	reference rhf
	basis cc-pvtz
}

set_num_threads( 4 )
memory 2 gb

molecule MOL {
0 1

H	 1.746030	 -0.973717	 0.881347
O	 1.583947	 -0.677544	 -0.001533
C	 0.489979	 0.078084	 0.002623
C	 -0.763662	 -0.754014	 0.000816
O	 0.539051	 1.259395	 -0.000088
C	 -2.038001	 0.074705	 -0.000833
H	 -0.712945	 -1.405886	 -0.864342
H	 -0.715137	 -1.405770	 0.866182
H	 -2.087267	 0.710831	 -0.874232
H	 -2.903419	 -0.576199	 -0.001922
H	 -2.089467	 0.710909	 0.872389

	symmetry c1
}
set optking {
	frozen_dihedral = ("
		1 2 3 5
	")
}

ee = optimize('scf')
oeprop('DIPOLE', 'QUADRUPOLE', 'MULLIKEN_CHARGES')
f=open( 'psi4out.xyz', 'w' )
f.write( "11  " )
f.write( str(ee) + "\n" )
f.write( MOL.save_string_xyz() )
f.close()
--------------------------------------------------------------------------

    Molecular point group: c1
  Charge       = 0
  Multiplicity = 1
  Basis Set: CC-PVTZ
  Basis Set:
  @DF-RHF Final Energy:  -266.93173962316519
    Total Energy =                       -266.9317396231650719
    Molecular point group: c1
  Basis Set: CC-PVTZ
  Basis Set:
  Basis Set: CC-PVTZ
  Basis Set:
  @DF-RHF Final Energy:  -266.93301266144999
    Total Energy =                       -266.9330126614498795
  Basis Set: CC-PVTZ
  Basis Set:
  Basis Set: CC-PVTZ
  Basis Set:
  @DF-RHF Final Energy:  -266.93331868649216
    Total Energy =                       -266.9333186864923277
  Basis Set: CC-PVTZ
  Basis Set:
  Basis Set: CC-PVTZ
  Basis Set:
  @DF-RHF Final Energy:  -266.93339167962989
    Total Energy =                       -266.9333916796298354
  Basis Set: CC-PVTZ
  Basis Set:
  Basis Set: CC-PVTZ
  Basis Set:
  @DF-RHF Final Energy:  -266.93339477649846
    Total Energy =                       -266.9333947764982327
  Basis Set: CC-PVTZ
  Basis Set:
  Charge       = 0
  Multiplicity = 1
  Basis Set: CC-PVTZ
  Basis Set:

    Orbital Energies (a.u.)
    -----------------------

    Doubly Occupied:

       1A    -20.587326     2A    -20.551456     3A    -11.374983
       4A    -11.246325     5A    -11.221067     6A     -1.464384
       7A     -1.372053     8A     -1.066123     9A     -0.910857
      10A     -0.812170    11A     -0.715673    12A     -0.676208
      13A     -0.662351    14A     -0.616517    15A     -0.571435
      16A     -0.531471    17A     -0.522684    18A     -0.502204
      19A     -0.497559    20A     -0.449396

  @DF-RHF Final Energy:  -266.93339585013752

   => Energetics <=

    Nuclear Repulsion Energy =            179.3860565673269889
    One-Electron Energy =                -719.9344214031641513
    Two-Electron Energy =                 273.6149689856994200
    DFT Exchange-Correlation Energy =       0.0000000000000000
    Empirical Dispersion Energy =           0.0000000000000000
    PCM Polarization Energy =               0.0000000000000000
    EFP Energy =                            0.0000000000000000
    Total Energy =                       -266.9333958501377992
    Molecular point group: c1
  Basis Set: CC-PVTZ
  Basis Set:

  -Total Gradient:
     Atom            X                  Y                   Z
    ------   -----------------  -----------------  -----------------
       1        0.000478468405     0.000715998282     0.000110089699
       2       -0.000683323595    -0.000869174630     0.000203913065
       3        0.000205567870     0.000090634430    -0.001074812821
       4        0.000022567174     0.000015353353    -0.000024398461
       5       -0.000019670119     0.000042359171     0.000762864219
       6       -0.000006364574     0.000000533851     0.000005887270
       7        0.000002626051     0.000001971790     0.000009585284
       8        0.000002802046     0.000001579626     0.000008915419
       9        0.000000680322    -0.000002064529     0.000000157059
      10       -0.000004154222     0.000001953966    -0.000002389864
      11        0.000000800641     0.000000854688     0.000000189132

  **** Optimization is complete! (in 6 steps) ****
    Final optimized geometry and variables:
    Molecular point group: c1

    Geometry (in Angstrom), charge = 0, multiplicity = 1:

    H            1.856363394656    -0.963559171746     0.859353151775
    O            1.626763701107    -0.663451534247    -0.004304695480
    C            0.492763576450     0.086260535438     0.002868011118
    C           -0.770428630336    -0.735186329942    -0.008545475747
    O            0.536566279244     1.258399168454    -0.026540756891
    C           -2.044024406722     0.094180338389    -0.018205906282
    H           -0.711430474403    -1.384997340564    -0.875109821946
    H           -0.737632522177    -1.396127627470     0.853164015368
    H           -2.081920261105     0.733891214535    -0.889443736338
    H           -2.911620223150    -0.553944663996    -0.030894737149
    H           -2.103417927668     0.727746000529     0.856846047243

  Mulliken Charges: (a.u.)
   Center  Symbol    Alpha    Beta     Spin     Total
       1     H     0.38886  0.38886  0.00000  0.22228
       2     O     4.17258  4.17258  0.00000 -0.34517
       3     C     2.80294  2.80294  0.00000  0.39413
       4     C     3.10437  3.10437  0.00000 -0.20875
       5     O     4.15985  4.15985  0.00000 -0.31969
       6     C     3.13909  3.13909  0.00000 -0.27818
       7     H     0.43751  0.43751  0.00000  0.12499
       8     H     0.45031  0.45031  0.00000  0.09938
       9     H     0.44558  0.44558  0.00000  0.10884
      10     H     0.45008  0.45008  0.00000  0.09985
      11     H     0.44884  0.44884  0.00000  0.10231

   Total alpha = 20.00000, Total beta = 20.00000, Total charge = -0.00000
