                              Psi4 1.0.54 Driver

  ==> Input File <==

--------------------------------------------------------------------------
set {
	reference rhf
	basis cc-pvtz
}

set_num_threads( 4 )
memory 2 gb

molecule MOL {
0 1

H	 -3.162190	 0.493205	 -0.000107
C	 -2.363908	 -0.234727	 0.000005
O	 -1.158738	 0.454634	 -0.000087
H	 -2.464314	 -0.863616	 -0.882153
H	 -2.464327	 -0.863359	 0.882345
C	 -0.028611	 -0.359694	 0.000037
C	 1.212847	 0.509314	 -0.000053
H	 -0.034155	 -1.007047	 -0.877198
H	 -0.034195	 -1.006836	 0.877430
C	 1.137344	 1.632716	 1.027866
H	 2.074467	 -0.119224	 0.196101
H	 1.346094	 0.921153	 -0.994329
H	 1.028152	 1.241443	 2.033882
H	 2.035916	 2.236973	 1.006378
H	 0.295102	 2.288936	 0.835327

	symmetry c1
}
set optking {
	frozen_dihedral = ("
		11 7 6 8
	")
}

ee,wfn = optimize('scf', return_wfn=True)
oeprop( wfn, 'DIPOLE', 'QUADRUPOLE', 'MULLIKEN_CHARGES')
f=open( 'psi4out.xyz', 'w' )
f.write( "15  " )
f.write( str(ee) + "\n" )
f.write( MOL.save_string_xyz() )
f.close()
--------------------------------------------------------------------------

    Molecular point group: c1
  Charge       = 0
  Multiplicity = 1
  Basis Set: CC-PVTZ
  Basis Set:
  @DF-RHF Final Energy:  -232.22656802605462
    Total Energy =                       -232.2265680260547356
    Molecular point group: c1
  Basis Set: CC-PVTZ
  Basis Set:
  Basis Set: CC-PVTZ
  Basis Set:
  @DF-RHF Final Energy:  -232.22668418063353
    Total Energy =                       -232.2266841806334128
  Basis Set: CC-PVTZ
  Basis Set:
  Basis Set: CC-PVTZ
  Basis Set:
  @DF-RHF Final Energy:  -232.22708467113790
    Total Energy =                       -232.2270846711379022
  Basis Set: CC-PVTZ
  Basis Set:
  Basis Set: CC-PVTZ
  Basis Set:
  @DF-RHF Final Energy:  -232.22709139363732
    Total Energy =                       -232.2270913936374654
  Basis Set: CC-PVTZ
  Basis Set:
  Charge       = 0
  Multiplicity = 1
  Basis Set: CC-PVTZ
  Basis Set:

    Orbital Energies (a.u.)
    -----------------------

    Doubly Occupied:

       1A    -20.547539     2A    -11.265152     3A    -11.262199
       4A    -11.214003     5A    -11.200691     6A     -1.381941
       7A     -1.054277     8A     -0.950352     9A     -0.888015
      10A     -0.796976    11A     -0.674275    12A     -0.661028
      13A     -0.635042    14A     -0.597386    15A     -0.560657
      16A     -0.546049    17A     -0.502914    18A     -0.483878
      19A     -0.477090    20A     -0.460013    21A     -0.416300

  @DF-RHF Final Energy:  -232.22709194704393

   => Energetics <=

    Nuclear Repulsion Energy =            193.4279750739857775
    One-Electron Energy =                -698.1585795758564927
    Two-Electron Energy =                 272.5035125548268979
    DFT Exchange-Correlation Energy =       0.0000000000000000
    Empirical Dispersion Energy =           0.0000000000000000
    PCM Polarization Energy =               0.0000000000000000
    EFP Energy =                            0.0000000000000000
    Total Energy =                       -232.2270919470438457
    Molecular point group: c1
  Basis Set: CC-PVTZ
  Basis Set:

  -Total Gradient:
     Atom            X                  Y                   Z
    ------   -----------------  -----------------  -----------------
       1        0.000006755780     0.000008185320    -0.000000149746
       2       -0.000027313639    -0.000026423644     0.000004531263
       3        0.000044330632     0.000005174321     0.000017418088
       4       -0.000000810282    -0.000001346418    -0.000005549386
       5       -0.000002238133     0.000000796355     0.000003789913
       6        0.002079693997    -0.002978934256     0.003568085346
       7        0.000096868245    -0.000531029980    -0.005024413584
       8       -0.001766993175     0.002583404706    -0.002261740067
       9        0.000006252333    -0.000001515082     0.000007348601
      10       -0.000008211495    -0.000021176155    -0.000024361458
      11       -0.000410957276     0.000937808665     0.003687837397
      12       -0.000005720231    -0.000009572570    -0.000003140178
      13       -0.000001251624     0.000001367320     0.000028762445
      14        0.000004681329     0.000001955166     0.000000972668
      15       -0.000015086462     0.000031306252     0.000000608697

  **** Optimization is complete! (in 5 steps) ****
    Final optimized geometry and variables:
    Molecular point group: c1

    Geometry (in Angstrom), charge = 0, multiplicity = 1:

    H           -2.898986905091     0.153689700018    -0.316626041791
    C           -2.118668364389    -0.587247890347    -0.218669530531
    O           -0.897854954625     0.072287161830    -0.243827600608
    H           -2.206328080810    -1.297319200855    -1.038577656645
    H           -2.262881797670    -1.124760318365     0.716376437755
    C            0.212065074685    -0.765185066063    -0.123227575766
    C            1.487649287932     0.057529608293    -0.190209154175
    H            0.196983796313    -1.486086469649    -0.939369388518
    H            0.162496286590    -1.313016191822     0.817297019712
    C            1.494050684592     1.250308575475     0.762549741617
    H            2.312856303227    -0.597188606471     0.074631970433
    H            1.646527232492     0.396700459978    -1.207609359263
    H            1.338896797035     0.930181023448     1.788058544047
    H            2.446084335481     1.766793750645     0.717781520322
    H            0.712969698877     1.954738455373     0.513906865658

  Mulliken Charges: (a.u.)
   Center  Symbol    Alpha    Beta     Spin     Total
       1     H     0.44742  0.44742  0.00000  0.10517
       2     C     3.03051  3.03051  0.00000 -0.06102
       3     O     4.17452  4.17452  0.00000 -0.34905
       4     H     0.47183  0.47183  0.00000  0.05633
       5     H     0.47245  0.47245  0.00000  0.05510
       6     C     2.97309  2.97309  0.00000  0.05381
       7     C     3.08231  3.08231  0.00000 -0.16463
       8     H     0.46593  0.46593  0.00000  0.06814
       9     H     0.47141  0.47141  0.00000  0.05717
      10     C     3.14617  3.14617  0.00000 -0.29235
      11     H     0.45638  0.45638  0.00000  0.08724
      12     H     0.45253  0.45253  0.00000  0.09493
      13     H     0.45875  0.45875  0.00000  0.08250
      14     H     0.45186  0.45186  0.00000  0.09627
      15     H     0.44481  0.44481  0.00000  0.11037

   Total alpha = 21.00000, Total beta = 21.00000, Total charge = -0.00000

*** Psi4 exiting successfully. Buy a developer a beer!
