  ==> Input File <==

--------------------------------------------------------------------------
set {
	reference rhf
	basis cc-pvtz
}

set_num_threads( 4 )
memory 2 gb

molecule MOL {
0 1

H	 0.986481	 -2.630030	 -0.229208
C	 0.505915	 -2.475469	 0.745892
C	 -0.765870	 -1.674136	 0.710881
O	 0.995412	 -2.924013	 1.724072
C	 -0.554654	 -0.292621	 0.086567
H	 -1.150130	 -1.596376	 1.719412
H	 -1.486107	 -2.232504	 0.116438
C	 -1.846385	 0.513195	 -0.016346
H	 0.169140	 0.259828	 0.678902
H	 -0.121283	 -0.404066	 -0.904110
C	 -3.089953	 -0.365049	 -0.098564
H	 -1.798267	 1.154820	 -0.891143
H	 -1.925398	 1.173265	 0.842889
H	 -3.055079	 -1.012299	 -0.968245
H	 -3.988403	 0.236438	 -0.170014
H	 -3.183055	 -0.995885	 0.779079

	symmetry c1
}
set optking {
	frozen_dihedral = ("
		9 5 8 12
	")
}

ee = optimize('scf')
oeprop('DIPOLE', 'QUADRUPOLE', 'MULLIKEN_CHARGES')
f=open( 'psi4out.xyz', 'w' )
f.write( "16  " )
f.write( str(ee) + "\n" )
f.write( MOL.save_string_xyz() )
f.close()
--------------------------------------------------------------------------

    Molecular point group: c1
  Charge       = 0
  Multiplicity = 1
  Basis Set: CC-PVTZ
  Basis Set:
  @DF-RHF Final Energy:  -270.10980235345198
    Total Energy =                       -270.1098023534520962
    Molecular point group: c1
  Basis Set: CC-PVTZ
  Basis Set:
  Basis Set: CC-PVTZ
  Basis Set:
  @DF-RHF Final Energy:  -270.11056914208655
    Total Energy =                       -270.1105691420867743
  Basis Set: CC-PVTZ
  Basis Set:
  Basis Set: CC-PVTZ
  Basis Set:
  @DF-RHF Final Energy:  -270.11249951385958
    Total Energy =                       -270.1124995138594045
  Basis Set: CC-PVTZ
  Basis Set:
  Basis Set: CC-PVTZ
  Basis Set:
  @DF-RHF Final Energy:  -270.11242202678375
    Total Energy =                       -270.1124220267838609
  Basis Set: CC-PVTZ
  Basis Set:
  @DF-RHF Final Energy:  -270.11263622727773
    Total Energy =                       -270.1126362272775623
  @DF-RHF Final Energy:  -270.11271724414769
    Total Energy =                       -270.1127172441473476
  @DF-RHF Final Energy:  -270.11272017908527
    Total Energy =                       -270.1127201790852155
  Basis Set: CC-PVTZ
  Basis Set:
  @DF-RHF Final Energy:  -270.11271399543841
    Total Energy =                       -270.1127139954385825
  Basis Set: CC-PVTZ
  Basis Set:
  Basis Set: CC-PVTZ
  Basis Set:
  @DF-RHF Final Energy:  -270.11272004361820
    Total Energy =                       -270.1127200436180829
  Basis Set: CC-PVTZ
  Basis Set:
  Basis Set: CC-PVTZ
  Basis Set:
  @DF-RHF Final Energy:  -270.11272111608548
    Total Energy =                       -270.1127211160853676
  Basis Set: CC-PVTZ
  Basis Set:
  Charge       = 0
  Multiplicity = 1
  Basis Set: CC-PVTZ
  Basis Set:

    Orbital Energies (a.u.)
    -----------------------

    Doubly Occupied:

       1A    -20.551494     2A    -11.320684     3A    -11.235344
       4A    -11.232994     5A    -11.228175     6A    -11.217465
       7A     -1.406259     8A     -1.095622     9A     -1.015694
      10A     -0.916105    11A     -0.810162    12A     -0.786760
      13A     -0.679191    14A     -0.652669    15A     -0.640799
      16A     -0.588359    17A     -0.577727    18A     -0.569782
      19A     -0.530258    20A     -0.520748    21A     -0.487350
      22A     -0.474487    23A     -0.471695    24A     -0.411672

  @DF-RHF Final Energy:  -270.11272123250944

   => Energetics <=

    Nuclear Repulsion Energy =            232.8292657591606201
    One-Electron Energy =                -827.0409840299339521
    Two-Electron Energy =                 324.0989970382638603
    DFT Exchange-Correlation Energy =       0.0000000000000000
    Empirical Dispersion Energy =           0.0000000000000000
    PCM Polarization Energy =               0.0000000000000000
    EFP Energy =                            0.0000000000000000
    Total Energy =                       -270.1127212325094433
    Molecular point group: c1
  Basis Set: CC-PVTZ
  Basis Set:

  -Total Gradient:
     Atom            X                  Y                   Z
    ------   -----------------  -----------------  -----------------
       1        0.000004131593    -0.000002933713    -0.000000878306
       2        0.000025635402     0.000077835133    -0.000008654526
       3       -0.000044269204    -0.000105037674     0.000022461359
       4       -0.000020816085    -0.000028565474    -0.000002170924
       5        0.002007284842     0.002575914304    -0.007028539721
       6       -0.000000208107     0.000019975526    -0.000008159867
       7       -0.000013137726     0.000003787700     0.000001961890
       8        0.002850879905     0.004686523784     0.005315188168
       9       -0.002051917802    -0.002820320023     0.005135286998
      10       -0.000022272592    -0.000018350899     0.000011733551
      11       -0.000030829880    -0.000023367273     0.000047817795
      12       -0.002700056624    -0.004342240133    -0.003477892557
      13       -0.000009064059    -0.000024607821     0.000000116714
      14        0.000011100055     0.000000971234     0.000002445033
      15        0.000000446527    -0.000004254200    -0.000001073943
      16       -0.000006906240     0.000004669525    -0.000009641662

  **** Optimization is complete! (in 11 steps) ****
    Final optimized geometry and variables:
    Molecular point group: c1

    Geometry (in Angstrom), charge = 0, multiplicity = 1:

    H            1.834000920470    -1.421991588270    -0.751872504100
    C            1.365924838852    -1.252677316010     0.226991292521
    C            0.048172345674    -0.530162781317     0.187622714082
    O            1.903115135019    -1.627023100816     1.211531075823
    C            0.200145891849     0.850365320016    -0.467538339457
    H           -0.325846750182    -0.450063542132     1.199889248180
    H           -0.640097624795    -1.146971243416    -0.382325631888
    C           -1.088811005084     1.694651337323    -0.521666496745
    H            0.935002845174     1.387023265294     0.123155928271
    H            0.604150896788     0.726202250716    -1.466533036760
    C           -2.392965027198     0.909767078800    -0.667779738641
    H           -1.024218154914     2.346106059998    -1.386290296549
    H           -1.150593821110     2.322640440430     0.359108402803
    H           -2.379421228323     0.276822105879    -1.549132556870
    H           -3.226874793125     1.593853116919    -0.771885623124
    H           -2.593525572228     0.280869969977     0.190702227999

  Mulliken Charges: (a.u.)
   Center  Symbol    Alpha    Beta     Spin     Total
       1     H     0.46610  0.46610  0.00000  0.06781
       2     C     2.91167  2.91167  0.00000  0.17665
       3     C     3.07866  3.07866  0.00000 -0.15731
       4     O     4.16410  4.16410  0.00000 -0.32821
       5     C     3.10963  3.10963  0.00000 -0.21926
       6     H     0.44227  0.44227  0.00000  0.11545
       7     H     0.44761  0.44761  0.00000  0.10477
       8     C     3.08682  3.08682  0.00000 -0.17364
       9     H     0.44282  0.44282  0.00000  0.11435
      10     H     0.44847  0.44847  0.00000  0.10306
      11     C     3.15894  3.15894  0.00000 -0.31788
      12     H     0.44879  0.44879  0.00000  0.10242
      13     H     0.44753  0.44753  0.00000  0.10493
      14     H     0.45353  0.45353  0.00000  0.09294
      15     H     0.44274  0.44274  0.00000  0.11451
      16     H     0.45030  0.45030  0.00000  0.09940

   Total alpha = 24.00000, Total beta = 24.00000, Total charge = -0.00000
