  ==> Input File <==

--------------------------------------------------------------------------
set {
	reference rhf
	basis 6-31G*
}

set_num_threads( 1 )
memory 2 gb

molecule MOL {
0 1

H	 1.011038	 -0.987128	 1.173206
O	 1.294882	 -0.631334	 0.342124
C	 0.709054	 0.624700	 0.160067
C	 -0.793441	 0.596080	 0.058728
H	 1.128293	 1.023919	 -0.756484
H	 1.000223	 1.306864	 0.958126
C	 -1.530462	 -0.493172	 -0.025500
H	 -1.267829	 1.565317	 0.054453
H	 -1.092586	 -1.461565	 -0.186463
H	 -2.602122	 -0.450675	 0.050101

	symmetry c1
}
set optking {
	frozen_dihedral = ("
		5 3 2 1,
		5 3 4 7
	")
}

ee = energy('scf')
oeprop('DIPOLE', 'QUADRUPOLE', 'MULLIKEN_CHARGES')
f=open( 'psi4out.xyz', 'w' )
f.write( "10  " )
f.write( str(ee) + "\n" )
f.write( MOL.save_string_xyz() )
f.close()
--------------------------------------------------------------------------

    Molecular point group: c1

    Geometry (in Angstrom), charge = 0, multiplicity = 1:

       Center              X                  Y                   Z               Mass
    ------------   -----------------  -----------------  -----------------  -----------------
           H          1.019719817334    -0.980885851032     1.016511509085     1.007825032070
           O          1.303563817334    -0.625091851032     0.185429509085    15.994914619560
           C          0.717735817334     0.630942148968     0.003372509085    12.000000000000
           C         -0.784759182666     0.602322148968    -0.097966490915    12.000000000000
           H          1.136974817334     1.030161148968    -0.913178490915     1.007825032070
           H          1.008904817334     1.313106148968     0.801431509085     1.007825032070
           C         -1.521780182666    -0.486929851032    -0.182194490915    12.000000000000
           H         -1.259147182666     1.571559148968    -0.102241490915     1.007825032070
           H         -1.083904182666    -1.455322851032    -0.343157490915     1.007825032070
           H         -2.593440182666    -0.444432851032    -0.106593490915     1.007825032070

  Charge       = 0
  Multiplicity = 1
  Basis Set: 6-31G*
  Basis Set:

    Orbital Energies (a.u.)
    -----------------------

    Doubly Occupied:

       1A    -20.560207     2A    -11.278233     3A    -11.231390
       4A    -11.219182     5A     -1.368829     6A     -1.057953
       7A     -0.928312     8A     -0.768890     9A     -0.687165
      10A     -0.660871    11A     -0.616139    12A     -0.570909
      13A     -0.537015    14A     -0.494621    15A     -0.446995
      16A     -0.362592

  @DF-RHF Final Energy:  -191.91528288920742

   => Energetics <=

    Nuclear Repulsion Energy =            119.3691470710023452
    One-Electron Energy =                -496.9902759966489612
    Two-Electron Energy =                 185.7058460364392545
    DFT Exchange-Correlation Energy =       0.0000000000000000
    Empirical Dispersion Energy =           0.0000000000000000
    PCM Polarization Energy =               0.0000000000000000
    EFP Energy =                            0.0000000000000000
    Total Energy =                       -191.9152828892073899

  Mulliken Charges: (a.u.)
   Center  Symbol    Alpha    Beta     Spin     Total
       1     H     0.28098  0.28098  0.00000  0.43803
       2     O     4.36681  4.36681  0.00000 -0.73362
       3     C     3.00068  3.00068  0.00000 -0.00136
       4     C     3.09342  3.09342  0.00000 -0.18684
       5     H     0.40900  0.40900  0.00000  0.18199
       6     H     0.42473  0.42473  0.00000  0.15053
       7     C     3.19906  3.19906  0.00000 -0.39812
       8     H     0.41010  0.41010  0.00000  0.17980
       9     H     0.40396  0.40396  0.00000  0.19209
      10     H     0.41125  0.41125  0.00000  0.17751

   Total alpha = 16.00000, Total beta = 16.00000, Total charge = -0.00000
