  ==> Input File <==

--------------------------------------------------------------------------
set {
	reference rhf
	basis 6-31G*
}

set_num_threads( 4 )
memory 2 gb

molecule MOL {
0 1

H	 -2.587651	 2.451651	 0.242503
O	 -1.897167	 1.853594	 -0.005417
C	 -2.306886	 0.532354	 0.237577
C	 -1.177863	 -0.397191	 -0.171080
H	 -2.542448	 0.392031	 1.291677
H	 -3.206027	 0.299288	 -0.331251
C	 0.198102	 0.111031	 0.262842
H	 -1.208843	 -0.518759	 -1.250427
H	 -1.368741	 -1.376554	 0.258909
C	 1.331804	 -0.827780	 -0.158768
H	 0.361943	 1.100838	 -0.156218
H	 0.217265	 0.229072	 1.345532
C	 2.723619	 -0.410569	 0.329459
H	 1.342964	 -0.912588	 -1.244120
H	 1.116806	 -1.824343	 0.220779
C	 3.243875	 0.895854	 -0.272975
H	 3.424222	 -1.207124	 0.091250
H	 2.714788	 -0.329854	 1.414619
H	 3.251977	 0.848779	 -1.358681
H	 2.637085	 1.747371	 0.016682
H	 4.259473	 1.094070	 0.055697

	symmetry c1
}
set optking {
	frozen_dihedral = ("
		2 3 4 8
	")
}

ee = optimize('scf')
oeprop('DIPOLE', 'QUADRUPOLE', 'MULLIKEN_CHARGES')
f=open( 'psi4out.xyz', 'w' )
f.write( "21  " )
f.write( str(ee) + "\n" )
f.write( MOL.save_string_xyz() )
f.close()
--------------------------------------------------------------------------

    Molecular point group: c1
  Charge       = 0
  Multiplicity = 1
  Basis Set: 6-31G*
  Basis Set:
  @DF-RHF Final Energy:  -310.21047640266266
    Total Energy =                       -310.2104764026624366
    Molecular point group: c1
  Basis Set: 6-31G*
  Basis Set:
  Basis Set: 6-31G*
  Basis Set:
  @DF-RHF Final Energy:  -310.21093842368100
    Total Energy =                       -310.2109384236810570
  Basis Set: 6-31G*
  Basis Set:
  Basis Set: 6-31G*
  Basis Set:
  @DF-RHF Final Energy:  -310.21119883837440
    Total Energy =                       -310.2111988383746848
  Basis Set: 6-31G*
  Basis Set:
  Basis Set: 6-31G*
  Basis Set:
  @DF-RHF Final Energy:  -310.21120589432616
    Total Energy =                       -310.2112058943262127
  Basis Set: 6-31G*
  Basis Set:
  Basis Set: 6-31G*
  Basis Set:
  @DF-RHF Final Energy:  -310.21119499714899
    Total Energy =                       -310.2111949971490503
  Basis Set: 6-31G*
  Basis Set:
  Basis Set: 6-31G*
  Basis Set:
  @DF-RHF Final Energy:  -310.21120831710834
    Total Energy =                       -310.2112083171082872
  Basis Set: 6-31G*
  Basis Set:
  Charge       = 0
  Multiplicity = 1
  Basis Set: 6-31G*
  Basis Set:

    Orbital Energies (a.u.)
    -----------------------

    Doubly Occupied:

       1A    -20.553037     2A    -11.268420     3A    -11.212409
       4A    -11.210088     5A    -11.207863     6A    -11.204419
       7A    -11.202385     8A     -1.359862     9A     -1.079544
      10A     -1.028507    11A     -0.952314    12A     -0.874783
      13A     -0.800272    14A     -0.772239    15A     -0.701667
      16A     -0.647308    17A     -0.621779    18A     -0.600773
      19A     -0.585352    20A     -0.561426    21A     -0.537707
      22A     -0.518129    23A     -0.499048    24A     -0.494127
      25A     -0.476798    26A     -0.456019    27A     -0.448126
      28A     -0.438621    29A     -0.428727

  @DF-RHF Final Energy:  -310.21120839436907

   => Energetics <=

    Nuclear Repulsion Energy =            317.9563190127246912
    One-Electron Energy =               -1050.8515562287425382
    Two-Electron Energy =                 422.6840288216485533
    DFT Exchange-Correlation Energy =       0.0000000000000000
    Empirical Dispersion Energy =           0.0000000000000000
    PCM Polarization Energy =               0.0000000000000000
    EFP Energy =                            0.0000000000000000
    Total Energy =                       -310.2112083943693506
    Molecular point group: c1
  Basis Set: 6-31G*
  Basis Set:

  -Total Gradient:
     Atom            X                  Y                   Z
    ------   -----------------  -----------------  -----------------
       1        0.000003907648    -0.000048228858     0.000001405753
       2        0.001624961022     0.000258704449     0.003527538771
       3       -0.002789468122    -0.001241892053    -0.004494673124
       4        0.004026022651     0.005116774783     0.000406595757
       5        0.000010947049    -0.000026507279    -0.000003074713
       6        0.000001694838    -0.000049799496     0.000005112590
       7        0.000014972241     0.000018120613     0.000008252378
       8       -0.002875777001    -0.004052276347     0.000550324635
       9       -0.000015040836     0.000026313732     0.000002970192
      10        0.000003083972     0.000006909235    -0.000012940478
      11       -0.000002899857    -0.000024154090    -0.000007565908
      12        0.000005896666     0.000014045604     0.000010065739
      13       -0.000015926126     0.000000974518     0.000022283625
      14        0.000005139536     0.000004974558    -0.000007233490
      15       -0.000002849208    -0.000002744405    -0.000005057183
      16        0.000002750181     0.000003486377    -0.000005190337
      17       -0.000014204297    -0.000004783250     0.000000333503
      18        0.000006717232     0.000002661102     0.000005470023
      19        0.000003751953     0.000002513211    -0.000002821061
      20        0.000007323479    -0.000005001731    -0.000003718751
      21       -0.000001003018    -0.000000090680     0.000001922077

  **** Optimization is complete! (in 7 steps) ****
    Final optimized geometry and variables:
    Molecular point group: c1

    Geometry (in Angstrom), charge = 0, multiplicity = 1:

    H           -2.978683037067     2.117004785099     0.255558268404
    O           -2.251542196975     1.573384731266    -0.011822681377
    C           -2.568547505169     0.222704821919     0.211786398550
    C           -1.408315480900    -0.656561284827    -0.237985032758
    H           -2.753356386500     0.060400815815     1.273074233349
    H           -3.472953433507    -0.058268571489    -0.323878935458
    C           -0.033523319310    -0.165843257733     0.214328645552
    H           -1.442934849309    -0.779857055233    -1.317754026715
    H           -1.588536695089    -1.651409669249     0.167741105728
    C            1.086686491564    -1.131018527518    -0.182532016082
    H            0.144931437609     0.816094051913    -0.204544616297
    H           -0.036494311304    -0.043386602616     1.296677805972
    C            2.480536613642    -0.725840635230     0.310785849930
    H            1.107713462217    -1.232947023432    -1.266730752315
    H            0.856443562954    -2.119850693261     0.209903007237
    C            3.025806316423     0.559859576712    -0.313632836618
    H            3.171598330270    -1.537725976303     0.096686454379
    H            2.461916592635    -0.621701999775     1.393875559925
    H            3.047979683596     0.487499174222    -1.397778142933
    H            2.425342336794     1.424526589781    -0.052420714275
    H            4.039552740296     0.752538421248     0.024469498161

  Mulliken Charges: (a.u.)
   Center  Symbol    Alpha    Beta     Spin     Total
       1     H     0.28054  0.28054  0.00000  0.43892
       2     O     4.36973  4.36973  0.00000 -0.73946
       3     C     2.99470  2.99470  0.00000  0.01061
       4     C     3.16424  3.16424  0.00000 -0.32848
       5     H     0.43261  0.43261  0.00000  0.13479
       6     H     0.42927  0.42927  0.00000  0.14145
       7     C     3.15257  3.15257  0.00000 -0.30514
       8     H     0.41814  0.41814  0.00000  0.16371
       9     H     0.42453  0.42453  0.00000  0.15095
      10     C     3.15335  3.15335  0.00000 -0.30670
      11     H     0.40399  0.40399  0.00000  0.19202
      12     H     0.42619  0.42619  0.00000  0.14763
      13     C     3.15165  3.15165  0.00000 -0.30331
      14     H     0.42469  0.42469  0.00000  0.15062
      15     H     0.42489  0.42489  0.00000  0.15021
      16     C     3.24129  3.24129  0.00000 -0.48258
      17     H     0.42243  0.42243  0.00000  0.15513
      18     H     0.42407  0.42407  0.00000  0.15186
      19     H     0.42264  0.42264  0.00000  0.15472
      20     H     0.41775  0.41775  0.00000  0.16450
      21     H     0.42073  0.42073  0.00000  0.15855

   Total alpha = 29.00000, Total beta = 29.00000, Total charge =  0.00000
