                              Psi4 1.0.54 Driver

  ==> Input File <==

--------------------------------------------------------------------------
set {
	reference rhf
	basis cc-pvtz
}

set_num_threads( 4 )
memory 2 gb

molecule MOL {
0 1

O	 0.012111	 -0.249308	 -0.171894
C	 1.121787	 0.124983	 0.000110
C	 1.535786	 1.553314	 0.244934
O	 2.167739	 -0.685178	 -0.000678
C	 0.373352	 2.535418	 0.256851
H	 2.077150	 1.573628	 1.185143
H	 2.261410	 1.812402	 -0.519138
C	 0.827404	 3.970440	 0.507563
H	 -0.339385	 2.237519	 1.017642
H	 -0.154567	 2.477055	 -0.688368
C	 -0.330050	 4.962875	 0.523792
H	 1.358568	 4.021926	 1.454376
H	 1.541464	 4.263201	 -0.257712
H	 -1.044524	 4.716918	 1.302006
H	 0.021416	 5.972228	 0.703667
H	 -0.860225	 4.960057	 -0.422510
C	 3.449556	 -0.089977	 -0.000570
H	 3.585694	 0.522473	 -0.879546
H	 4.155805	 -0.904274	 -0.001389
H	 3.586173	 0.521118	 0.879272

	symmetry c1
}
set optking {
	frozen_dihedral = ("
		1 2 4 17
	")
}

ee,wfn = optimize('scf', return_wfn=True)
oeprop( wfn, 'DIPOLE', 'QUADRUPOLE', 'MULLIKEN_CHARGES')
f=open( 'psi4out.xyz', 'w' )
f.write( "20  " )
f.write( str(ee) + "\n" )
f.write( MOL.save_string_xyz() )
f.close()
--------------------------------------------------------------------------

    Molecular point group: c1
  Charge       = 0
  Multiplicity = 1
  Basis Set: CC-PVTZ
  Basis Set:
  @DF-RHF Final Energy:  -384.05769728315329
    Total Energy =                       -384.0576972831529474
    Molecular point group: c1
  Basis Set: CC-PVTZ
  Basis Set:
  Basis Set: CC-PVTZ
  Basis Set:
  @DF-RHF Final Energy:  -384.02145889664394
    Total Energy =                       -384.0214588966435372
  Basis Set: CC-PVTZ
  Basis Set:
  Basis Set: CC-PVTZ
  Basis Set:
  @DF-RHF Final Energy:  -384.06351869206128
    Total Energy =                       -384.0635186920612796
  Basis Set: CC-PVTZ
  Basis Set:
  Basis Set: CC-PVTZ
  Basis Set:
  @DF-RHF Final Energy:  -384.06789771081276
    Total Energy =                       -384.0678977108127583
  Basis Set: CC-PVTZ
  Basis Set:
  @DF-RHF Final Energy:  -384.03656597929381
    Total Energy =                       -384.0365659792935844
  @DF-RHF Final Energy:  -384.06776107894080
    Total Energy =                       -384.0677610789407481
  @DF-RHF Final Energy:  -384.06869095082328
    Total Energy =                       -384.0686909508233384
  @DF-RHF Final Energy:  -384.05873927847580
    Total Energy =                       -384.0587392784753433
  Basis Set: CC-PVTZ
  Basis Set:
  @DF-RHF Final Energy:  -384.06869683096124
    Total Energy =                       -384.0686968309611302
  Basis Set: CC-PVTZ
  Basis Set:
  Basis Set: CC-PVTZ
  Basis Set:
  @DF-RHF Final Energy:  -384.06892119525816
    Total Energy =                       -384.0689211952582127
  Basis Set: CC-PVTZ
  Basis Set:
  Basis Set: CC-PVTZ
  Basis Set:
  @DF-RHF Final Energy:  -384.06892224841226
    Total Energy =                       -384.0689222484122638
  Basis Set: CC-PVTZ
  Basis Set:
  Charge       = 0
  Multiplicity = 1
  Basis Set: CC-PVTZ
  Basis Set:

    Orbital Energies (a.u.)
    -----------------------

    Doubly Occupied:

       1A    -20.594706     2A    -20.527767     3A    -11.366176
       4A    -11.293286     5A    -11.243598     6A    -11.222477
       7A    -11.221289     8A    -11.211547     9A     -1.465823
      10A     -1.367292    11A     -1.093009    12A     -1.017968
      13A     -0.985673    14A     -0.902689    15A     -0.811296
      16A     -0.768123    17A     -0.702255    18A     -0.692154
      19A     -0.675648    20A     -0.650712    21A     -0.602704
      22A     -0.595484    23A     -0.589893    24A     -0.554034
      25A     -0.542247    26A     -0.525007    27A     -0.511035
      28A     -0.483007    29A     -0.476310    30A     -0.474678
      31A     -0.450647    32A     -0.433456

  @DF-RHF Final Energy:  -384.06892304510120

   => Energetics <=

    Nuclear Repulsion Energy =            383.9373086446119032
    One-Electron Energy =               -1283.9084764716196787
    Two-Electron Energy =                 515.9022447819066883
    DFT Exchange-Correlation Energy =       0.0000000000000000
    Empirical Dispersion Energy =           0.0000000000000000
    PCM Polarization Energy =               0.0000000000000000
    EFP Energy =                            0.0000000000000000
    Total Energy =                       -384.0689230451010872
    Molecular point group: c1
  Basis Set: CC-PVTZ
  Basis Set:

  -Total Gradient:
     Atom            X                  Y                   Z
    ------   -----------------  -----------------  -----------------
       1        0.000308298123     0.000665605978    -0.000795944474
       2       -0.000318992453    -0.000700002054     0.000695529377
       3        0.000038462802     0.000017497802    -0.000018358854
       4       -0.000237350738    -0.000520560113     0.000868283619
       5       -0.000021442309     0.000001537204     0.000013079160
       6       -0.000000165479    -0.000003952437    -0.000014356691
       7       -0.000002561517     0.000001850044     0.000016222000
       8        0.000010936898    -0.000002666530    -0.000010181339
       9        0.000004814667     0.000011474869    -0.000002720537
      10        0.000004112234    -0.000001261496     0.000014633305
      11       -0.000013558953     0.000000932701     0.000000669388
      12       -0.000003461439     0.000001283959    -0.000013206165
      13       -0.000002361322    -0.000007840174     0.000001905529
      14        0.000004299363     0.000006379804    -0.000003701038
      15        0.000000218293    -0.000009082090    -0.000007854476
      16        0.000003267358    -0.000006358314     0.000008427309
      17        0.000209803479     0.000591952452    -0.000743641606
      18        0.000012486643    -0.000001523176    -0.000005253676
      19        0.000015970561    -0.000042787300    -0.000023907849
      20       -0.000012776210    -0.000002481135     0.000020377012

  **** Optimization is complete! (in 12 steps) ****
    Final optimized geometry and variables:
    Molecular point group: c1

    Geometry (in Angstrom), charge = 0, multiplicity = 1:

    O           -1.047005607166    -1.086719570307    -1.342407730782
    C            0.024267223518    -0.997951476618    -0.858326011464
    C            0.378365813090     0.028019510600     0.196255389199
    O            0.974889634919    -1.849055248154    -1.240749456283
    C           -0.792087285365     0.928535303098     0.567663582166
    H            0.742863789059    -0.500624093136     1.071635717000
    H            1.212143682012     0.622147774210    -0.163413554600
    C           -0.419057269653     1.953941190790     1.634372144567
    H           -1.615785014698     0.316673925333     0.915406507539
    H           -1.148662929526     1.434017193743    -0.321903872249
    C           -1.584814444190     2.860452964174     2.014261793041
    H           -0.059699182350     1.440131061288     2.522332425437
    H            0.408500816755     2.563004089781     1.279543293423
    H           -2.415949415069     2.284012247416     2.405669187157
    H           -1.292576146330     3.577747830930     2.772280200013
    H           -1.944715170022     3.414555696459     1.154180378116
    C            2.326446881485    -1.706415318709    -0.884811087482
    H            2.741557344835    -0.781887427665    -1.264312156179
    H            2.841566462513    -2.533884548022    -1.345025745394
    H            2.471606337029    -1.756285524444     0.185909993901

  Mulliken Charges: (a.u.)
   Center  Symbol    Alpha    Beta     Spin     Total
       1     O     4.18106  4.18106  0.00000 -0.36213
       2     C     2.80387  2.80387  0.00000  0.39226
       3     C     3.13656  3.13656  0.00000 -0.27312
       4     O     4.12854  4.12854  0.00000 -0.25707
       5     C     3.08072  3.08072  0.00000 -0.16145
       6     H     0.43965  0.43965  0.00000  0.12069
       7     H     0.44145  0.44145  0.00000  0.11709
       8     C     3.08532  3.08532  0.00000 -0.17064
       9     H     0.44351  0.44351  0.00000  0.11298
      10     H     0.44402  0.44402  0.00000  0.11197
      11     C     3.14990  3.14990  0.00000 -0.29980
      12     H     0.45591  0.45591  0.00000  0.08818
      13     H     0.45612  0.45612  0.00000  0.08776
      14     H     0.45299  0.45299  0.00000  0.09401
      15     H     0.44822  0.44822  0.00000  0.10357
      16     H     0.45312  0.45312  0.00000  0.09375
      17     C     3.04601  3.04601  0.00000 -0.09201
      18     H     0.45969  0.45969  0.00000  0.08062
      19     H     0.43229  0.43229  0.00000  0.13541
      20     H     0.46104  0.46104  0.00000  0.07792

   Total alpha = 32.00000, Total beta = 32.00000, Total charge =  0.00000

*** Psi4 exiting successfully. Buy a developer a beer!
