  ==> Input File <==

--------------------------------------------------------------------------
set {
	reference rhf
	basis cc-pvtz
}

set_num_threads( 4 )
memory 2 gb

molecule MOL {
0 1

H	 -1.287192	 -1.322478	 0.335515
O	 -1.432053	 -0.565244	 -0.200812
C	 -0.727158	 0.534527	 0.310686
C	 0.680222	 0.664433	 -0.252229
H	 -1.306802	 1.408001	 0.044211
H	 -0.690821	 0.490158	 1.397609
C	 1.605391	 -0.489360	 0.123098
H	 0.615089	 0.745647	 -1.332226
H	 1.101414	 1.597893	 0.110950
H	 1.247627	 -1.432485	 -0.275204
H	 2.601435	 -0.332816	 -0.273062
H	 1.691776	 -0.589902	 1.200774

	symmetry c1
}
set optking {
	frozen_dihedral = ("
		1 2 3 4
	")
}

ee = optimize('scf')
oeprop('DIPOLE', 'QUADRUPOLE', 'MULLIKEN_CHARGES')
f=open( 'psi4out.xyz', 'w' )
f.write( "12  " )
f.write( str(ee) + "\n" )
f.write( MOL.save_string_xyz() )
f.close()
--------------------------------------------------------------------------

    Molecular point group: c1
  Charge       = 0
  Multiplicity = 1
  Basis Set: CC-PVTZ
  Basis Set:
  @DF-RHF Final Energy:  -193.19027564299248
    Total Energy =                       -193.1902756429925319
    Molecular point group: c1
  Basis Set: CC-PVTZ
  Basis Set:
  Basis Set: CC-PVTZ
  Basis Set:
  @DF-RHF Final Energy:  -193.19031692239068
    Total Energy =                       -193.1903169223907355
  Basis Set: CC-PVTZ
  Basis Set:
  Basis Set: CC-PVTZ
  Basis Set:
  @DF-RHF Final Energy:  -193.19032775079515
    Total Energy =                       -193.1903277507952907
  Basis Set: CC-PVTZ
  Basis Set:
  Charge       = 0
  Multiplicity = 1
  Basis Set: CC-PVTZ
  Basis Set:

    Orbital Energies (a.u.)
    -----------------------

    Doubly Occupied:

       1A    -20.546235     2A    -11.266348     3A    -11.214851
       4A    -11.211194     5A     -1.363989     6A     -1.050495
       7A     -0.926379     8A     -0.806829     9A     -0.703647
      10A     -0.636833    11A     -0.598414    12A     -0.589645
      13A     -0.533181    14A     -0.513385    15A     -0.491141
      16A     -0.469194    17A     -0.432163

  @DF-RHF Final Energy:  -193.19032847341273

   => Energetics <=

    Nuclear Repulsion Energy =            133.1756089139996391
    One-Electron Energy =                -526.0240263812977446
    Two-Electron Energy =                 199.6580889938853716
    DFT Exchange-Correlation Energy =       0.0000000000000000
    Empirical Dispersion Energy =           0.0000000000000000
    PCM Polarization Energy =               0.0000000000000000
    EFP Energy =                            0.0000000000000000
    Total Energy =                       -193.1903284734127055
    Molecular point group: c1
  Basis Set: CC-PVTZ
  Basis Set:

  -Total Gradient:
     Atom            X                  Y                   Z
    ------   -----------------  -----------------  -----------------
       1       -0.000731796769     0.000259449625     0.000487731069
       2        0.000843602749    -0.000133753695    -0.000746922296
       3        0.000084499554    -0.000459385344     0.000667124569
       4       -0.000150819672     0.000325938766    -0.000364125706
       5       -0.000042238873    -0.000003810931     0.000002485940
       6       -0.000012520846     0.000002933785    -0.000031430599
       7        0.000021950925    -0.000022762765    -0.000046777122
       8       -0.000028148714    -0.000000800237     0.000027773903
       9        0.000028072228     0.000035455641    -0.000007863011
      10       -0.000019764886     0.000000458522     0.000009612014
      11        0.000006030647    -0.000006300242     0.000006004755
      12        0.000001133655     0.000002576877    -0.000003613516

  **** Optimization is complete! (in 4 steps) ****
    Final optimized geometry and variables:
    Molecular point group: c1

    Geometry (in Angstrom), charge = 0, multiplicity = 1:

    H           -1.271269705578    -1.328996161562     0.321748621196
    O           -1.417601604601    -0.570422070487    -0.210723068276
    C           -0.726214585615     0.535845490059     0.310123107434
    C            0.680871412801     0.666934892782    -0.251668371809
    H           -1.304422917015     1.411717027871     0.045158184555
    H           -0.694107855621     0.488303375260     1.396133505748
    C            1.601810350470    -0.489698002743     0.122361469389
    H            0.612540107120     0.746292336786    -1.331541728633
    H            1.102621557222     1.601575812001     0.108523721544
    H            1.225488225569    -1.430372690304    -0.262287620188
    H            2.594699413891    -0.345085370050    -0.286394733310
    H            1.700229331417    -0.580971863464     1.200040484241

  Mulliken Charges: (a.u.)
   Center  Symbol    Alpha    Beta     Spin     Total
       1     H     0.39147  0.39147  0.00000  0.21706
       2     O     4.20696  4.20696  0.00000 -0.41392
       3     C     2.97952  2.97952  0.00000  0.04096
       4     C     3.07647  3.07647  0.00000 -0.15295
       5     H     0.45101  0.45101  0.00000  0.09798
       6     H     0.46952  0.46952  0.00000  0.06096
       7     C     3.16043  3.16043  0.00000 -0.32086
       8     H     0.45261  0.45261  0.00000  0.09477
       9     H     0.45692  0.45692  0.00000  0.08617
      10     H     0.45292  0.45292  0.00000  0.09415
      11     H     0.44580  0.44580  0.00000  0.10839
      12     H     0.45636  0.45636  0.00000  0.08728

   Total alpha = 17.00000, Total beta = 17.00000, Total charge =  0.00000
