  ==> Input File <==

--------------------------------------------------------------------------
set {
	reference rhf
	basis cc-pvtz
}

set_num_threads( 4 )
memory 2 gb

molecule MOL {
0 1

H	 1.311435	 0.409623	 -0.994038
C	 0.848385	 0.440008	 0.000011
C	 -0.623497	 0.751021	 0.000090
O	 1.499809	 0.236847	 0.965214
C	 -1.523725	 -0.474323	 -0.000013
H	 -0.813143	 1.382932	 -0.864897
H	 -0.813071	 1.382716	 0.865253
H	 -1.342980	 -1.087348	 -0.873016
H	 -2.565269	 -0.177464	 0.000070
H	 -1.342898	 -1.087564	 0.872820

	symmetry c1
}
set optking {
	frozen_dihedral = ("
		4 2 3 6
	")
}

ee = optimize('scf')
oeprop('DIPOLE', 'QUADRUPOLE', 'MULLIKEN_CHARGES')
f=open( 'psi4out.xyz', 'w' )
f.write( "10  " )
f.write( str(ee) + "\n" )
f.write( MOL.save_string_xyz() )
f.close()
--------------------------------------------------------------------------

    Molecular point group: c1
  Charge       = 0
  Multiplicity = 1
  Basis Set: CC-PVTZ
  Basis Set:
  @DF-RHF Final Energy:  -192.02108215860105
    Total Energy =                       -192.0210821586010468
    Molecular point group: c1
  Basis Set: CC-PVTZ
  Basis Set:
  Basis Set: CC-PVTZ
  Basis Set:
  @DF-RHF Final Energy:  -192.02208309896560
    Total Energy =                       -192.0220830989656235
  Basis Set: CC-PVTZ
  Basis Set:
  Basis Set: CC-PVTZ
  Basis Set:
  @DF-RHF Final Energy:  -192.01994794624324
    Total Energy =                       -192.0199479462432350
  Basis Set: CC-PVTZ
  Basis Set:
  Basis Set: CC-PVTZ
  Basis Set:
  @DF-RHF Final Energy:  -192.02230327405550
    Total Energy =                       -192.0223032740554459
  Basis Set: CC-PVTZ
  Basis Set:
  Basis Set: CC-PVTZ
  Basis Set:
  @DF-RHF Final Energy:  -192.02232069145253
    Total Energy =                       -192.0223206914523360
  Basis Set: CC-PVTZ
  Basis Set:
  Charge       = 0
  Multiplicity = 1
  Basis Set: CC-PVTZ
  Basis Set:

    Orbital Energies (a.u.)
    -----------------------

    Doubly Occupied:

       1A    -20.553387     2A    -11.322820     3A    -11.237689
       4A    -11.231269     5A     -1.408490     6A     -1.065737
       7A     -0.904926     8A     -0.790121     9A     -0.683876
      10A     -0.643489    11A     -0.606865    12A     -0.577781
      13A     -0.542475    14A     -0.511161    15A     -0.499610
      16A     -0.414464

  @DF-RHF Final Energy:  -192.02232124643740

   => Energetics <=

    Nuclear Repulsion Energy =            118.3384627937414706
    One-Electron Energy =                -494.7332458928386814
    Two-Electron Energy =                 184.3724618526597965
    DFT Exchange-Correlation Energy =       0.0000000000000000
    Empirical Dispersion Energy =           0.0000000000000000
    PCM Polarization Energy =               0.0000000000000000
    EFP Energy =                            0.0000000000000000
    Total Energy =                       -192.0223212464374001
    Molecular point group: c1
  Basis Set: CC-PVTZ
  Basis Set:

  -Total Gradient:
     Atom            X                  Y                   Z
    ------   -----------------  -----------------  -----------------
       1        0.000011296234    -0.000001650556     0.000036074362
       2        0.000482201888     0.001934564744    -0.000201397590
       3        0.000181512778     0.000854664772     0.000942770199
       4       -0.000340266513    -0.001565859118     0.000019626831
       5        0.000016173701     0.000044018841     0.000009339322
       6       -0.000370656708    -0.001253055143    -0.000803800462
       7        0.000014924371    -0.000019698572    -0.000004323140
       8        0.000001833067     0.000007714659    -0.000004013889
       9        0.000002796070     0.000000106061    -0.000000109722
      10        0.000000185113    -0.000000805688     0.000005834091

  **** Optimization is complete! (in 6 steps) ****
    Final optimized geometry and variables:
    Molecular point group: c1

    Geometry (in Angstrom), charge = 0, multiplicity = 1:

    H            1.229813904194     0.050844162481    -1.248469932309
    C            0.786263040591     0.191466746425    -0.254650499070
    C           -0.673496195210     0.562565018625    -0.234250569030
    O            1.436481053236     0.005324874967     0.715134206981
    C           -1.538993527678    -0.702595166738    -0.256042796186
    H           -0.900270149568     1.167434041259    -1.105657521100
    H           -0.871155590094     1.139243733150     0.659303149052
    H           -1.334665239665    -1.305568164382    -1.134101647083
    H           -2.588888487729    -0.440263647338    -0.271591129818
    H           -1.350994410382    -1.308646519223     0.620737227383

  Mulliken Charges: (a.u.)
   Center  Symbol    Alpha    Beta     Spin     Total
       1     H     0.46199  0.46199  0.00000  0.07602
       2     C     2.90308  2.90308  0.00000  0.19383
       3     C     3.08115  3.08115  0.00000 -0.16230
       4     O     4.16721  4.16721  0.00000 -0.33442
       5     C     3.14688  3.14688  0.00000 -0.29376
       6     H     0.45232  0.45232  0.00000  0.09535
       7     H     0.44267  0.44267  0.00000  0.11466
       8     H     0.45411  0.45411  0.00000  0.09179
       9     H     0.44630  0.44630  0.00000  0.10740
      10     H     0.44429  0.44429  0.00000  0.11143

   Total alpha = 16.00000, Total beta = 16.00000, Total charge = -0.00000
