  ==> Input File <==

--------------------------------------------------------------------------
set {
	reference rhf
	basis 6-31G*
}

set_num_threads( 4 )
memory 2 gb

molecule MOL {
0 1

O	 2.418992	 0.253684	 -0.938678
C	 1.705091	 0.115954	 0.001797
C	 0.381791	 -0.609817	 0.001258
O	 1.991192	 0.592910	 1.206702
C	 -0.823008	 0.326187	 0.001381
H	 0.371250	 -1.265087	 -0.865474
H	 0.370908	 -1.265746	 0.867490
C	 -2.149452	 -0.435131	 -0.000098
H	 -0.770201	 0.977095	 -0.865636
H	 -0.771220	 0.975655	 0.869608
C	 -3.368779	 0.488503	 -0.000883
H	 -2.193746	 -1.087250	 -0.871175
H	 -2.195311	 -1.087803	 0.870418
C	 -4.693822	 -0.272754	 -0.001129
H	 -3.325798	 1.139422	 -0.871284
H	 -3.326423	 1.139959	 0.869145
H	 -4.781274	 -0.907928	 -0.878124
H	 -5.538651	 0.408946	 -0.001420
H	 -4.781694	 -0.907783	 0.875984
C	 3.211818	 1.296915	 1.346001
H	 4.048687	 0.658653	 1.101460
H	 3.261761	 1.599216	 2.380406
H	 3.226233	 2.163935	 0.701350

	symmetry c1
}
set optking {
	frozen_dihedral = ("
		1 2 3 6
	")
}

ee = optimize('scf')
oeprop('DIPOLE', 'QUADRUPOLE', 'MULLIKEN_CHARGES')
f=open( 'psi4out.xyz', 'w' )
f.write( "23  " )
f.write( str(ee) + "\n" )
f.write( MOL.save_string_xyz() )
f.close()
--------------------------------------------------------------------------

    Molecular point group: c1
  Charge       = 0
  Multiplicity = 1
  Basis Set: 6-31G*
  Basis Set:
  @DF-RHF Final Energy:  -422.97454180492571
    Total Energy =                       -422.9745418049259342
    Molecular point group: c1
  Basis Set: 6-31G*
  Basis Set:
  Basis Set: 6-31G*
  Basis Set:
  @DF-RHF Final Energy:  -422.97396486714530
    Total Energy =                       -422.9739648671447867
  Basis Set: 6-31G*
  Basis Set:
  Basis Set: 6-31G*
  Basis Set:
  @DF-RHF Final Energy:  -422.97491788867404
    Total Energy =                       -422.9749178886733034
  Basis Set: 6-31G*
  Basis Set:
  Basis Set: 6-31G*
  Basis Set:
  @DF-RHF Final Energy:  -422.97504929500394
    Total Energy =                       -422.9750492950037142
  Basis Set: 6-31G*
  Basis Set:
  Charge       = 0
  Multiplicity = 1
  Basis Set: 6-31G*
  Basis Set:

    Orbital Energies (a.u.)
    -----------------------

    Doubly Occupied:

       1A    -20.604033     2A    -20.543120     3A    -11.370495
       4A    -11.280498     5A    -11.233619     6A    -11.229564
       7A    -11.222064     8A    -11.220210     9A    -11.212221
      10A     -1.468339    11A     -1.360969    12A     -1.097374
      13A     -1.045696    14A     -0.984538    15A     -0.934602
      16A     -0.847033    17A     -0.798842    18A     -0.773046
      19A     -0.693656    20A     -0.679951    21A     -0.672617
      22A     -0.653496    23A     -0.607848    24A     -0.594387
      25A     -0.579083    26A     -0.571849    27A     -0.541249
      28A     -0.535379    29A     -0.523532    30A     -0.506184
      31A     -0.492656    32A     -0.476888    33A     -0.470834
      34A     -0.467286    35A     -0.453451    36A     -0.427318

  @DF-RHF Final Energy:  -422.97505012851059

   => Energetics <=

    Nuclear Repulsion Energy =            454.7586051163915499
    One-Electron Energy =               -1477.1194546997276120
    Two-Electron Energy =                 599.3857994548254737
    DFT Exchange-Correlation Energy =       0.0000000000000000
    Empirical Dispersion Energy =           0.0000000000000000
    PCM Polarization Energy =               0.0000000000000000
    EFP Energy =                            0.0000000000000000
    Total Energy =                       -422.9750501285105884
    Molecular point group: c1
  Basis Set: 6-31G*
  Basis Set:

  -Total Gradient:
     Atom            X                  Y                   Z
    ------   -----------------  -----------------  -----------------
       1       -0.000125726062     0.000196882210     0.000041535336
       2        0.000225770241    -0.000358945265    -0.000008302578
       3       -0.000310393002     0.000509603043    -0.000195989507
       4        0.000077054145    -0.000098661463     0.000019843095
       5        0.000035892071    -0.000005641507     0.000018453072
       6        0.000124602695    -0.000316766740     0.000136053914
       7        0.000032064836     0.000004399718    -0.000086446220
       8       -0.000002424037    -0.000027715952     0.000010996583
       9       -0.000006885326    -0.000016789237     0.000100273879
      10        0.000000680041     0.000026461359    -0.000017475283
      11        0.000009581837     0.000009922609    -0.000021278373
      12        0.000004262895    -0.000042242111     0.000010842865
      13       -0.000004127696     0.000010764641     0.000022077274
      14        0.000002362279     0.000007152841    -0.000028966034
      15       -0.000009271756     0.000024680407     0.000006994019
      16       -0.000008449771    -0.000014675864    -0.000003468743
      17       -0.000004738935    -0.000005962278    -0.000002493179
      18       -0.000002196224     0.000000933180    -0.000003893913
      19        0.000007674682     0.000004475535     0.000002197468
      20       -0.000143123020     0.000159254373    -0.000022786260
      21       -0.000003307863    -0.000051655431    -0.000016241034
      22        0.000046063374    -0.000008111991     0.000009209570
      23        0.000054634596    -0.000007362076     0.000028864052

  **** Optimization is complete! (in 5 steps) ****
    Final optimized geometry and variables:
    Molecular point group: c1

    Geometry (in Angstrom), charge = 0, multiplicity = 1:

    O            2.492960787336     0.065759485256    -1.139205452183
    C            1.814235833814    -0.113308332404    -0.179379066549
    C            0.506167848220    -0.863080797949    -0.173123072170
    O            2.117218711397     0.361916966076     1.022467377217
    C           -0.692968828794     0.096780273338    -0.159125131814
    H            0.484642611580    -1.484646304659    -1.059226838523
    H            0.474366671965    -1.504234767214     0.700975010831
    C           -2.029793307469    -0.645355822616    -0.184848888525
    H           -0.627732391901     0.758265024349    -1.019290920606
    H           -0.638850221774     0.723732881568     0.725989579863
    C           -3.236140538064     0.295268528854    -0.185460313440
    H           -2.070981384877    -1.283625694167    -1.065518279171
    H           -2.090541069949    -1.307928295037     0.676787165060
    C           -4.570741916412    -0.448607662368    -0.215396747686
    H           -3.173813192496     0.959563066623    -1.044525799983
    H           -3.196918390237     0.931290080023     0.696147039745
    H           -4.654588727138    -1.068057406863    -1.103809445784
    H           -5.406380193988     0.244184356943    -0.215478801157
    H           -4.678227027496    -1.096417047919     0.649996535135
    C            3.305810941439     1.123745240898     1.130661661664
    H            4.163211008472     0.530709371192     0.846762209782
    H            3.378104691967     1.413297015205     2.167467942468
    H            3.255114028872     1.999365994986     0.499606523778

  Mulliken Charges: (a.u.)
   Center  Symbol    Alpha    Beta     Spin     Total
       1     O     4.28495  4.28495  0.00000 -0.56990
       2     C     2.61733  2.61733  0.00000  0.76534
       3     C     3.19360  3.19360  0.00000 -0.38720
       4     O     4.30294  4.30294  0.00000 -0.60587
       5     C     3.16610  3.16610  0.00000 -0.33220
       6     H     0.39970  0.39970  0.00000  0.20060
       7     H     0.40455  0.40455  0.00000  0.19090
       8     C     3.15195  3.15195  0.00000 -0.30389
       9     H     0.41157  0.41157  0.00000  0.17685
      10     H     0.41008  0.41008  0.00000  0.17984
      11     C     3.15248  3.15248  0.00000 -0.30496
      12     H     0.42083  0.42083  0.00000  0.15834
      13     H     0.42183  0.42183  0.00000  0.15635
      14     C     3.23986  3.23986  0.00000 -0.47972
      15     H     0.42114  0.42114  0.00000  0.15773
      16     H     0.42181  0.42181  0.00000  0.15638
      17     H     0.42085  0.42085  0.00000  0.15830
      18     H     0.41810  0.41810  0.00000  0.16380
      19     H     0.42127  0.42127  0.00000  0.15745
      20     C     3.09244  3.09244  0.00000 -0.18488
      21     H     0.40851  0.40851  0.00000  0.18297
      22     H     0.40888  0.40888  0.00000  0.18224
      23     H     0.40924  0.40924  0.00000  0.18152

   Total alpha = 36.00000, Total beta = 36.00000, Total charge = -0.00000
