                              Psi4 1.0.54 Driver

  ==> Input File <==

--------------------------------------------------------------------------
set {
	reference rhf
	basis cc-pvtz
}

set_num_threads( 4 )
memory 2 gb

molecule MOL {
0 1

H	 -3.941973	 0.934228	 -0.390224
C	 -3.240162	 0.342701	 0.161016
C	 -2.105997	 -0.000418	 -0.398703
H	 -3.485368	 0.047206	 1.162193
O	 -1.276107	 -0.914515	 0.154048
H	 -1.778465	 0.416540	 -1.333581
C	 -0.049370	 -1.143350	 -0.442501
C	 1.030382	 -0.241631	 0.119703
H	 -0.078449	 -0.998710	 -1.515817
H	 0.238998	 -2.163001	 -0.236113
F	 2.181636	 -0.523517	 -0.456695
F	 0.773273	 1.029634	 -0.102308
F	 1.178882	 -0.397593	 1.412792

	symmetry c1
}
set optking {
	frozen_dihedral = ("
		6 3 2 1
	")
}

ee,wfn = optimize('scf', return_wfn=True)
oeprop( wfn, 'DIPOLE', 'QUADRUPOLE', 'MULLIKEN_CHARGES')
f=open( 'psi4out.xyz', 'w' )
f.write( "13  " )
f.write( str(ee) + "\n" )
f.write( MOL.save_string_xyz() )
f.close()
--------------------------------------------------------------------------

    Molecular point group: c1
  Charge       = 0
  Multiplicity = 1
  Basis Set: CC-PVTZ
  Basis Set:
  @DF-RHF Final Energy:  -527.74007551170598
    Total Energy =                       -527.7400755117062090
    Molecular point group: c1
  Basis Set: CC-PVTZ
  Basis Set:
  Basis Set: CC-PVTZ
  Basis Set:
  @DF-RHF Final Energy:  -527.74103844552633
    Total Energy =                       -527.7410384455259873
  Basis Set: CC-PVTZ
  Basis Set:
  Basis Set: CC-PVTZ
  Basis Set:
  @DF-RHF Final Energy:  -527.74135778001528
    Total Energy =                       -527.7413577800152780
  Basis Set: CC-PVTZ
  Basis Set:
  Basis Set: CC-PVTZ
  Basis Set:
  @DF-RHF Final Energy:  -527.74139684447118
    Total Energy =                       -527.7413968444708416
  Basis Set: CC-PVTZ
  Basis Set:
  Charge       = 0
  Multiplicity = 1
  Basis Set: CC-PVTZ
  Basis Set:

    Orbital Energies (a.u.)
    -----------------------

    Doubly Occupied:

       1A    -26.341786     2A    -26.340503     3A    -26.338024
       4A    -20.604195     5A    -11.497807     6A    -11.320097
       7A    -11.298813     8A    -11.213941     9A     -1.750444
      10A     -1.646920    11A     -1.645363    12A     -1.444745
      13A     -1.088141    14A     -1.020684    15A     -0.932243
      16A     -0.843986    17A     -0.839581    18A     -0.827086
      19A     -0.798371    20A     -0.728683    21A     -0.719201
      22A     -0.703572    23A     -0.681664    24A     -0.668251
      25A     -0.661558    26A     -0.650894    27A     -0.641748
      28A     -0.587262    29A     -0.566491    30A     -0.528326
      31A     -0.518471    32A     -0.356700

  @DF-RHF Final Energy:  -527.74139744033141

   => Energetics <=

    Nuclear Repulsion Energy =            413.8195390329323118
    One-Electron Energy =               -1551.5107650930635828
    Two-Electron Energy =                 609.9498286197996322
    DFT Exchange-Correlation Energy =       0.0000000000000000
    Empirical Dispersion Energy =           0.0000000000000000
    PCM Polarization Energy =               0.0000000000000000
    EFP Energy =                            0.0000000000000000
    Total Energy =                       -527.7413974403315251
    Molecular point group: c1
  Basis Set: CC-PVTZ
  Basis Set:

  -Total Gradient:
     Atom            X                  Y                   Z
    ------   -----------------  -----------------  -----------------
       1       -0.002287131466    -0.003729025377    -0.001612027476
       2        0.004362204413     0.006661555177     0.003263882505
       3       -0.004547407492    -0.006367589481    -0.003951147722
       4       -0.000010322433     0.000016420989    -0.000021401525
       5       -0.000021112605     0.000065938643     0.000001304389
       6        0.002486922147     0.003374625537     0.002320669204
       7        0.000015951292    -0.000032917756    -0.000010062621
       8       -0.000002161388    -0.000003544979     0.000008563053
       9       -0.000011153786     0.000002814027     0.000009614998
      10       -0.000002528140    -0.000003992433    -0.000005687526
      11       -0.000005695754     0.000005300628     0.000008882815
      12        0.000016424304     0.000015284054    -0.000003520975
      13        0.000006010914    -0.000004869033    -0.000009069118

  **** Optimization is complete! (in 5 steps) ****
    Final optimized geometry and variables:
    Molecular point group: c1

    Geometry (in Angstrom), charge = 0, multiplicity = 1:

    H           -3.848108065473     1.244579694478    -0.443247441502
    C           -3.175557720298     0.603900711289     0.089512179750
    C           -2.079550873122     0.187216859240    -0.496462350864
    H           -3.466500615640     0.241033534770     1.055824064456
    O           -1.252376922562    -0.714411162787     0.080266899235
    H           -1.744337574288     0.585306726966    -1.437049212321
    C           -0.019829282448    -0.951058082148    -0.500980148954
    C            1.051667646009    -0.030169423655     0.045898985175
    H           -0.042164055228    -0.832900603388    -1.577781670493
    H            0.271981476846    -1.963758143307    -0.267200229709
    F            2.208794557184    -0.322546708469    -0.513214122321
    F            0.791554971442     1.233650983880    -0.212168939308
    F            1.189956404859    -0.151057111191     1.343901193741

  Mulliken Charges: (a.u.)
   Center  Symbol    Alpha    Beta     Spin     Total
       1     H     0.42560  0.42560  0.00000  0.14880
       2     C     3.19546  3.19546  0.00000 -0.39091
       3     C     2.95967  2.95967  0.00000  0.08066
       4     H     0.42504  0.42504  0.00000  0.14993
       5     O     4.14444  4.14444  0.00000 -0.28887
       6     H     0.43464  0.43464  0.00000  0.13073
       7     C     3.01932  3.01932  0.00000 -0.03864
       8     C     2.67524  2.67524  0.00000  0.64953
       9     H     0.45535  0.45535  0.00000  0.08930
      10     H     0.43543  0.43543  0.00000  0.12914
      11     F     4.61258  4.61258  0.00000 -0.22515
      12     F     4.61043  4.61043  0.00000 -0.22086
      13     F     4.60682  4.60682  0.00000 -0.21365

   Total alpha = 32.00000, Total beta = 32.00000, Total charge = -0.00000

*** Psi4 exiting successfully. Buy a developer a beer!
