  ==> Input File <==

--------------------------------------------------------------------------
set {
	reference rhf
	basis cc-pvtz
}

set_num_threads( 4 )
memory 2 gb

molecule MOL {
0 1

O	 -1.780742	 -2.026189	 1.060340
C	 -0.788535	 -1.615302	 0.561795
C	 0.517672	 -2.364308	 0.480107
O	 -0.695554	 -0.422406	 0.000602
C	 0.463108	 -3.745658	 1.112457
H	 1.273037	 -1.744337	 0.950224
H	 0.790572	 -2.420243	 -0.567907
H	 0.206757	 -3.683897	 2.161594
H	 1.426120	 -4.233578	 1.023638
H	 -0.280104	 -4.365966	 0.629672
C	 -1.852370	 0.402254	 0.000718
C	 -3.063338	 -0.501097	 -0.000437
H	 -1.831732	 1.039442	 -0.872158
H	 -1.832493	 1.038301	 0.874430
H	 -3.071944	 -1.133732	 -0.879113
H	 -3.966302	 0.097976	 -0.000483
H	 -3.072764	 -1.134834	 0.877435

	symmetry c1
}
set optking {
	frozen_dihedral = ("
		2 4 11 13
	")
}

ee = optimize('scf')
oeprop('DIPOLE', 'QUADRUPOLE', 'MULLIKEN_CHARGES')
f=open( 'psi4out.xyz', 'w' )
f.write( "17  " )
f.write( str(ee) + "\n" )
f.write( MOL.save_string_xyz() )
f.close()
--------------------------------------------------------------------------

    Molecular point group: c1
  Charge       = 0
  Multiplicity = 1
  Basis Set: CC-PVTZ
  Basis Set:
  @DF-RHF Final Energy:  -344.98545649080648
    Total Energy =                       -344.9854564908064276
    Molecular point group: c1
  Basis Set: CC-PVTZ
  Basis Set:
  Basis Set: CC-PVTZ
  Basis Set:
  @DF-RHF Final Energy:  -345.02027362647289
    Total Energy =                       -345.0202736264731129
  Basis Set: CC-PVTZ
  Basis Set:
  Basis Set: CC-PVTZ
  Basis Set:
  @DF-RHF Final Energy:  -345.02758352817943
    Total Energy =                       -345.0275835281795480
  Basis Set: CC-PVTZ
  Basis Set:
  Basis Set: CC-PVTZ
  Basis Set:
  @DF-RHF Final Energy:  -345.02692685762116
    Total Energy =                       -345.0269268576209925
  Basis Set: CC-PVTZ
  Basis Set:
  @DF-RHF Final Energy:  -345.03030168546127
    Total Energy =                       -345.0303016854613816
  @DF-RHF Final Energy:  -345.03105127339336
    Total Energy =                       -345.0310512733935298
  Basis Set: CC-PVTZ
  Basis Set:
  @DF-RHF Final Energy:  -345.03109624661630
    Total Energy =                       -345.0310962466162437
  Basis Set: CC-PVTZ
  Basis Set:
  Basis Set: CC-PVTZ
  Basis Set:
  @DF-RHF Final Energy:  -345.03110569440179
    Total Energy =                       -345.0311056944021857
  Basis Set: CC-PVTZ
  Basis Set:
  Basis Set: CC-PVTZ
  Basis Set:
  @DF-RHF Final Energy:  -345.03110748392947
    Total Energy =                       -345.0311074839295316
  Basis Set: CC-PVTZ
  Basis Set:
  Charge       = 0
  Multiplicity = 1
  Basis Set: CC-PVTZ
  Basis Set:

    Orbital Energies (a.u.)
    -----------------------

    Doubly Occupied:

       1A    -20.590308     2A    -20.530230     3A    -11.364379
       4A    -11.288264     5A    -11.233845     6A    -11.213805
       7A    -11.212384     8A     -1.464519     9A     -1.364442
      10A     -1.068447    11A     -1.028591    12A     -0.919586
      13A     -0.858212    14A     -0.745390    15A     -0.698833
      16A     -0.682593    17A     -0.669573    18A     -0.630285
      19A     -0.606580    20A     -0.567824    21A     -0.545510
      22A     -0.529042    23A     -0.522548    24A     -0.517755
      25A     -0.494465    26A     -0.491950    27A     -0.450782
      28A     -0.431604

  @DF-RHF Final Energy:  -345.03110789707489

   => Energetics <=

    Nuclear Repulsion Energy =            319.5602735024820049
    One-Electron Energy =               -1103.7392729851044351
    Two-Electron Energy =                 439.1478915855473701
    DFT Exchange-Correlation Energy =       0.0000000000000000
    Empirical Dispersion Energy =           0.0000000000000000
    PCM Polarization Energy =               0.0000000000000000
    EFP Energy =                            0.0000000000000000
    Total Energy =                       -345.0311078970750600
    Molecular point group: c1
  Basis Set: CC-PVTZ
  Basis Set:

  -Total Gradient:
     Atom            X                  Y                   Z
    ------   -----------------  -----------------  -----------------
       1        0.000033236178    -0.000001083926     0.000012628291
       2       -0.001080440185    -0.002125706614    -0.005076256142
       3       -0.000007738670    -0.000028964653    -0.000021210587
       4        0.001199139407     0.002565735154     0.007169400260
       5        0.000010273438     0.000006360159     0.000005883361
       6       -0.000001859113     0.000002815575     0.000015226609
       7        0.000009972559     0.000006587485     0.000009994260
       8       -0.000002237339     0.000000516178    -0.000005034286
       9        0.000002063232    -0.000004819654    -0.000001539127
      10       -0.000000840174    -0.000000285681    -0.000001313684
      11        0.002476175680     0.003521574832     0.001213601675
      12       -0.000025363400    -0.000014195161     0.000025858025
      13       -0.002605739760    -0.003958008644    -0.003311092501
      14        0.000011405293     0.000003260491    -0.000002122330
      15       -0.000015011247    -0.000005088760     0.000007653170
      16        0.000008468332     0.000002987287     0.000000511098
      17       -0.000011504231     0.000028315932    -0.000042188091

  **** Optimization is complete! (in 10 steps) ****
    Final optimized geometry and variables:
    Molecular point group: c1

    Geometry (in Angstrom), charge = 0, multiplicity = 1:

    O           -0.627791348349    -0.670440628526     0.795916693273
    C            0.271249949779    -0.204027051492     0.183980046155
    C            1.578883214081    -0.908403347220    -0.088250497066
    O            0.283675894486     1.010710460560    -0.333170278339
    C            1.674626556812    -2.279680632741     0.560672906677
    H            2.374454767373    -0.254138583638     0.249422856816
    H            1.687390510294    -0.974639456922    -1.165484233507
    H            1.582614690413    -2.209018995108     1.636349071532
    H            2.629858962681    -2.734962363439     0.328683431842
    H            0.889129384437    -2.933946468200     0.207238061685
    C           -0.862058762678     1.853633312421    -0.444626644602
    C           -2.203633086584     1.176043874353    -0.670777454279
    H           -0.647562794210     2.444228657024    -1.322726905093
    H           -0.892451306458     2.496380277444     0.424471747226
    H           -2.145963776980     0.461798082141    -1.483427856408
    H           -2.909076876677     1.948860130610    -0.957670681852
    H           -2.573074088701     0.670547255748     0.204277026046

  Mulliken Charges: (a.u.)
   Center  Symbol    Alpha    Beta     Spin     Total
       1     O     4.19852  4.19852  0.00000 -0.39705
       2     C     2.80270  2.80270  0.00000  0.39459
       3     C     3.09367  3.09367  0.00000 -0.18734
       4     O     4.15547  4.15547  0.00000 -0.31094
       5     C     3.13989  3.13989  0.00000 -0.27978
       6     H     0.44036  0.44036  0.00000  0.11927
       7     H     0.44375  0.44375  0.00000  0.11250
       8     H     0.44901  0.44901  0.00000  0.10198
       9     H     0.45085  0.45085  0.00000  0.09830
      10     H     0.44854  0.44854  0.00000  0.10291
      11     C     2.98145  2.98145  0.00000  0.03711
      12     C     3.15526  3.15526  0.00000 -0.31052
      13     H     0.44954  0.44954  0.00000  0.10092
      14     H     0.45442  0.45442  0.00000  0.09116
      15     H     0.45210  0.45210  0.00000  0.09581
      16     H     0.45123  0.45123  0.00000  0.09754
      17     H     0.43323  0.43323  0.00000  0.13354

   Total alpha = 28.00000, Total beta = 28.00000, Total charge =  0.00000
