  ==> Input File <==

--------------------------------------------------------------------------
set {
	reference rhf
	basis 6-31G*
}

set_num_threads( 4 )
memory 2 gb

molecule MOL {
0 1

H	 2.608607	 -4.041577	 2.010861
O	 3.387589	 -3.895885	 1.494108
C	 3.070570	 -3.972915	 0.127500
C	 2.284082	 -2.767657	 -0.376005
H	 4.018505	 -4.033551	 -0.391553
H	 2.525861	 -4.891850	 -0.086111
C	 0.901307	 -2.615905	 0.262565
H	 2.871206	 -1.871590	 -0.192382
H	 2.175770	 -2.860349	 -1.455377
C	 0.115918	 -1.429151	 -0.302766
H	 1.015022	 -2.497214	 1.336505
H	 0.328290	 -3.530105	 0.106905
C	 -1.309753	 -1.282496	 0.241564
H	 0.669374	 -0.511051	 -0.114018
H	 0.062369	 -1.533317	 -1.384423
C	 -2.037799	 -0.007733	 -0.193645
H	 -1.890610	 -2.142323	 -0.085726
H	 -1.285946	 -1.330893	 1.329189
C	 -3.489788	 0.042957	 0.286558
H	 -2.017067	 0.064384	 -1.280144
H	 -1.513726	 0.868678	 0.179924
C	 -4.216917	 1.317354	 -0.141063
H	 -4.025645	 -0.823308	 -0.095450
H	 -3.513059	 -0.038752	 1.371301
H	 -4.239342	 1.411634	 -1.223113
H	 -5.243387	 1.322503	 0.212445
H	 -3.726170	 2.201406	 0.256408

	symmetry c1
}
set optking {
	frozen_dihedral = ("
		14 10 13 16
	")
}

ee = optimize('scf')
oeprop('DIPOLE', 'QUADRUPOLE', 'MULLIKEN_CHARGES')
f=open( 'psi4out.xyz', 'w' )
f.write( "27  " )
f.write( str(ee) + "\n" )
f.write( MOL.save_string_xyz() )
f.close()
--------------------------------------------------------------------------

    Molecular point group: c1
  Charge       = 0
  Multiplicity = 1
  Basis Set: 6-31G*
  Basis Set:
  @DF-RHF Final Energy:  -388.28284630809929
    Total Energy =                       -388.2828463080991241
    Molecular point group: c1
  Basis Set: 6-31G*
  Basis Set:
  Basis Set: 6-31G*
  Basis Set:
  @DF-RHF Final Energy:  -388.28320503077782
    Total Energy =                       -388.2832050307777081
  Basis Set: 6-31G*
  Basis Set:
  Basis Set: 6-31G*
  Basis Set:
  @DF-RHF Final Energy:  -388.28323349105034
    Total Energy =                       -388.2832334910507370
  Basis Set: 6-31G*
  Basis Set:
  Basis Set: 6-31G*
  Basis Set:
  @DF-RHF Final Energy:  -388.28325252295411
    Total Energy =                       -388.2832525229537168
  Basis Set: 6-31G*
  Basis Set:
  Basis Set: 6-31G*
  Basis Set:
  @DF-RHF Final Energy:  -388.28325548447185
    Total Energy =                       -388.2832554844720789
  Basis Set: 6-31G*
  Basis Set:
  Charge       = 0
  Multiplicity = 1
  Basis Set: 6-31G*
  Basis Set:

    Orbital Energies (a.u.)
    -----------------------

    Doubly Occupied:

       1A    -20.552214     2A    -11.267066     3A    -11.220474
       4A    -11.216948     5A    -11.215721     6A    -11.215388
       7A    -11.215335     8A    -11.214072     9A    -11.208994
      10A     -1.359009    11A     -1.095108    12A     -1.062644
      13A     -1.012115    14A     -0.950495    15A     -0.882714
      16A     -0.820032    17A     -0.792607    18A     -0.789167
      19A     -0.694226    20A     -0.659265    21A     -0.634372
      22A     -0.613663    23A     -0.600146    24A     -0.587588
      25A     -0.574667    26A     -0.555186    27A     -0.537032
      28A     -0.520457    29A     -0.512595    30A     -0.490842
      31A     -0.482967    32A     -0.474101    33A     -0.468267
      34A     -0.462999    35A     -0.461496    36A     -0.443039
      37A     -0.420155

  @DF-RHF Final Energy:  -388.28325604312045

   => Energetics <=

    Nuclear Repulsion Energy =            451.2812046652127265
    One-Electron Energy =               -1420.5625895767093425
    Two-Electron Energy =                 580.9981288683754883
    DFT Exchange-Correlation Energy =       0.0000000000000000
    Empirical Dispersion Energy =           0.0000000000000000
    PCM Polarization Energy =               0.0000000000000000
    EFP Energy =                            0.0000000000000000
    Total Energy =                       -388.2832560431211277
    Molecular point group: c1
  Basis Set: 6-31G*
  Basis Set:

  -Total Gradient:
     Atom            X                  Y                   Z
    ------   -----------------  -----------------  -----------------
       1       -0.000013638663     0.000005729395     0.000007681424
       2       -0.000007573728    -0.000008758824     0.000013184408
       3       -0.000025228217     0.000040272646     0.000021765469
       4       -0.000018409616     0.000048888994    -0.000047693211
       5       -0.000011629912     0.000019696056    -0.000004786462
       6        0.000001178896     0.000001315901    -0.000003880100
       7       -0.000034739719    -0.000005431761     0.000046661449
       8        0.000020444927    -0.000004599453    -0.000017505984
       9        0.000002763676    -0.000007042267    -0.000010425957
      10        0.000808778535    -0.000477488957     0.002007401978
      11        0.000019407144    -0.000028542799    -0.000004621676
      12       -0.000030802792    -0.000009505568    -0.000017258744
      13       -0.000759973549    -0.000594678062    -0.001631320501
      14       -0.000431997505     0.000579344003    -0.001315150822
      15       -0.000027924726    -0.000040289998     0.000021249283
      16        0.000461952339     0.000589147753     0.000922067504
      17       -0.000029717351    -0.000025167143    -0.000006705260
      18        0.000012547287     0.000026640200    -0.000011801153
      19        0.000010367529    -0.000076538291     0.000035481924
      20        0.000029716856    -0.000033462430     0.000000988943
      21       -0.000023134154     0.000030843724    -0.000001001794
      22        0.000059664035    -0.000006762238    -0.000020385081
      23       -0.000011116403    -0.000009481719     0.000008064679
      24       -0.000014710029     0.000002978979     0.000006730773
      25       -0.000002323612     0.000003267307    -0.000003696097
      26        0.000017039271    -0.000025175085     0.000006165906
      27       -0.000000940530     0.000004799639    -0.000001210899

  **** Optimization is complete! (in 6 steps) ****
    Final optimized geometry and variables:
    Molecular point group: c1

    Geometry (in Angstrom), charge = 0, multiplicity = 1:

    H            2.640456421948    -2.389691468426     1.836032351499
    O            3.440138346578    -2.225140968052     1.357908359306
    C            3.186773245014    -2.284403364872    -0.022681344367
    C            2.401002748990    -1.085169904539    -0.541356757394
    H            4.158248484200    -2.318559428006    -0.498776648111
    H            2.669943084339    -3.209332389574    -0.276052003430
    C            0.989854779158    -0.968704367842     0.038875201328
    H            2.962997659129    -0.181875749112    -0.318886036950
    H            2.340491389893    -1.162411613567    -1.625662271988
    C            0.203191933709     0.213280893931    -0.529054590500
    H            1.048815388613    -0.862290126492     1.120135539077
    H            0.441220831454    -1.890449907449    -0.154076017996
    C           -1.215864918936     0.326431478864     0.032263101927
    H            0.744471836417     1.137710080956    -0.336608518810
    H            0.150534678830     0.120033744959    -1.612577912658
    C           -1.936813734453     1.603986890013    -0.400805503304
    H           -1.795790615593    -0.542057965587    -0.275061205237
    H           -1.175521851585     0.295626432056     1.120056914561
    C           -3.364909981982     1.705338626255     0.137932723963
    H           -1.959634496084     1.655820614785    -1.488353231987
    H           -1.365343629854     2.468415824133    -0.067303318277
    C           -4.076245064628     2.987453392918    -0.293026269311
    H           -3.938613436981     0.844242103412    -0.198321409687
    H           -3.344372463822     1.652231687279     1.224460661260
    H           -4.143560261512     3.053684767374    -1.375314852270
    H           -5.085750591895     3.030082429319     0.104085439114
    H           -3.545215770369     3.867620988873     0.058462020058

  Mulliken Charges: (a.u.)
   Center  Symbol    Alpha    Beta     Spin     Total
       1     H     0.27983  0.27983  0.00000  0.44035
       2     O     4.37099  4.37099  0.00000 -0.74199
       3     C     2.99738  2.99738  0.00000  0.00524
       4     C     3.16123  3.16123  0.00000 -0.32245
       5     H     0.41440  0.41440  0.00000  0.17120
       6     H     0.43203  0.43203  0.00000  0.13594
       7     C     3.16159  3.16159  0.00000 -0.32318
       8     H     0.41495  0.41495  0.00000  0.17011
       9     H     0.42413  0.42413  0.00000  0.15175
      10     C     3.15094  3.15094  0.00000 -0.30187
      11     H     0.42504  0.42504  0.00000  0.14993
      12     H     0.42481  0.42481  0.00000  0.15037
      13     C     3.15207  3.15207  0.00000 -0.30415
      14     H     0.42133  0.42133  0.00000  0.15734
      15     H     0.42302  0.42302  0.00000  0.15397
      16     C     3.15098  3.15098  0.00000 -0.30196
      17     H     0.42358  0.42358  0.00000  0.15284
      18     H     0.42429  0.42429  0.00000  0.15142
      19     C     3.15148  3.15148  0.00000 -0.30297
      20     H     0.42406  0.42406  0.00000  0.15189
      21     H     0.42340  0.42340  0.00000  0.15319
      22     C     3.23930  3.23930  0.00000 -0.47859
      23     H     0.42326  0.42326  0.00000  0.15347
      24     H     0.42313  0.42313  0.00000  0.15375
      25     H     0.42180  0.42180  0.00000  0.15639
      26     H     0.41933  0.41933  0.00000  0.16133
      27     H     0.42165  0.42165  0.00000  0.15669

   Total alpha = 37.00000, Total beta = 37.00000, Total charge =  0.00000
