  ==> Input File <==

--------------------------------------------------------------------------
set {
	reference rhf
	basis 6-31G*
}

set_num_threads( 4 )
memory 2 gb

molecule MOL {
0 1

H	 -1.792477	 -2.676587	 -1.737460
C	 -2.434315	 -1.830542	 -1.462008
C	 -2.353121	 -1.413488	 -0.015604
O	 -3.125645	 -1.314560	 -2.279061
C	 -0.910034	 -1.166473	 0.445632
H	 -2.971627	 -0.534176	 0.122125
H	 -2.784510	 -2.220954	 0.574785
C	 -0.252658	 0.041456	 -0.226725
H	 -0.912852	 -1.022943	 1.522050
H	 -0.313994	 -2.058886	 0.260991
C	 1.180775	 0.282413	 0.250794
H	 -0.853800	 0.927433	 -0.033025
H	 -0.253008	 -0.091883	 -1.306892
C	 2.148627	 -0.814315	 -0.201312
H	 1.516199	 1.249228	 -0.115937
H	 1.192670	 0.346017	 1.338083
C	 3.580890	 -0.659131	 0.322722
H	 2.166869	 -0.852443	 -1.289387
H	 1.762857	 -1.776509	 0.128956
C	 4.324889	 0.564933	 -0.213704
H	 4.142010	 -1.551473	 0.056605
H	 3.564836	 -0.624694	 1.410140
H	 4.342616	 0.565491	 -1.300421
H	 3.866655	 1.493402	 0.110242
H	 5.353900	 0.572371	 0.132816

	symmetry c1
}
set optking {
	frozen_dihedral = ("
		12 8 11 14
	")
}

ee = optimize('scf')
oeprop('DIPOLE', 'QUADRUPOLE', 'MULLIKEN_CHARGES')
f=open( 'psi4out.xyz', 'w' )
f.write( "25  " )
f.write( str(ee) + "\n" )
f.write( MOL.save_string_xyz() )
f.close()
--------------------------------------------------------------------------

    Molecular point group: c1
  Charge       = 0
  Multiplicity = 1
  Basis Set: 6-31G*
  Basis Set:
  @DF-RHF Final Energy:  -387.11957697773920
    Total Energy =                       -387.1195769777398255
    Molecular point group: c1
  Basis Set: 6-31G*
  Basis Set:
  Basis Set: 6-31G*
  Basis Set:
  @DF-RHF Final Energy:  -387.11979314053718
    Total Energy =                       -387.1197931405372401
  Basis Set: 6-31G*
  Basis Set:
  Basis Set: 6-31G*
  Basis Set:
  @DF-RHF Final Energy:  -387.12007070830708
    Total Energy =                       -387.1200707083078214
  Basis Set: 6-31G*
  Basis Set:
  Basis Set: 6-31G*
  Basis Set:
  @DF-RHF Final Energy:  -387.12017651075172
    Total Energy =                       -387.1201765107512074
  Basis Set: 6-31G*
  Basis Set:
  @DF-RHF Final Energy:  -387.12021298575087
    Total Energy =                       -387.1202129857506407
  @DF-RHF Final Energy:  -387.12021657062189
    Total Energy =                       -387.1202165706216647
  Basis Set: 6-31G*
  Basis Set:
  @DF-RHF Final Energy:  -387.12021884756882
    Total Energy =                       -387.1202188475682533
  Basis Set: 6-31G*
  Basis Set:
  Basis Set: 6-31G*
  Basis Set:
  @DF-RHF Final Energy:  -387.12022062360234
    Total Energy =                       -387.1202206236031316
  Basis Set: 6-31G*
  Basis Set:
  Basis Set: 6-31G*
  Basis Set:
  @DF-RHF Final Energy:  -387.12022445527151
    Total Energy =                       -387.1202244552712273
  Basis Set: 6-31G*
  Basis Set:
  Charge       = 0
  Multiplicity = 1
  Basis Set: 6-31G*
  Basis Set:

    Orbital Energies (a.u.)
    -----------------------

    Doubly Occupied:

       1A    -20.561854     2A    -11.326059     3A    -11.234983
       4A    -11.234390     5A    -11.224386     6A    -11.220163
       7A    -11.219368     8A    -11.218521     9A    -11.210964
      10A     -1.401802    11A     -1.104204    12A     -1.069147
      13A     -1.012825    14A     -0.940839    15A     -0.882098
      16A     -0.821463    17A     -0.791943    18A     -0.774665
      19A     -0.665512    20A     -0.650387    21A     -0.635305
      22A     -0.626697    23A     -0.611650    24A     -0.590768
      25A     -0.568035    26A     -0.566410    27A     -0.531697
      28A     -0.519308    29A     -0.519001    30A     -0.497612
      31A     -0.487822    32A     -0.478777    33A     -0.464554
      34A     -0.450280    35A     -0.446993    36A     -0.409317

  @DF-RHF Final Energy:  -387.12022462027210

   => Energetics <=

    Nuclear Repulsion Energy =            443.4285539144926815
    One-Electron Energy =               -1403.1579598972980421
    Two-Electron Energy =                 572.6091813625325813
    DFT Exchange-Correlation Energy =       0.0000000000000000
    Empirical Dispersion Energy =           0.0000000000000000
    PCM Polarization Energy =               0.0000000000000000
    EFP Energy =                            0.0000000000000000
    Total Energy =                       -387.1202246202727792
    Molecular point group: c1
  Basis Set: 6-31G*
  Basis Set:

  -Total Gradient:
     Atom            X                  Y                   Z
    ------   -----------------  -----------------  -----------------
       1       -0.000047535435    -0.000039080766     0.000007402235
       2        0.000111471471     0.000038189827    -0.000016421621
       3       -0.000017864027     0.000002561828     0.000001539366
       4       -0.000042891063    -0.000026819684     0.000013828129
       5        0.000050563754    -0.000062869572    -0.000085790241
       6        0.000012518949     0.000016794361    -0.000018787229
       7        0.000010521044     0.000009367500     0.000032053490
       8       -0.000125624869    -0.000004071179     0.000339291123
       9       -0.000072335301    -0.000028305394     0.000003208517
      10        0.000056886854     0.000028060491    -0.000018518900
      11        0.000013234983    -0.000089668838     0.000128200126
      12        0.000076045673     0.000097258396    -0.000199815655
      13        0.000009239355     0.000015185423    -0.000012930486
      14        0.000000881489     0.000007304627    -0.000077036568
      15        0.000038092593     0.000036103048    -0.000059465133
      16        0.000021908985    -0.000004932078    -0.000026175034
      17        0.000014724873    -0.000052947795    -0.000034127609
      18        0.000014437662     0.000016503963     0.000012637467
      19       -0.000059001851    -0.000007366249    -0.000008628529
      20       -0.000022486090     0.000007503937     0.000012287184
      21        0.000002659870     0.000000896579     0.000003229642
      22        0.000003956507     0.000002244031    -0.000006329931
      23        0.000006871514    -0.000009059230     0.000011846571
      24       -0.000057296375     0.000028425243    -0.000009342997
      25        0.000001019430     0.000018721528     0.000007846084

  **** Optimization is complete! (in 10 steps) ****
    Final optimized geometry and variables:
    Molecular point group: c1

    Geometry (in Angstrom), charge = 0, multiplicity = 1:

    H           -2.166432013161    -1.952545000788    -1.393869828344
    C           -2.755064045339    -1.076463427237    -1.094189283788
    C           -2.634735988534    -0.694569913538     0.359293320330
    O           -3.429487734637    -0.509394047265    -1.891340807994
    C           -1.174853837127    -0.539144600069     0.808759365077
    H           -3.201502341877     0.214917793726     0.521769841053
    H           -3.104560664919    -1.488783554233     0.938161238595
    C           -0.470263695248     0.656708578306     0.159877819503
    H           -1.158493660957    -0.422752769508     1.888840269369
    H           -0.638263443794    -1.459738818567     0.594337708965
    C            0.959529742391     0.901716376501     0.657739714425
    H           -1.062175123851     1.548802918190     0.350393476237
    H           -0.455087606315     0.534925397373    -0.921937204141
    C            1.969883126890    -0.172671277195     0.242170806218
    H            1.283914008084     1.865833930092     0.277792438834
    H            0.952147307915     0.989328033582     1.743326204559
    C            3.398421714685     0.076358241706     0.741993089369
    H            1.980083270468    -0.253067426375    -0.843983324355
    H            1.645852431390    -1.140218208033     0.616005576756
    C            4.081411226270     1.304261653409     0.136823900970
    H            3.998605462448    -0.801565313843     0.516221016305
    H            3.388903478325     0.165432088275     1.826472471391
    H            4.096017654354     1.247156916978    -0.948252646052
    H            3.582020355218     2.226822253028     0.413031870284
    H            5.109881629574     1.378061713261     0.476521601160

  Mulliken Charges: (a.u.)
   Center  Symbol    Alpha    Beta     Spin     Total
       1     H     0.43266  0.43266  0.00000  0.13468
       2     C     2.83071  2.83071  0.00000  0.33858
       3     C     3.20817  3.20817  0.00000 -0.41635
       4     O     4.23781  4.23781  0.00000 -0.47562
       5     C     3.16795  3.16795  0.00000 -0.33590
       6     H     0.39983  0.39983  0.00000  0.20035
       7     H     0.40656  0.40656  0.00000  0.18687
       8     C     3.15616  3.15616  0.00000 -0.31232
       9     H     0.41334  0.41334  0.00000  0.17332
      10     H     0.41775  0.41775  0.00000  0.16451
      11     C     3.15604  3.15604  0.00000 -0.31208
      12     H     0.41632  0.41632  0.00000  0.16737
      13     H     0.41867  0.41867  0.00000  0.16266
      14     C     3.15520  3.15520  0.00000 -0.31040
      15     H     0.41651  0.41651  0.00000  0.16697
      16     H     0.42369  0.42369  0.00000  0.15262
      17     C     3.15232  3.15232  0.00000 -0.30464
      18     H     0.42345  0.42345  0.00000  0.15310
      19     H     0.42182  0.42182  0.00000  0.15636
      20     C     3.24163  3.24163  0.00000 -0.48326
      21     H     0.42042  0.42042  0.00000  0.15916
      22     H     0.42312  0.42312  0.00000  0.15376
      23     H     0.42150  0.42150  0.00000  0.15700
      24     H     0.41983  0.41983  0.00000  0.16035
      25     H     0.41853  0.41853  0.00000  0.16293

   Total alpha = 36.00000, Total beta = 36.00000, Total charge =  0.00000
