  ==> Input File <==

--------------------------------------------------------------------------
set {
	reference rhf
	basis 6-31G*
}

set_num_threads( 1 )
memory 2 gb

molecule MOL {
0 1

H	 1.829308	 -1.489761	 0.693713
O	 2.016064	 -0.864478	 0.000222
C	 1.050492	 0.053836	 0.000068
C	 -0.318135	 -0.576402	 0.000164
O	 1.285279	 1.218255	 -0.000078
C	 -1.454360	 0.441875	 -0.000474
H	 -0.374042	 -1.230163	 -0.866135
H	 -0.374274	 -1.229227	 0.867154
C	 -2.826123	 -0.230780	 0.000056
H	 -1.357605	 1.085198	 -0.868380
H	 -1.357504	 1.086451	 0.866496
H	 -2.959731	 -0.858053	 -0.876869
H	 -3.619374	 0.509403	 -0.000080
H	 -2.959371	 -0.857318	 0.877556

	symmetry c1
}
set optking {
	frozen_dihedral = ("
		7 4 6 10,
		2 3 4 7
	")
}

ee = energy('scf')
oeprop('DIPOLE', 'QUADRUPOLE', 'MULLIKEN_CHARGES')
f=open( 'psi4out.xyz', 'w' )
f.write( "14  " )
f.write( str(ee) + "\n" )
f.write( MOL.save_string_xyz() )
f.close()
--------------------------------------------------------------------------

    Molecular point group: c1

    Geometry (in Angstrom), charge = 0, multiplicity = 1:

       Center              X                  Y                   Z               Mass
    ------------   -----------------  -----------------  -----------------  -----------------
           H          1.841037732951    -1.477429314829     0.685775086426     1.007825032070
           O          2.027793732951    -0.852146314829    -0.007715913574    15.994914619560
           C          1.062221732951     0.066167685171    -0.007869913574    12.000000000000
           C         -0.306405267049    -0.564070314829    -0.007773913574    12.000000000000
           O          1.297008732951     1.230586685171    -0.008015913574    15.994914619560
           C         -1.442630267049     0.454206685171    -0.008411913574    12.000000000000
           H         -0.362312267049    -1.217831314829    -0.874072913574     1.007825032070
           H         -0.362544267049    -1.216895314829     0.859216086426     1.007825032070
           C         -2.814393267049    -0.218448314829    -0.007881913574    12.000000000000
           H         -1.345875267049     1.097529685171    -0.876317913574     1.007825032070
           H         -1.345774267049     1.098782685171     0.858558086426     1.007825032070
           H         -2.948001267049    -0.845721314829    -0.884806913574     1.007825032070
           H         -3.607644267049     0.521734685171    -0.008017913574     1.007825032070
           H         -2.947641267049    -0.844986314829     0.869618086426     1.007825032070

  Charge       = 0
  Multiplicity = 1
  Basis Set: 6-31G*
  Basis Set:

    Orbital Energies (a.u.)
    -----------------------

    Doubly Occupied:

       1A    -20.606614     2A    -20.556450     3A    -11.381002
       4A    -11.248823     5A    -11.229987     6A    -11.221105
       7A     -1.469919     8A     -1.371319     9A     -1.087417
      10A     -0.979188    11A     -0.851681    12A     -0.812700
      13A     -0.719160    14A     -0.676386    15A     -0.662174
      16A     -0.632442    17A     -0.582900    18A     -0.572690
      19A     -0.550081    20A     -0.506823    21A     -0.496225
      22A     -0.487896    23A     -0.479442    24A     -0.443116

  @DF-RHF Final Energy:  -305.86133837609191

   => Energetics <=

    Nuclear Repulsion Energy =            240.2626926061536494
    One-Electron Energy =                -892.9970040116581913
    Two-Electron Energy =                 346.8729730294133446
    DFT Exchange-Correlation Energy =       0.0000000000000000
    Empirical Dispersion Energy =           0.0000000000000000
    PCM Polarization Energy =               0.0000000000000000
    EFP Energy =                            0.0000000000000000
    Total Energy =                       -305.8613383760911688

  Mulliken Charges: (a.u.)
   Center  Symbol    Alpha    Beta     Spin     Total
       1     H     0.26869  0.26869  0.00000  0.46263
       2     O     4.35162  4.35162  0.00000 -0.70325
       3     C     2.62063  2.62063  0.00000  0.75873
       4     C     3.22215  3.22215  0.00000 -0.44429
       5     O     4.25818  4.25818  0.00000 -0.51635
       6     C     3.15225  3.15225  0.00000 -0.30450
       7     H     0.39626  0.39626  0.00000  0.20748
       8     H     0.41419  0.41419  0.00000  0.17161
       9     C     3.24323  3.24323  0.00000 -0.48647
      10     H     0.40713  0.40713  0.00000  0.18574
      11     H     0.40967  0.40967  0.00000  0.18066
      12     H     0.42054  0.42054  0.00000  0.15891
      13     H     0.41336  0.41336  0.00000  0.17328
      14     H     0.42209  0.42209  0.00000  0.15582

   Total alpha = 24.00000, Total beta = 24.00000, Total charge =  0.00000
