  ==> Input File <==

--------------------------------------------------------------------------
set {
	reference rhf
	basis 6-31G*
}

set_num_threads( 4 )
memory 2 gb

molecule MOL {
0 1

O	 -2.379264	 -0.793025	 -0.729440
C	 -1.921153	 0.064240	 -0.045697
C	 -2.710380	 1.179928	 0.584149
O	 -0.632575	 0.154573	 0.251549
H	 -2.333155	 2.135658	 0.238852
H	 -3.753334	 1.078026	 0.323961
H	 -2.591508	 1.149840	 1.661053
C	 0.160891	 -1.019931	 0.106212
C	 1.589627	 -0.672828	 0.480843
H	 0.089836	 -1.367806	 -0.916050
H	 -0.238459	 -1.792301	 0.749618
C	 2.246377	 0.346236	 -0.452210
H	 2.163194	 -1.597435	 0.473358
H	 1.604769	 -0.303424	 1.502885
C	 3.691736	 0.652107	 -0.061850
H	 2.219579	 -0.032311	 -1.472055
H	 1.666466	 1.263317	 -0.447249
H	 4.134505	 1.377213	 -0.737283
H	 4.305508	 -0.243868	 -0.089969
H	 3.748266	 1.059562	 0.943567

	symmetry c1
}
set optking {
	frozen_dihedral = ("
		1 2 4 8
	")
}

ee = optimize('scf')
oeprop('DIPOLE', 'QUADRUPOLE', 'MULLIKEN_CHARGES')
f=open( 'psi4out.xyz', 'w' )
f.write( "20  " )
f.write( str(ee) + "\n" )
f.write( MOL.save_string_xyz() )
f.close()
--------------------------------------------------------------------------

    Molecular point group: c1
  Charge       = 0
  Multiplicity = 1
  Basis Set: 6-31G*
  Basis Set:
  @DF-RHF Final Energy:  -383.94326746827647
    Total Energy =                       -383.9432674682767583
    Molecular point group: c1
  Basis Set: 6-31G*
  Basis Set:
  Basis Set: 6-31G*
  Basis Set:
  @DF-RHF Final Energy:  -383.94067599444384
    Total Energy =                       -383.9406759944439500
  Basis Set: 6-31G*
  Basis Set:
  Basis Set: 6-31G*
  Basis Set:
  @DF-RHF Final Energy:  -383.94347372090203
    Total Energy =                       -383.9434737209020341
  Basis Set: 6-31G*
  Basis Set:
  Basis Set: 6-31G*
  Basis Set:
  @DF-RHF Final Energy:  -383.94350208106772
    Total Energy =                       -383.9435020810675496
  Basis Set: 6-31G*
  Basis Set:
  @DF-RHF Final Energy:  -383.94350407727063
    Total Energy =                       -383.9435040772702905
  @DF-RHF Final Energy:  -383.94350671430584
    Total Energy =                       -383.9435067143056131
  Basis Set: 6-31G*
  Basis Set:
  @DF-RHF Final Energy:  -383.94334927900894
    Total Energy =                       -383.9433492790087712
  Basis Set: 6-31G*
  Basis Set:
  Basis Set: 6-31G*
  Basis Set:
  @DF-RHF Final Energy:  -383.94350615236397
    Total Energy =                       -383.9435061523641934
  Basis Set: 6-31G*
  Basis Set:
  Basis Set: 6-31G*
  Basis Set:
  @DF-RHF Final Energy:  -383.94350759295008
    Total Energy =                       -383.9435075929500272
  Basis Set: 6-31G*
  Basis Set:
  Charge       = 0
  Multiplicity = 1
  Basis Set: 6-31G*
  Basis Set:

    Orbital Energies (a.u.)
    -----------------------

    Doubly Occupied:

       1A    -20.599751     2A    -20.545100     3A    -11.374798
       4A    -11.283386     5A    -11.233539     6A    -11.225789
       7A    -11.220194     8A    -11.213195     9A     -1.466576
      10A     -1.362504    11A     -1.085865    12A     -1.027618
      13A     -0.981814    14A     -0.880094    15A     -0.811462
      16A     -0.774522    17A     -0.690551    18A     -0.682370
      19A     -0.667002    20A     -0.630711    21A     -0.601765
      22A     -0.592478    23A     -0.573086    24A     -0.546595
      25A     -0.545285    26A     -0.536884    27A     -0.509145
      28A     -0.484913    29A     -0.474576    30A     -0.470681
      31A     -0.448943    32A     -0.438152

  @DF-RHF Final Energy:  -383.94350794415584

   => Energetics <=

    Nuclear Repulsion Energy =            384.7395121028090443
    One-Electron Energy =               -1285.4073550878943024
    Two-Electron Energy =                 516.7243350409295317
    DFT Exchange-Correlation Energy =       0.0000000000000000
    Empirical Dispersion Energy =           0.0000000000000000
    PCM Polarization Energy =               0.0000000000000000
    EFP Energy =                            0.0000000000000000
    Total Energy =                       -383.9435079441557264
    Molecular point group: c1
  Basis Set: 6-31G*
  Basis Set:

  -Total Gradient:
     Atom            X                  Y                   Z
    ------   -----------------  -----------------  -----------------
       1        0.000599283429     0.003463272966    -0.005545590009
       2       -0.001197330076    -0.005734024414     0.010795731819
       3        0.000008909814     0.000008833507    -0.000027046137
       4        0.001209934486     0.003258225160    -0.010024013037
       5       -0.000010581443     0.000004094684    -0.000020004348
       6        0.000000411212     0.000010701977    -0.000013053988
       7        0.000027810341     0.000029844107    -0.000011564835
       8       -0.000653783361    -0.001050663218     0.004891100703
       9       -0.000001631883     0.000020268281     0.000018053523
      10       -0.000009734461    -0.000023620301    -0.000029355932
      11        0.000005993967     0.000019526229    -0.000028926216
      12        0.000010566616    -0.000003049450    -0.000012101215
      13       -0.000001300208     0.000008611741    -0.000002631462
      14        0.000008397682     0.000003482598     0.000010753509
      15       -0.000004724274    -0.000002008865     0.000003097465
      16       -0.000001534310    -0.000002318372    -0.000004796042
      17        0.000008331394    -0.000010242190     0.000001093738
      18       -0.000003281339     0.000003672655     0.000002429856
      19        0.000003836280     0.000000992337    -0.000004827460
      20        0.000000426133    -0.000005599431     0.000001650065

  **** Optimization is complete! (in 10 steps) ****
    Final optimized geometry and variables:
    Molecular point group: c1

    Geometry (in Angstrom), charge = 0, multiplicity = 1:

    O           -2.423623259179    -0.850385384388    -0.624883422752
    C           -1.931708945745     0.046115421518    -0.020582603171
    C           -2.686094166212     1.214156141523     0.554412221283
    O           -0.624202374805     0.167000949373     0.176883455026
    H           -2.287559612787     2.139324236614     0.154579693499
    H           -3.734457309717     1.125599945839     0.311492185887
    H           -2.555456743088     1.239224876273     1.630415966059
    C            0.175434339315    -1.004167256184     0.032996657767
    C            1.597311880510    -0.656769721664     0.432198199229
    H            0.122558095247    -1.347592420076    -0.991444976851
    H           -0.232137468684    -1.780786857700     0.667392481173
    C            2.263609458602     0.371652927968    -0.483573365671
    H            2.173763051007    -1.579654677922     0.425741769590
    H            1.596309240133    -0.294830749856     1.456987725585
    C            3.701043330083     0.681880669991    -0.068119119526
    H            2.254649683651    -0.000563863948    -1.505888066526
    H            1.678747781948     1.285576790689    -0.482265795351
    H            4.151006070191     1.413092670891    -0.732096111383
    H            4.319737232089    -0.210907980416    -0.091557741613
    H            3.739550641299     1.083735323334     0.940422094703

  Mulliken Charges: (a.u.)
   Center  Symbol    Alpha    Beta     Spin     Total
       1     O     4.28064  4.28064  0.00000 -0.56128
       2     C     2.61898  2.61898  0.00000  0.76204
       3     C     3.28207  3.28207  0.00000 -0.56413
       4     O     4.31002  4.31002  0.00000 -0.62003
       5     H     0.39967  0.39967  0.00000  0.20065
       6     H     0.39706  0.39706  0.00000  0.20589
       7     H     0.40205  0.40205  0.00000  0.19589
       8     C     3.00288  3.00288  0.00000 -0.00576
       9     C     3.16425  3.16425  0.00000 -0.32850
      10     H     0.40819  0.40819  0.00000  0.18361
      11     H     0.41177  0.41177  0.00000  0.17646
      12     C     3.15511  3.15511  0.00000 -0.31022
      13     H     0.41840  0.41840  0.00000  0.16319
      14     H     0.41531  0.41531  0.00000  0.16937
      15     C     3.24044  3.24044  0.00000 -0.48089
      16     H     0.42206  0.42206  0.00000  0.15588
      17     H     0.41114  0.41114  0.00000  0.17772
      18     H     0.41738  0.41738  0.00000  0.16525
      19     H     0.42178  0.42178  0.00000  0.15643
      20     H     0.42079  0.42079  0.00000  0.15842

   Total alpha = 32.00000, Total beta = 32.00000, Total charge =  0.00000
