  ==> Input File <==

--------------------------------------------------------------------------
set {
	reference rhf
	basis 6-31G*
}

set_num_threads( 1 )
memory 2 gb

molecule MOL {
0 1

H	 -4.083962	 0.658862	 -0.529593
O	 -3.517110	 -0.026191	 -0.205115
C	 -2.306886	 0.532354	 0.237577
C	 -1.177863	 -0.397191	 -0.171080
H	 -2.156308	 1.517575	 -0.201710
H	 -2.315015	 0.655684	 1.319734
C	 0.198102	 0.111031	 0.262842
H	 -1.208843	 -0.518759	 -1.250427
H	 -1.368741	 -1.376554	 0.258909
C	 1.331804	 -0.827780	 -0.158768
H	 0.361943	 1.100838	 -0.156218
H	 0.217265	 0.229072	 1.345532
C	 2.723619	 -0.410569	 0.329459
H	 1.342964	 -0.912588	 -1.244120
H	 1.116806	 -1.824343	 0.220779
C	 3.243875	 0.895854	 -0.272975
H	 3.424222	 -1.207124	 0.091250
H	 2.714788	 -0.329854	 1.414619
H	 3.251977	 0.848779	 -1.358681
H	 2.637085	 1.747371	 0.016682
H	 4.259473	 1.094070	 0.055697

	symmetry c1
}
set optking {
	frozen_dihedral = ("
		2 3 4 8,
		8 4 7 10,
		4 7 10 14,
		16 13 10 14
	")
}

ee = energy('scf')
oeprop('DIPOLE', 'QUADRUPOLE', 'MULLIKEN_CHARGES')
f=open( 'psi4out.xyz', 'w' )
f.write( "21  " )
f.write( str(ee) + "\n" )
f.write( MOL.save_string_xyz() )
f.close()
--------------------------------------------------------------------------

    Molecular point group: c1

    Geometry (in Angstrom), charge = 0, multiplicity = 1:

       Center              X                  Y                   Z               Mass
    ------------   -----------------  -----------------  -----------------  -----------------
           H         -4.085467393987     0.657670436565    -0.523973057546     1.007825032070
           O         -3.518615393987    -0.027382563435    -0.199495057546    15.994914619560
           C         -2.308391393987     0.531162436565     0.243196942454    12.000000000000
           C         -1.179368393987    -0.398382563435    -0.165460057546    12.000000000000
           H         -2.157813393987     1.516383436565    -0.196090057546     1.007825032070
           H         -2.316520393987     0.654492436565     1.325353942454     1.007825032070
           C          0.196596606013     0.109839436565     0.268461942454    12.000000000000
           H         -1.210348393987    -0.519950563435    -1.244807057546     1.007825032070
           H         -1.370246393987    -1.377745563435     0.264528942454     1.007825032070
           C          1.330298606013    -0.828971563435    -0.153148057546    12.000000000000
           H          0.360437606013     1.099646436565    -0.150598057546     1.007825032070
           H          0.215759606013     0.227880436565     1.351151942454     1.007825032070
           C          2.722113606013    -0.411760563435     0.335078942454    12.000000000000
           H          1.341458606013    -0.913779563435    -1.238500057546     1.007825032070
           H          1.115300606013    -1.825534563435     0.226398942454     1.007825032070
           C          3.242369606013     0.894662436565    -0.267355057546    12.000000000000
           H          3.422716606013    -1.208315563435     0.096869942454     1.007825032070
           H          2.713282606013    -0.331045563435     1.420238942454     1.007825032070
           H          3.250471606013     0.847587436565    -1.353061057546     1.007825032070
           H          2.635579606013     1.746179436565     0.022301942454     1.007825032070
           H          4.257967606013     1.092878436565     0.061316942454     1.007825032070

  Charge       = 0
  Multiplicity = 1
  Basis Set: 6-31G*
  Basis Set:

    Orbital Energies (a.u.)
    -----------------------

    Doubly Occupied:

       1A    -20.551367     2A    -11.267310     3A    -11.215156
       4A    -11.215036     5A    -11.213446     6A    -11.209475
       7A    -11.208350     8A     -1.358855     9A     -1.085991
      10A     -1.032924    11A     -0.954256    12A     -0.875857
      13A     -0.807884    14A     -0.778772    15A     -0.697831
      16A     -0.654926    17A     -0.623054    18A     -0.603308
      19A     -0.589188    20A     -0.570486    21A     -0.536032
      22A     -0.520975    23A     -0.510417    24A     -0.485613
      25A     -0.479498    26A     -0.461445    27A     -0.456550
      28A     -0.452772    29A     -0.423877

  @DF-RHF Final Energy:  -310.21121268904551

   => Energetics <=

    Nuclear Repulsion Energy =            312.5325168455702851
    One-Electron Energy =               -1039.8066239740508081
    Two-Electron Energy =                 417.0628944394348991
    DFT Exchange-Correlation Energy =       0.0000000000000000
    Empirical Dispersion Energy =           0.0000000000000000
    PCM Polarization Energy =               0.0000000000000000
    EFP Energy =                            0.0000000000000000
    Total Energy =                       -310.2112126890456238

  Mulliken Charges: (a.u.)
   Center  Symbol    Alpha    Beta     Spin     Total
       1     H     0.28016  0.28016  0.00000  0.43967
       2     O     4.37230  4.37230  0.00000 -0.74460
       3     C     2.99186  2.99186  0.00000  0.01628
       4     C     3.15653  3.15653  0.00000 -0.31307
       5     H     0.43366  0.43366  0.00000  0.13269
       6     H     0.42806  0.42806  0.00000  0.14388
       7     C     3.16255  3.16255  0.00000 -0.32511
       8     H     0.41826  0.41826  0.00000  0.16348
       9     H     0.41456  0.41456  0.00000  0.17088
      10     C     3.15156  3.15156  0.00000 -0.30312
      11     H     0.42268  0.42268  0.00000  0.15463
      12     H     0.42361  0.42361  0.00000  0.15278
      13     C     3.15245  3.15245  0.00000 -0.30491
      14     H     0.42351  0.42351  0.00000  0.15297
      15     H     0.42083  0.42083  0.00000  0.15834
      16     C     3.24113  3.24113  0.00000 -0.48227
      17     H     0.42071  0.42071  0.00000  0.15858
      18     H     0.42338  0.42338  0.00000  0.15324
      19     H     0.42225  0.42225  0.00000  0.15551
      20     H     0.42072  0.42072  0.00000  0.15855
      21     H     0.41920  0.41920  0.00000  0.16160

   Total alpha = 29.00000, Total beta = 29.00000, Total charge = -0.00000
