                              Psi4 1.0.54 Driver

  ==> Input File <==

--------------------------------------------------------------------------
set {
	reference rhf
	basis cc-pvtz
}

set_num_threads( 4 )
memory 2 gb

molecule MOL {
0 1

H	 2.614283	 2.028610	 0.296620
O	 3.358864	 1.662087	 -0.142800
C	 3.565468	 0.338079	 0.273842
C	 2.385170	 -0.578608	 -0.011236
H	 4.433640	 -0.010381	 -0.269143
H	 3.814458	 0.308002	 1.332874
C	 1.120235	 -0.234451	 0.771926
H	 2.175123	 -0.550194	 -1.076238
H	 2.688048	 -1.596156	 0.223839
C	 -0.032563	 -1.195420	 0.484814
H	 0.814480	 0.778480	 0.532164
H	 1.341002	 -0.250757	 1.837892
C	 -1.303054	 -0.942064	 1.298396
H	 -0.272047	 -1.158941	 -0.575160
H	 0.305518	 -2.208765	 0.683061
C	 -2.027103	 0.364092	 0.976756
H	 -1.988009	 -1.767853	 1.126822
H	 -1.060855	 -0.967284	 2.358518
C	 -3.338751	 0.523869	 1.741255
H	 -2.228494	 0.407930	 -0.091415
H	 -1.386195	 1.211537	 1.200539
C	 -4.062391	 1.828631	 1.425290
H	 -3.991569	 -0.314059	 1.512596
H	 -3.140399	 0.471815	 2.808499
H	 -4.303720	 1.896583	 0.369648
H	 -4.989242	 1.908801	 1.981732
H	 -3.449796	 2.687669	 1.678533

	symmetry c1
}
set optking {
	frozen_dihedral = ("
		4 3 2 1
	")
}

ee,wfn = optimize('scf', return_wfn=True)
oeprop( wfn, 'DIPOLE', 'QUADRUPOLE', 'MULLIKEN_CHARGES')
f=open( 'psi4out.xyz', 'w' )
f.write( "27  " )
f.write( str(ee) + "\n" )
f.write( MOL.save_string_xyz() )
f.close()
--------------------------------------------------------------------------

    Molecular point group: c1
  Charge       = 0
  Multiplicity = 1
  Basis Set: CC-PVTZ
  Basis Set:
  @DF-RHF Final Energy:  -388.42759573947831
    Total Energy =                       -388.4275957394785337
    Molecular point group: c1
  Basis Set: CC-PVTZ
  Basis Set:
  Basis Set: CC-PVTZ
  Basis Set:
  @DF-RHF Final Energy:  -388.42760077498548
    Total Energy =                       -388.4276007749855353
  Basis Set: CC-PVTZ
  Basis Set:
  Basis Set: CC-PVTZ
  Basis Set:
  @DF-RHF Final Energy:  -388.42761428562790
    Total Energy =                       -388.4276142856278966
  Basis Set: CC-PVTZ
  Basis Set:
  Charge       = 0
  Multiplicity = 1
  Basis Set: CC-PVTZ
  Basis Set:

    Orbital Energies (a.u.)
    -----------------------

    Doubly Occupied:

       1A    -20.544696     2A    -11.264615     3A    -11.219009
       4A    -11.216086     5A    -11.214927     6A    -11.214579
       7A    -11.214239     8A    -11.212838     9A    -11.207817
      10A     -1.362914    11A     -1.097443    12A     -1.063587
      13A     -1.013193    14A     -0.950178    15A     -0.889811
      16A     -0.822070    17A     -0.803239    18A     -0.779666
      19A     -0.691409    20A     -0.654404    21A     -0.642043
      22A     -0.615347    23A     -0.605282    24A     -0.584097
      25A     -0.580931    26A     -0.556488    27A     -0.541200
      28A     -0.533010    29A     -0.505632    30A     -0.497732
      31A     -0.486536    32A     -0.476230    33A     -0.469486
      34A     -0.462248    35A     -0.452126    36A     -0.441939
      37A     -0.427791

  @DF-RHF Final Energy:  -388.42761472328465

   => Energetics <=

    Nuclear Repulsion Energy =            460.1302555711350237
    One-Electron Energy =               -1438.4860581963998811
    Two-Electron Energy =                 589.9281879019799817
    DFT Exchange-Correlation Energy =       0.0000000000000000
    Empirical Dispersion Energy =           0.0000000000000000
    PCM Polarization Energy =               0.0000000000000000
    EFP Energy =                            0.0000000000000000
    Total Energy =                       -388.4276147232849326
    Molecular point group: c1
  Basis Set: CC-PVTZ
  Basis Set:

  -Total Gradient:
     Atom            X                  Y                   Z
    ------   -----------------  -----------------  -----------------
       1       -0.000575493582    -0.000297888118    -0.000707112036
       2        0.000597414378     0.000445974726     0.001088474833
       3        0.000215254563    -0.000310993536    -0.000917933988
       4       -0.000217661628     0.000124580533     0.000549968808
       5       -0.000026570850     0.000003688983    -0.000005724470
       6       -0.000002737100    -0.000009774725     0.000021938755
       7        0.000032071639     0.000009721251    -0.000004072342
       8       -0.000013130431    -0.000007996577    -0.000009510654
       9        0.000002646434     0.000021944884     0.000003725781
      10        0.000005173990    -0.000001655458    -0.000021651701
      11        0.000006623427     0.000001578327     0.000003348619
      12       -0.000003361285     0.000009685948    -0.000017284932
      13        0.000024304158     0.000015965898     0.000027937257
      14       -0.000004572297     0.000015683799     0.000005188475
      15       -0.000009096422    -0.000014306886    -0.000016772344
      16       -0.000015198033     0.000001215837    -0.000001858344
      17        0.000014756503    -0.000002761019     0.000004443734
      18        0.000002416017     0.000008228453     0.000001691163
      19        0.000000164864    -0.000003164549    -0.000005605127
      20        0.000000531701     0.000003336754    -0.000007250715
      21       -0.000034592359    -0.000013325841     0.000009672523
      22       -0.000000861975     0.000000401242     0.000000257491
      23       -0.000000405171     0.000001373452     0.000000998626
      24        0.000000103376     0.000000214987    -0.000003379972
      25        0.000000185736    -0.000000416151     0.000002083761
      26        0.000002450205    -0.000000522406    -0.000001623580
      27       -0.000000415861    -0.000000789809     0.000000050379

  **** Optimization is complete! (in 4 steps) ****
    Final optimized geometry and variables:
    Molecular point group: c1

    Geometry (in Angstrom), charge = 0, multiplicity = 1:

    H            2.637291548536     1.799064436540    -0.455365215693
    O            3.379963749369     1.422189627848    -0.889202022419
    C            3.563923005068     0.095616456488    -0.472560216270
    C            2.376739046301    -0.810035181680    -0.764669368804
    H            4.433725894537    -0.261515819739    -1.006694872881
    H            3.800816453682     0.062893912750     0.589586188937
    C            1.109914583178    -0.460005126000     0.013701776361
    H            2.171463623674    -0.781780744668    -1.830707805460
    H            2.670547766466    -1.829373256243    -0.527288495590
    C           -0.041135597109    -1.424536169541    -0.268855676058
    H            0.798845923120     0.550535344922    -0.231869003192
    H            1.329212738989    -0.467769831167     1.079592182252
    C           -1.309317960086    -1.175511077781     0.549622879004
    H           -0.284647305739    -1.389555629302    -1.327904294512
    H            0.301549564782    -2.436373234895    -0.071385906762
    C           -2.038951039048     0.128527070046     0.232108756453
    H           -1.992172148566    -2.003207097162     0.379472773549
    H           -1.063298099142    -1.201243288629     1.608757385793
    C           -3.350006571275     0.281381361601     0.998915075177
    H           -2.242225097355     0.174044068295    -0.835608630771
    H           -1.401308051165     0.978081396562     0.457205954664
    C           -4.078516449785     1.584628669813     0.688271851645
    H           -4.000198135999    -0.558027252612     0.768423907607
    H           -3.149893731568     0.226541705321     2.065617487087
    H           -4.322024314088     1.655008457120    -0.366677024994
    H           -5.004565465634     1.659951709759     1.246590667936
    H           -3.468395903268     2.444912842794     0.943100204304

  Mulliken Charges: (a.u.)
   Center  Symbol    Alpha    Beta     Spin     Total
       1     H     0.39216  0.39216  0.00000  0.21568
       2     O     4.20557  4.20557  0.00000 -0.41113
       3     C     2.97450  2.97450  0.00000  0.05101
       4     C     3.09474  3.09474  0.00000 -0.18947
       5     H     0.44960  0.44960  0.00000  0.10081
       6     H     0.47175  0.47175  0.00000  0.05650
       7     C     3.10010  3.10010  0.00000 -0.20020
       8     H     0.44972  0.44972  0.00000  0.10055
       9     H     0.45496  0.45496  0.00000  0.09008
      10     C     3.09896  3.09896  0.00000 -0.19793
      11     H     0.45894  0.45894  0.00000  0.08212
      12     H     0.45219  0.45219  0.00000  0.09561
      13     C     3.09798  3.09798  0.00000 -0.19596
      14     H     0.45151  0.45151  0.00000  0.09699
      15     H     0.44752  0.44752  0.00000  0.10496
      16     C     3.08821  3.08821  0.00000 -0.17642
      17     H     0.44780  0.44780  0.00000  0.10440
      18     H     0.45355  0.45355  0.00000  0.09289
      19     C     3.08407  3.08407  0.00000 -0.16814
      20     H     0.45410  0.45410  0.00000  0.09181
      21     H     0.45554  0.45554  0.00000  0.08892
      22     C     3.14962  3.14962  0.00000 -0.29925
      23     H     0.45365  0.45365  0.00000  0.09270
      24     H     0.45453  0.45453  0.00000  0.09094
      25     H     0.45487  0.45487  0.00000  0.09025
      26     H     0.44816  0.44816  0.00000  0.10368
      27     H     0.45570  0.45570  0.00000  0.08860

   Total alpha = 37.00000, Total beta = 37.00000, Total charge =  0.00000

*** Psi4 exiting successfully. Buy a developer a beer!
