  ==> Input File <==

--------------------------------------------------------------------------
set {
	reference rhf
	basis 6-31G*
}

set_num_threads( 4 )
memory 2 gb

molecule MOL {
0 1

H	 1.216287	 -2.302053	 -0.180215
C	 0.246775	 -1.832237	 -0.217304
O	 0.464886	 -0.454746	 -0.000158
H	 -0.384884	 -2.253176	 0.555899
H	 -0.199115	 -2.007552	 -1.189162
C	 -0.590998	 0.343045	 0.000118
O	 -1.699443	 -0.054298	 0.000227
H	 -0.340329	 1.404368	 0.000207

	symmetry c1
}
set optking {
	frozen_dihedral = ("
		2 3 6 7
	")
}

ee = optimize('scf')
oeprop('DIPOLE', 'QUADRUPOLE', 'MULLIKEN_CHARGES')
f=open( 'psi4out.xyz', 'w' )
f.write( "8  " )
f.write( str(ee) + "\n" )
f.write( MOL.save_string_xyz() )
f.close()
--------------------------------------------------------------------------

    Molecular point group: c1
  Charge       = 0
  Multiplicity = 1
  Basis Set: 6-31G*
  Basis Set:
  @DF-RHF Final Energy:  -227.78720295767732
    Total Energy =                       -227.7872029576772661
    Molecular point group: c1
  Basis Set: 6-31G*
  Basis Set:
  Basis Set: 6-31G*
  Basis Set:
  @DF-RHF Final Energy:  -227.78681386661509
    Total Energy =                       -227.7868138666150912
  Basis Set: 6-31G*
  Basis Set:
  Basis Set: 6-31G*
  Basis Set:
  @DF-RHF Final Energy:  -227.78543912413983
    Total Energy =                       -227.7854391241398844
  Basis Set: 6-31G*
  Basis Set:
  Basis Set: 6-31G*
  Basis Set:
  @DF-RHF Final Energy:  -227.78841030283286
    Total Energy =                       -227.7884103028328582
  Basis Set: 6-31G*
  Basis Set:
  Basis Set: 6-31G*
  Basis Set:
  @DF-RHF Final Energy:  -227.78843068107645
    Total Energy =                       -227.7884306810765338
  Basis Set: 6-31G*
  Basis Set:
  Charge       = 0
  Multiplicity = 1
  Basis Set: 6-31G*
  Basis Set:

    Orbital Energies (a.u.)
    -----------------------

    Doubly Occupied:

       1A    -20.616665     2A    -20.560031     3A    -11.380632
       4A    -11.289258     5A     -1.479372     6A     -1.376658
       7A     -0.997862     8A     -0.819338     9A     -0.744882
      10A     -0.681298    11A     -0.679936    12A     -0.600934
      13A     -0.557833    14A     -0.533354    15A     -0.465441
      16A     -0.458590

  @DF-RHF Final Energy:  -227.78843276547934

   => Energetics <=

    Nuclear Repulsion Energy =            123.7342513139530098
    One-Electron Energy =                -556.5611970450357830
    Two-Electron Energy =                 205.0385129656033882
    DFT Exchange-Correlation Energy =       0.0000000000000000
    Empirical Dispersion Energy =           0.0000000000000000
    PCM Polarization Energy =               0.0000000000000000
    EFP Energy =                            0.0000000000000000
    Total Energy =                       -227.7884327654793992
    Molecular point group: c1
  Basis Set: 6-31G*
  Basis Set:

  -Total Gradient:
     Atom            X                  Y                   Z
    ------   -----------------  -----------------  -----------------
       1       -0.000001418967    -0.000039186734    -0.000011521090
       2        0.000476480692     0.000548478318    -0.002826737563
       3       -0.000609281580    -0.000789063588     0.006242883606
       4       -0.000008892336    -0.000030646738    -0.000010055599
       5       -0.000004995043    -0.000012926018    -0.000001150647
       6        0.000166846678     0.000295458497    -0.007177260533
       7       -0.000029313683     0.000035549750     0.003823625606
       8        0.000010574237    -0.000007663488    -0.000039783782

  **** Optimization is complete! (in 6 steps) ****
    Final optimized geometry and variables:
    Molecular point group: c1

    Geometry (in Angstrom), charge = 0, multiplicity = 1:

    H            1.633049153610    -1.766533293210    -0.138029497596
    C            0.653519481074    -1.315928909398    -0.141871031440
    O            0.862660347829     0.069552251532     0.083093718070
    H            0.042033421627    -1.739817498432     0.641239022174
    H            0.171889481013    -1.471913941485    -1.096531995949
    C           -0.200821588962     0.846174523377     0.050540642520
    O           -1.324806492658     0.477581611519     0.017115184289
    H            0.097426386530     1.888138279001     0.090389765622

  Mulliken Charges: (a.u.)
   Center  Symbol    Alpha    Beta     Spin     Total
       1     H     0.40581  0.40581  0.00000  0.18839
       2     C     3.09587  3.09587  0.00000 -0.19174
       3     O     4.28473  4.28473  0.00000 -0.56946
       4     H     0.40554  0.40554  0.00000  0.18892
       5     H     0.40806  0.40806  0.00000  0.18388
       6     C     2.72917  2.72917  0.00000  0.54166
       7     O     4.26105  4.26105  0.00000 -0.52210
       8     H     0.40978  0.40978  0.00000  0.18044

   Total alpha = 16.00000, Total beta = 16.00000, Total charge =  0.00000
