                              Psi4 1.0.54 Driver

  ==> Input File <==

--------------------------------------------------------------------------
set {
	reference rhf
	basis cc-pvtz
}

set_num_threads( 4 )
memory 2 gb

molecule MOL {
0 1

H	 -3.294565	 0.569785	 0.000000
C	 -2.246225	 0.343737	 0.000000
C	 -1.809462	 -0.973484	 0.000000
C	 -1.312577	 1.353775	 0.000000
H	 -2.523539	 -1.775124	 0.000000
C	 -0.467257	 -1.267606	 0.000000
H	 -1.631287	 2.379013	 0.000000
C	 0.046966	 1.074396	 0.000000
H	 -0.119372	 -2.281828	 0.000000
C	 0.471772	 -0.241514	 0.000000
H	 0.748162	 1.882966	 0.000000
O	 1.760432	 -0.625184	 0.000000
C	 2.206709	 -1.569059	 -0.926335
H	 1.692957	 -2.516533	 -0.807760
H	 3.258034	 -1.712525	 -0.732682
H	 2.079491	 -1.218256	 -1.944402

	symmetry c1
}
set optking {
	frozen_dihedral = ("
		13 12 10 8
	")
}

ee,wfn = optimize('scf', return_wfn=True)
oeprop( wfn, 'DIPOLE', 'QUADRUPOLE', 'MULLIKEN_CHARGES')
f=open( 'psi4out.xyz', 'w' )
f.write( "16  " )
f.write( str(ee) + "\n" )
f.write( MOL.save_string_xyz() )
f.close()
--------------------------------------------------------------------------

    Molecular point group: c1
  Charge       = 0
  Multiplicity = 1
  Basis Set: CC-PVTZ
  Basis Set:
  @DF-RHF Final Energy:  -344.69619778230714
    Total Energy =                       -344.6961977823069674
    Molecular point group: c1
  Basis Set: CC-PVTZ
  Basis Set:
  Basis Set: CC-PVTZ
  Basis Set:
  @DF-RHF Final Energy:  -344.69915878206263
    Total Energy =                       -344.6991587820626819
  Basis Set: CC-PVTZ
  Basis Set:
  Basis Set: CC-PVTZ
  Basis Set:
  @DF-RHF Final Energy:  -344.70100707047561
    Total Energy =                       -344.7010070704753844
  Basis Set: CC-PVTZ
  Basis Set:
  Basis Set: CC-PVTZ
  Basis Set:
  @DF-RHF Final Energy:  -344.70113689312802
    Total Energy =                       -344.7011368931281368
  Basis Set: CC-PVTZ
  Basis Set:
  Basis Set: CC-PVTZ
  Basis Set:
  @DF-RHF Final Energy:  -344.70116451666775
    Total Energy =                       -344.7011645166675180
  Basis Set: CC-PVTZ
  Basis Set:
  Charge       = 0
  Multiplicity = 1
  Basis Set: CC-PVTZ
  Basis Set:

    Orbital Energies (a.u.)
    -----------------------

    Doubly Occupied:

       1A    -20.570982     2A    -11.288645     3A    -11.275690
       4A    -11.232102     5A    -11.230902     6A    -11.224157
       7A    -11.221389     8A    -11.220754     9A     -1.409390
      10A     -1.152283    11A     -1.022927    12A     -1.018119
      13A     -0.938830    14A     -0.837198    15A     -0.809617
      16A     -0.720986    17A     -0.669326    18A     -0.666903
      19A     -0.648043    20A     -0.617243    21A     -0.595667
      22A     -0.585219    23A     -0.532003    24A     -0.514624
      25A     -0.508999    26A     -0.486414    27A     -0.449484
      28A     -0.340113    29A     -0.319074

  @DF-RHF Final Energy:  -344.70116791176122

   => Energetics <=

    Nuclear Repulsion Energy =            348.6545004866426325
    One-Electron Energy =               -1158.4971715888996187
    Two-Electron Energy =                 465.1415031904958823
    DFT Exchange-Correlation Energy =       0.0000000000000000
    Empirical Dispersion Energy =           0.0000000000000000
    PCM Polarization Energy =               0.0000000000000000
    EFP Energy =                            0.0000000000000000
    Total Energy =                       -344.7011679117611038
    Molecular point group: c1
  Basis Set: CC-PVTZ
  Basis Set:

  -Total Gradient:
     Atom            X                  Y                   Z
    ------   -----------------  -----------------  -----------------
       1       -0.000024735657    -0.000045901550     0.000009931326
       2        0.000076716900     0.000181327713     0.000047571789
       3        0.000093030399    -0.000140784231    -0.000072125798
       4       -0.000136970201    -0.000075991931    -0.000048479386
       5       -0.000045196040     0.000006143366     0.000014654600
       6       -0.000100918459    -0.000084870761     0.000005096301
       7        0.000031485834     0.000003303148     0.000006426899
       8        0.000051540053    -0.000176560755    -0.000910122461
       9       -0.000007941859    -0.000003673815     0.000001513101
      10        0.000009424768     0.000680038049     0.001077539329
      11        0.000049762147     0.000007823381     0.000009375775
      12       -0.000068665356    -0.001068676109     0.000454000207
      13        0.000097499637     0.000753538341    -0.000691682489
      14       -0.000015724012     0.000022068517     0.000032091519
      15       -0.000064187657    -0.000008546816    -0.000014197413
      16        0.000054879507    -0.000049236549     0.000078406701

  **** Optimization is complete! (in 6 steps) ****
    Final optimized geometry and variables:
    Molecular point group: c1

    Geometry (in Angstrom), charge = 0, multiplicity = 1:

    H           -3.191193664917     0.927980807002     0.261715801382
    C           -2.153176415452     0.661475046585     0.215042838286
    C           -1.770049175326    -0.664010402847     0.275731436468
    C           -1.183709878205     1.640018721378     0.095964068110
    H           -2.512900125378    -1.432831216813     0.373676151200
    C           -0.434284639509    -1.016393294877     0.220679624498
    H           -1.467259543601     2.674232672902     0.047635106772
    C            0.152391821005     1.298837802135     0.031519929732
    H           -0.148795828532    -2.047620735184     0.284712063588
    C            0.529718480776    -0.030675318101     0.097364943836
    H            0.913686115128     2.048331010388    -0.061457083518
    O            1.854983086381    -0.308746945605     0.070532281012
    C            2.308350892534    -1.276013985961    -0.836401907209
    H            2.011573056600    -2.276125402351    -0.544389507495
    H            3.386193132103    -1.221204363681    -0.834795415850
    H            1.940218554183    -1.074451268496    -1.835998902910

  Mulliken Charges: (a.u.)
   Center  Symbol    Alpha    Beta     Spin     Total
       1     H     0.42386  0.42386  0.00000  0.15228
       2     C     3.09266  3.09266  0.00000 -0.18533
       3     C     3.06464  3.06464  0.00000 -0.12927
       4     C     3.06304  3.06304  0.00000 -0.12609
       5     H     0.42251  0.42251  0.00000  0.15498
       6     C     3.11870  3.11870  0.00000 -0.23740
       7     H     0.42239  0.42239  0.00000  0.15522
       8     C     3.11243  3.11243  0.00000 -0.22485
       9     H     0.42342  0.42342  0.00000  0.15316
      10     C     2.85897  2.85897  0.00000  0.28206
      11     H     0.41820  0.41820  0.00000  0.16360
      12     O     4.16968  4.16968  0.00000 -0.33937
      13     C     3.04027  3.04027  0.00000 -0.08053
      14     H     0.46325  0.46325  0.00000  0.07351
      15     H     0.44289  0.44289  0.00000  0.11422
      16     H     0.46310  0.46310  0.00000  0.07380

   Total alpha = 29.00000, Total beta = 29.00000, Total charge = -0.00000

*** Psi4 exiting successfully. Buy a developer a beer!
