  ==> Input File <==

--------------------------------------------------------------------------
set {
	reference rhf
	basis cc-pvtz
}

set_num_threads( 4 )
memory 2 gb

molecule MOL {
0 1

H	 -1.835082	 1.385983	 0.000069
C	 -1.300516	 0.441153	 -0.000028
O	 -0.006604	 0.654344	 -0.000106
O	 -1.828920	 -0.612308	 0.000113
C	 0.852093	 -0.482521	 -0.000161
C	 1.104339	 -0.869906	 1.437548
H	 1.769317	 -0.227363	 -0.511584
H	 0.374832	 -1.280676	 -0.550736
H	 1.578769	 -0.060307	 1.977396
H	 1.756374	 -1.734465	 1.472802
H	 0.177267	 -1.118891	 1.938060

	symmetry c1
}
set optking {
	frozen_dihedral = ("
		7 5 3 2
	")
}

ee = optimize('scf')
oeprop('DIPOLE', 'QUADRUPOLE', 'MULLIKEN_CHARGES')
f=open( 'psi4out.xyz', 'w' )
f.write( "11  " )
f.write( str(ee) + "\n" )
f.write( MOL.save_string_xyz() )
f.close()
--------------------------------------------------------------------------

    Molecular point group: c1
  Charge       = 0
  Multiplicity = 1
  Basis Set: CC-PVTZ
  Basis Set:
  @DF-RHF Final Energy:  -266.92950254551897
    Total Energy =                       -266.9295025455188011
    Molecular point group: c1
  Basis Set: CC-PVTZ
  Basis Set:
  Basis Set: CC-PVTZ
  Basis Set:
  @DF-RHF Final Energy:  -266.93035135274943
    Total Energy =                       -266.9303513527494260
  Basis Set: CC-PVTZ
  Basis Set:
  Basis Set: CC-PVTZ
  Basis Set:
  @DF-RHF Final Energy:  -266.93025232289938
    Total Energy =                       -266.9302523228994346
  Basis Set: CC-PVTZ
  Basis Set:
  Basis Set: CC-PVTZ
  Basis Set:
  @DF-RHF Final Energy:  -266.93081397407707
    Total Energy =                       -266.9308139740768411
  Basis Set: CC-PVTZ
  Basis Set:
  Basis Set: CC-PVTZ
  Basis Set:
  @DF-RHF Final Energy:  -266.93083113693376
    Total Energy =                       -266.9308311369336479
  Basis Set: CC-PVTZ
  Basis Set:
  Charge       = 0
  Multiplicity = 1
  Basis Set: CC-PVTZ
  Basis Set:

    Orbital Energies (a.u.)
    -----------------------

    Doubly Occupied:

       1A    -20.605016     2A    -20.545453     3A    -11.371065
       4A    -11.289497     5A    -11.222389     6A     -1.478269
       7A     -1.377434     8A     -1.050053     9A     -0.912398
      10A     -0.797489    11A     -0.748575    12A     -0.687818
      13A     -0.657547    14A     -0.624926    15A     -0.576469
      16A     -0.542668    17A     -0.540128    18A     -0.501748
      19A     -0.461874    20A     -0.457189

  @DF-RHF Final Energy:  -266.93083260531853

   => Energetics <=

    Nuclear Repulsion Energy =            182.0229752199593634
    One-Electron Energy =                -725.0116093308470226
    Two-Electron Energy =                 276.0578015055690457
    DFT Exchange-Correlation Energy =       0.0000000000000000
    Empirical Dispersion Energy =           0.0000000000000000
    PCM Polarization Energy =               0.0000000000000000
    EFP Energy =                            0.0000000000000000
    Total Energy =                       -266.9308326053186420
    Molecular point group: c1
  Basis Set: CC-PVTZ
  Basis Set:

  -Total Gradient:
     Atom            X                  Y                   Z
    ------   -----------------  -----------------  -----------------
       1        0.000025709688    -0.000012964182    -0.000016792798
       2        0.000015218807    -0.000068996964    -0.000505987095
       3       -0.000039739625     0.000073349637     0.000713103159
       4       -0.000046155917    -0.000001829617    -0.000005708814
       5        0.000338208228     0.000164117511     0.000366204225
       6       -0.000057512875     0.000032348039    -0.000033083945
       7       -0.000238612349    -0.000192044672    -0.000525414837
       8        0.000008160047     0.000001077606     0.000019482728
       9        0.000001621707    -0.000000963688    -0.000000158248
      10       -0.000005137134     0.000009871124    -0.000018015293
      11       -0.000001760577    -0.000003964795     0.000006370916

  **** Optimization is complete! (in 6 steps) ****
    Final optimized geometry and variables:
    Molecular point group: c1

    Geometry (in Angstrom), charge = 0, multiplicity = 1:

    H           -1.574642476225     1.598660921562    -0.374111884532
    C           -1.067307216439     0.640383698715    -0.322044935983
    O            0.231628609439     0.823029281863    -0.310330376509
    O           -1.628634494046    -0.395516614198    -0.284137528072
    C            1.085593070792    -0.318710019654    -0.264892710437
    C            1.387416795801    -0.721475354848     1.162626859327
    H            1.981205077469    -0.013620506641    -0.784243586775
    H            0.623740124701    -1.127128410622    -0.809260405367
    H            1.830999997508     0.102347344040     1.707896027934
    H            2.086168951266    -1.550134252513     1.166336425549
    H            0.486564860585    -1.034691308933     1.673387630489

  Mulliken Charges: (a.u.)
   Center  Symbol    Alpha    Beta     Spin     Total
       1     H     0.44697  0.44697  0.00000  0.10606
       2     C     2.84201  2.84201  0.00000  0.31598
       3     O     4.14929  4.14929  0.00000 -0.29859
       4     O     4.19728  4.19728  0.00000 -0.39456
       5     C     2.98133  2.98133  0.00000  0.03735
       6     C     3.14380  3.14380  0.00000 -0.28760
       7     H     0.44443  0.44443  0.00000  0.11114
       8     H     0.44824  0.44824  0.00000  0.10352
       9     H     0.45116  0.45116  0.00000  0.09769
      10     H     0.45165  0.45165  0.00000  0.09670
      11     H     0.44385  0.44385  0.00000  0.11231

   Total alpha = 20.00000, Total beta = 20.00000, Total charge =  0.00000
