  ==> Input File <==

--------------------------------------------------------------------------
set {
	reference rhf
	basis 6-31G*
}

set_num_threads( 4 )
memory 2 gb

molecule MOL {
0 1

H	 -0.216825	 0.021369	 -3.357402
C	 0.374198	 0.036393	 -2.447010
C	 -0.521757	 -0.028637	 -1.217342
H	 0.969602	 0.942322	 -2.434777
H	 1.053364	 -0.811668	 -2.481329
N	 0.263400	 0.031178	 0.000000
H	 -1.199035	 0.820290	 -1.219355
H	 -1.147901	 -0.924895	 -1.265384
C	 -0.521757	 -0.028637	 1.217342
H	 0.935769	 -0.712709	 0.000000
C	 0.340097	 -0.446381	 2.401295
H	 -0.929914	 0.961053	 1.399848
H	 -1.377286	 -0.705227	 1.128230
H	 1.168449	 0.241365	 2.528587
H	 -0.242327	 -0.462056	 3.317201
H	 0.749850	 -1.442487	 2.254574

	symmetry c1
}
set optking {
	frozen_dihedral = ("
		12 9 6 3
	")
}

ee = optimize('scf')
oeprop('DIPOLE', 'QUADRUPOLE', 'MULLIKEN_CHARGES')
f=open( 'psi4out.xyz', 'w' )
f.write( "16  " )
f.write( str(ee) + "\n" )
f.write( MOL.save_string_xyz() )
f.close()
--------------------------------------------------------------------------

    Molecular point group: c1
  Charge       = 0
  Multiplicity = 1
  Basis Set: 6-31G*
  Basis Set:
  @DF-RHF Final Energy:  -212.31259840613129
    Total Energy =                       -212.3125984061312010
    Molecular point group: c1
  Basis Set: 6-31G*
  Basis Set:
  Basis Set: 6-31G*
  Basis Set:
  @DF-RHF Final Energy:  -212.31271581488616
    Total Energy =                       -212.3127158148860758
  Basis Set: 6-31G*
  Basis Set:
  Basis Set: 6-31G*
  Basis Set:
  @DF-RHF Final Energy:  -212.31273151770657
    Total Energy =                       -212.3127315177067089
  Basis Set: 6-31G*
  Basis Set:
  Charge       = 0
  Multiplicity = 1
  Basis Set: 6-31G*
  Basis Set:

    Orbital Energies (a.u.)
    -----------------------

    Doubly Occupied:

       1A    -15.534066     2A    -11.240441     3A    -11.240329
       4A    -11.211141     5A    -11.207900     6A     -1.205277
       7A     -1.028751     8A     -0.962982     9A     -0.832737
      10A     -0.821881    11A     -0.657809    12A     -0.628264
      13A     -0.605213    14A     -0.588310    15A     -0.552779
      16A     -0.521379    17A     -0.508232    18A     -0.488641
      19A     -0.484295    20A     -0.471949    21A     -0.360928

  @DF-RHF Final Energy:  -212.31273222220909

   => Energetics <=

    Nuclear Repulsion Energy =            189.2557992279786276
    One-Electron Energy =                -660.8304544626589632
    Two-Electron Energy =                 259.2619230124711862
    DFT Exchange-Correlation Energy =       0.0000000000000000
    Empirical Dispersion Energy =           0.0000000000000000
    PCM Polarization Energy =               0.0000000000000000
    EFP Energy =                            0.0000000000000000
    Total Energy =                       -212.3127322222091493
    Molecular point group: c1
  Basis Set: 6-31G*
  Basis Set:

  -Total Gradient:
     Atom            X                  Y                   Z
    ------   -----------------  -----------------  -----------------
       1        0.000000791461     0.000001836616    -0.000002110825
       2       -0.000001760221     0.000005252345    -0.000014129365
       3        0.000252569912    -0.002710288085     0.000056819966
       4        0.000002772542    -0.000003363890    -0.000003713885
       5        0.000002831566     0.000000057265    -0.000003315299
       6        0.000334820684     0.004038402650     0.000445914281
       7       -0.000010387304     0.000001418311    -0.000009099548
       8       -0.000026805569    -0.000009222283    -0.000011887308
       9       -0.003436897808    -0.002138316199    -0.002418261920
      10        0.000001673487     0.000010573183     0.000006178772
      11        0.000000761361    -0.000004189355     0.000014717125
      12        0.002872190346     0.000779045267     0.001875609207
      13       -0.000011024174     0.000012585382     0.000024010702
      14        0.000013989356     0.000002514928     0.000014141999
      15        0.000001749339     0.000006405409     0.000018473565
      16        0.000002725024     0.000007288457     0.000006652534

  **** Optimization is complete! (in 4 steps) ****
    Final optimized geometry and variables:
    Molecular point group: c1

    Geometry (in Angstrom), charge = 0, multiplicity = 1:

    H           -0.208967803112     0.133829707295    -3.350191793920
    C            0.382082030858     0.147379780641    -2.439730733908
    C           -0.512958548050     0.070534026128    -1.210255777857
    H            0.972483536482     1.056389566114    -2.423006411256
    H            1.066287638654    -0.696541804951    -2.478496336598
    N            0.272521434721     0.119094125525     0.008280938341
    H           -1.192404339657     0.918138703335    -1.205433446674
    H           -1.137726827351    -0.826012489815    -1.262773085612
    C           -0.518333530238     0.062492480178     1.225583839423
    H            0.921724036579    -0.645078638920     0.002151287661
    C            0.345520789432    -0.339190831067     2.415537061319
    H           -0.921408003043     1.052940679305     1.416885124149
    H           -1.363355518087    -0.624807599747     1.139527146122
    H            1.185644669208     0.338955511046     2.520859444928
    H           -0.229873643581    -0.316326299957     3.335314455989
    H            0.737063952329    -1.346285332576     2.295666668989

  Mulliken Charges: (a.u.)
   Center  Symbol    Alpha    Beta     Spin     Total
       1     H     0.42045  0.42045  0.00000  0.15911
       2     C     3.24154  3.24154  0.00000 -0.48308
       3     C     3.05506  3.05506  0.00000 -0.11012
       4     H     0.41188  0.41188  0.00000  0.17625
       5     H     0.42499  0.42499  0.00000  0.15002
       6     N     3.84925  3.84925  0.00000 -0.69850
       7     H     0.42038  0.42038  0.00000  0.15924
       8     H     0.43479  0.43479  0.00000  0.13042
       9     C     3.04832  3.04832  0.00000 -0.09665
      10     H     0.33566  0.33566  0.00000  0.32868
      11     C     3.24962  3.24962  0.00000 -0.49924
      12     H     0.41972  0.41972  0.00000  0.16055
      13     H     0.43403  0.43403  0.00000  0.13194
      14     H     0.41197  0.41197  0.00000  0.17605
      15     H     0.41788  0.41788  0.00000  0.16424
      16     H     0.42445  0.42445  0.00000  0.15109

   Total alpha = 21.00000, Total beta = 21.00000, Total charge =  0.00000
