  ==> Input File <==

--------------------------------------------------------------------------
set {
	reference rhf
	basis 6-31G*
}

set_num_threads( 4 )
memory 2 gb

molecule MOL {
0 1

O	 3.868546	 -0.296523	 0.398838
C	 2.843464	 0.164689	 -0.000222
C	 1.546494	 -0.624492	 -0.000609
C	 2.770813	 1.579669	 -0.536607
C	 0.291004	 0.242674	 0.000989
H	 1.557904	 -1.283758	 -0.867573
H	 1.558622	 -1.285963	 0.864672
C	 -0.994322	 -0.586602	 0.000262
H	 0.309117	 0.896430	 -0.865270
H	 0.309661	 0.894078	 0.869017
C	 -2.259874	 0.272531	 0.000494
H	 -1.004862	 -1.240012	 -0.870939
H	 -1.005220	 -1.241071	 0.870675
C	 -3.549786	 -0.549746	 -0.000374
H	 -2.250389	 0.926680	 -0.869574
H	 -2.250838	 0.925513	 0.871430
C	 -4.809590	 0.315458	 -0.000369
H	 -3.560515	 -1.202009	 -0.871156
H	 -3.561123	 -1.202955	 0.869711
H	 -4.844746	 0.956611	 -0.876632
H	 -5.706986	 -0.295590	 -0.001609
H	 -4.845960	 0.954827	 0.877144
H	 2.062140	 2.167460	 0.039503
H	 3.747700	 2.039963	 -0.485060
H	 2.425272	 1.577023	 -1.566281

	symmetry c1
}
set optking {
	frozen_dihedral = ("
		1 2 3 6
	")
}

ee = optimize('scf')
oeprop('DIPOLE', 'QUADRUPOLE', 'MULLIKEN_CHARGES')
f=open( 'psi4out.xyz', 'w' )
f.write( "25  " )
f.write( str(ee) + "\n" )
f.write( MOL.save_string_xyz() )
f.close()
--------------------------------------------------------------------------

    Molecular point group: c1
  Charge       = 0
  Multiplicity = 1
  Basis Set: 6-31G*
  Basis Set:
  @DF-RHF Final Energy:  -387.13074724520823
    Total Energy =                       -387.1307472452087950
    Molecular point group: c1
  Basis Set: 6-31G*
  Basis Set:
  Basis Set: 6-31G*
  Basis Set:
  @DF-RHF Final Energy:  -387.13150557804369
    Total Energy =                       -387.1315055780438570
  Basis Set: 6-31G*
  Basis Set:
  Basis Set: 6-31G*
  Basis Set:
  @DF-RHF Final Energy:  -387.13256078429305
    Total Energy =                       -387.1325607842929912
  Basis Set: 6-31G*
  Basis Set:
  Basis Set: 6-31G*
  Basis Set:
  @DF-RHF Final Energy:  -387.13276666873361
    Total Energy =                       -387.1327666687342344
  Basis Set: 6-31G*
  Basis Set:
  Basis Set: 6-31G*
  Basis Set:
  @DF-RHF Final Energy:  -387.13269769347647
    Total Energy =                       -387.1326976934763024
  Basis Set: 6-31G*
  Basis Set:
  Basis Set: 6-31G*
  Basis Set:
  @DF-RHF Final Energy:  -387.13281383708079
    Total Energy =                       -387.1328138370812439
  Basis Set: 6-31G*
  Basis Set:
  Basis Set: 6-31G*
  Basis Set:
  @DF-RHF Final Energy:  -387.13281529058128
    Total Energy =                       -387.1328152905812203
  Basis Set: 6-31G*
  Basis Set:
  Charge       = 0
  Multiplicity = 1
  Basis Set: 6-31G*
  Basis Set:

    Orbital Energies (a.u.)
    -----------------------

    Doubly Occupied:

       1A    -20.545781     2A    -11.325296     3A    -11.231283
       4A    -11.230226     5A    -11.227347     6A    -11.224254
       7A    -11.220741     8A    -11.220036     9A    -11.212654
      10A     -1.392378    11A     -1.101600    12A     -1.060804
      13A     -1.010052    14A     -0.971498    15A     -0.898464
      16A     -0.822123    17A     -0.797576    18A     -0.730961
      19A     -0.668305    20A     -0.648081    21A     -0.635494
      22A     -0.622579    23A     -0.598469    24A     -0.589757
      25A     -0.563522    26A     -0.560242    27A     -0.546536
      28A     -0.531446    29A     -0.521477    30A     -0.497405
      31A     -0.489905    32A     -0.472633    33A     -0.469589
      34A     -0.468733    35A     -0.459483    36A     -0.395542

  @DF-RHF Final Energy:  -387.13281560388361

   => Energetics <=

    Nuclear Repulsion Energy =            438.5316069743440721
    One-Electron Energy =               -1393.4043055346469373
    Two-Electron Energy =                 567.7398829564184553
    DFT Exchange-Correlation Energy =       0.0000000000000000
    Empirical Dispersion Energy =           0.0000000000000000
    PCM Polarization Energy =               0.0000000000000000
    EFP Energy =                            0.0000000000000000
    Total Energy =                       -387.1328156038844099
    Molecular point group: c1
  Basis Set: 6-31G*
  Basis Set:

  -Total Gradient:
     Atom            X                  Y                   Z
    ------   -----------------  -----------------  -----------------
       1        0.000318173482    -0.000513803594    -0.001435997952
       2       -0.000319810412     0.000499637243     0.002149077505
       3       -0.000600984330     0.001139100595    -0.001544821364
       4        0.000002324962     0.000005351935     0.000020906325
       5       -0.000008557009     0.000006935048    -0.000007544653
       6        0.000593756956    -0.001130354650     0.000834115295
       7        0.000005177532     0.000010693626     0.000001339383
       8       -0.000000023419    -0.000001653205     0.000009121283
       9        0.000009545163     0.000001054734     0.000000010089
      10       -0.000003562370    -0.000005317817    -0.000002866382
      11       -0.000000963228    -0.000000564705     0.000001818008
      12       -0.000002752663     0.000007779338    -0.000001314540
      13        0.000002156672    -0.000009418668    -0.000000791814
      14       -0.000001773562     0.000000360402    -0.000003277052
      15       -0.000002700254     0.000000995317    -0.000001301572
      16        0.000002140172    -0.000000408595    -0.000000792307
      17        0.000001161552    -0.000000097410    -0.000000490112
      18       -0.000001111482    -0.000002082321    -0.000000500971
      19        0.000001116329     0.000001738621     0.000000306987
      20        0.000000074003     0.000000306259    -0.000000010654
      21        0.000000940016    -0.000000308918    -0.000000140450
      22       -0.000000196774     0.000000154591     0.000000656572
      23       -0.000001324441    -0.000008103407    -0.000008068590
      24        0.000003047978     0.000001358825    -0.000002709733
      25        0.000004145125    -0.000003353244    -0.000006723300

  **** Optimization is complete! (in 8 steps) ****
    Final optimized geometry and variables:
    Molecular point group: c1

    Geometry (in Angstrom), charge = 0, multiplicity = 1:

    O            3.874049662965    -0.445571888546     0.444123693176
    C            2.902467911162     0.110040762470     0.029568195916
    C            1.566663298285    -0.620535742195    -0.000167593753
    C            2.990237568320     1.513552208955    -0.530792877425
    C            0.296598953789     0.232918192686     0.001019275454
    H            1.590398780317    -1.255886101489    -0.884816184157
    H            1.571661637336    -1.297723132874     0.847130243977
    C           -0.972769383977    -0.621606729352     0.007533236215
    H            0.280589391196     0.885216608340    -0.868124067467
    H            0.292982892105     0.882254131639     0.874125020396
    C           -2.256801339290     0.209425490520     0.012976982144
    H           -0.969645494965    -1.274895405553    -0.863203682571
    H           -0.961766808768    -1.274343314179     0.878148245089
    C           -3.527375730999    -0.642512088170     0.020115836372
    H           -2.267797090517     0.862160018315    -0.858435018782
    H           -2.258921071817     0.863530317672     0.883318769001
    C           -4.806547100090     0.193647110010     0.025724044045
    H           -3.527373155683    -1.296022299014    -0.849622605908
    H           -3.518568884551    -1.294199660186     0.891104420565
    H           -4.861810962126     0.831935574224    -0.851626753312
    H           -5.689200386077    -0.438202750261     0.030737029927
    H           -4.852978223015     0.833497699569     0.902413111210
    H            2.378789820978     2.199317917681     0.046979169245
    H            4.020059534218     1.840972696578    -0.505393005695
    H            2.625158222370     1.539719102764    -1.553463667457

  Mulliken Charges: (a.u.)
   Center  Symbol    Alpha    Beta     Spin     Total
       1     O     4.26355  4.26355  0.00000 -0.52710
       2     C     2.73330  2.73330  0.00000  0.53340
       3     C     3.20688  3.20688  0.00000 -0.41376
       4     C     3.29209  3.29209  0.00000 -0.58417
       5     C     3.16250  3.16250  0.00000 -0.32499
       6     H     0.40409  0.40409  0.00000  0.19182
       7     H     0.39902  0.39902  0.00000  0.20197
       8     C     3.15256  3.15256  0.00000 -0.30512
       9     H     0.41940  0.41940  0.00000  0.16120
      10     H     0.41865  0.41865  0.00000  0.16270
      11     C     3.15106  3.15106  0.00000 -0.30212
      12     H     0.42172  0.42172  0.00000  0.15656
      13     H     0.42005  0.42005  0.00000  0.15990
      14     C     3.15195  3.15195  0.00000 -0.30389
      15     H     0.42370  0.42370  0.00000  0.15261
      16     H     0.42304  0.42304  0.00000  0.15392
      17     C     3.23960  3.23960  0.00000 -0.47919
      18     H     0.42243  0.42243  0.00000  0.15515
      19     H     0.42200  0.42200  0.00000  0.15600
      20     H     0.42161  0.42161  0.00000  0.15679
      21     H     0.41830  0.41830  0.00000  0.16340
      22     H     0.42134  0.42134  0.00000  0.15731
      23     H     0.40645  0.40645  0.00000  0.18711
      24     H     0.39571  0.39571  0.00000  0.20858
      25     H     0.40903  0.40903  0.00000  0.18194

   Total alpha = 36.00000, Total beta = 36.00000, Total charge =  0.00000
