  ==> Input File <==

--------------------------------------------------------------------------
set {
	reference rhf
	basis 6-31G*
}

set_num_threads( 1 )
memory 2 gb

molecule MOL {
0 1

H	 -2.646374	 -0.642757	 1.268656
C	 -2.083525	 -0.384536	 0.393091
O	 -0.807605	 -0.127164	 0.768327
F	 -2.118945	 -1.383102	 -0.486752
F	 -2.621877	 0.670592	 -0.209486
C	 -0.305413	 1.137617	 0.521708
C	 1.073738	 0.955308	 -0.098668
Cl	 -0.196518	 2.076708	 2.019528
H	 -0.915983	 1.693338	 -0.168328
F	 1.611736	 2.124331	 -0.374500
F	 0.946220	 0.286915	 -1.227574
F	 1.885968	 0.291594	 0.687297

	symmetry c1
}
set optking {
	frozen_dihedral = ("
		10 7 6 9,
		9 6 3 2
	")
}

ee = energy('scf')
oeprop('DIPOLE', 'QUADRUPOLE', 'MULLIKEN_CHARGES')
f=open( 'psi4out.xyz', 'w' )
f.write( "12  " )
f.write( str(ee) + "\n" )
f.write( MOL.save_string_xyz() )
f.close()
--------------------------------------------------------------------------

    Molecular point group: c1

    Geometry (in Angstrom), charge = 0, multiplicity = 1:

       Center              X                  Y                   Z               Mass
    ------------   -----------------  -----------------  -----------------  -----------------
           H         -2.402842699287    -1.349163848332     0.925093424993     1.007825032070
           C         -1.839993699287    -1.090942848332     0.049528424993    12.000000000000
           O         -0.564073699287    -0.833570848332     0.424764424993    15.994914619560
           F         -1.875413699287    -2.089508848332    -0.830314575007    18.998403224000
           F         -2.378345699287    -0.035814848332    -0.553048575007    18.998403224000
           C         -0.061881699287     0.431210151668     0.178145424993    12.000000000000
           C          1.317269300713     0.248901151668    -0.442230575007    12.000000000000
          CL          0.047013300713     1.370301151668     1.675965424993    34.968852682000
           H         -0.672451699287     0.986931151668    -0.511890575007     1.007825032070
           F          1.855267300713     1.417924151668    -0.718062575007    18.998403224000
           F          1.189751300713    -0.419491848332    -1.571136575007    18.998403224000
           F          2.129499300713    -0.414812848332     0.343734424993    18.998403224000

  Charge       = 0
  Multiplicity = 1
  Basis Set: 6-31G*
  Basis Set:

    Orbital Energies (a.u.)
    -----------------------

    Doubly Occupied:

       1A   -104.846416     2A    -26.359478     3A    -26.359458
       4A    -26.358113     5A    -26.356125     6A    -26.340985
       7A    -20.649314     8A    -11.526146     9A    -11.491493
      10A    -11.399514    11A    -10.581231    12A     -8.050569
      13A     -8.047103    14A     -8.046963    15A     -1.760160
      16A     -1.722641    17A     -1.656762    18A     -1.655263
      19A     -1.641190    20A     -1.487319    21A     -1.181350
      22A     -1.053317    23A     -0.986067    24A     -0.918656
      25A     -0.860715    26A     -0.848716    27A     -0.841314
      28A     -0.838693    29A     -0.822023    30A     -0.791356
      31A     -0.726219    32A     -0.724687    33A     -0.701338
      34A     -0.696646    35A     -0.679634    36A     -0.673109
      37A     -0.661138    38A     -0.657174    39A     -0.652323
      40A     -0.632888    41A     -0.602805    42A     -0.584788
      43A     -0.513839    44A     -0.480835    45A     -0.471153

  @DF-RHF Final Energy: -1146.30595641562377

   => Energetics <=

    Nuclear Repulsion Energy =            735.5224634507940209
    One-Electron Energy =               -3053.7827493549739302
    Two-Electron Energy =                1171.9543294885561409
    DFT Exchange-Correlation Energy =       0.0000000000000000
    Empirical Dispersion Energy =           0.0000000000000000
    PCM Polarization Energy =               0.0000000000000000
    EFP Energy =                            0.0000000000000000
    Total Energy =                      -1146.3059564156237684

  Mulliken Charges: (a.u.)
   Center  Symbol    Alpha    Beta     Spin     Total
       1     H     0.40987  0.40987  0.00000  0.18027
       2     C     2.56297  2.56297  0.00000  0.87406
       3     O     4.30295  4.30295  0.00000 -0.60589
       4     F     4.67652  4.67652  0.00000 -0.35304
       5     F     4.68405  4.68405  0.00000 -0.36809
       6     C     3.05070  3.05070  0.00000 -0.10140
       7     C     2.43113  2.43113  0.00000  1.13773
       8    CL     8.50515  8.50515  0.00000 -0.01030
       9     H     0.35770  0.35770  0.00000  0.28459
      10     F     4.67427  4.67427  0.00000 -0.34855
      11     F     4.67608  4.67608  0.00000 -0.35217
      12     F     4.66860  4.66860  0.00000 -0.33721

   Total alpha = 45.00000, Total beta = 45.00000, Total charge = -0.00000
