  ==> Input File <==

--------------------------------------------------------------------------
set {
	reference rhf
	basis cc-pvtz
}

set_num_threads( 4 )
memory 2 gb

molecule MOL {
0 1

O	 1.205475	 1.321786	 -0.136545
C	 1.091513	 0.173284	 -0.399257
C	 -0.200339	 -0.602916	 -0.389501
O	 2.111508	 -0.595462	 -0.744243
C	 -1.413045	 0.229353	 0.001137
H	 -0.322083	 -1.035391	 -1.377238
H	 -0.065408	 -1.441791	 0.285439
C	 -2.702562	 -0.586401	 0.000228
H	 -1.507657	 1.066609	 -0.681206
H	 -1.251114	 0.659295	 0.983213
C	 -3.953810	 0.284959	 -0.000782
H	 -2.717793	 -1.238567	 -0.869075
H	 -2.719108	 -1.238472	 0.869576
H	 -3.983727	 0.924403	 -0.876454
H	 -4.852989	 -0.320147	 -0.001515
H	 -3.985140	 0.924399	 0.874841
C	 3.389437	 0.005942	 -0.794551
H	 3.404695	 0.809300	 -1.516084
H	 4.073445	 -0.772869	 -1.090280
H	 3.665408	 0.396653	 0.173648

	symmetry c1
}
set optking {
	frozen_dihedral = ("
		9 5 8 12
	")
}

ee = optimize('scf')
oeprop('DIPOLE', 'QUADRUPOLE', 'MULLIKEN_CHARGES')
f=open( 'psi4out.xyz', 'w' )
f.write( "20  " )
f.write( str(ee) + "\n" )
f.write( MOL.save_string_xyz() )
f.close()
--------------------------------------------------------------------------

    Molecular point group: c1
  Charge       = 0
  Multiplicity = 1
  Basis Set: CC-PVTZ
  Basis Set:
  @DF-RHF Final Energy:  -384.08226978443344
    Total Energy =                       -384.0822697844338336
    Molecular point group: c1
  Basis Set: CC-PVTZ
  Basis Set:
  Basis Set: CC-PVTZ
  Basis Set:
  @DF-RHF Final Energy:  -384.08240380539945
    Total Energy =                       -384.0824038053991671
  Basis Set: CC-PVTZ
  Basis Set:
  Basis Set: CC-PVTZ
  Basis Set:
  @DF-RHF Final Energy:  -384.08221578072283
    Total Energy =                       -384.0822157807228905
  Basis Set: CC-PVTZ
  Basis Set:
  Basis Set: CC-PVTZ
  Basis Set:
  @DF-RHF Final Energy:  -384.08242870265286
    Total Energy =                       -384.0824287026529191
  Basis Set: CC-PVTZ
  Basis Set:
  Charge       = 0
  Multiplicity = 1
  Basis Set: CC-PVTZ
  Basis Set:

    Orbital Energies (a.u.)
    -----------------------

    Doubly Occupied:

       1A    -20.596489     2A    -20.534320     3A    -11.364802
       4A    -11.278613     5A    -11.234278     6A    -11.218306
       7A    -11.217115     8A    -11.209078     9A     -1.472405
      10A     -1.365991    11A     -1.089699    12A     -1.025597
      13A     -0.970100    14A     -0.886689    15A     -0.804998
      16A     -0.769773    17A     -0.699610    18A     -0.686676
      19A     -0.676121    20A     -0.644945    21A     -0.599042
      22A     -0.593429    23A     -0.580261    24A     -0.542059
      25A     -0.537131    26A     -0.524325    27A     -0.502088
      28A     -0.480261    29A     -0.474968    30A     -0.469309
      31A     -0.458930    32A     -0.440236

  @DF-RHF Final Energy:  -384.08243092608978

   => Energetics <=

    Nuclear Repulsion Energy =            381.6758610272688088
    One-Electron Energy =               -1279.6212924244273381
    Two-Electron Energy =                 513.8630004710684034
    DFT Exchange-Correlation Energy =       0.0000000000000000
    Empirical Dispersion Energy =           0.0000000000000000
    PCM Polarization Energy =               0.0000000000000000
    EFP Energy =                            0.0000000000000000
    Total Energy =                       -384.0824309260900691
    Molecular point group: c1
  Basis Set: CC-PVTZ
  Basis Set:

  -Total Gradient:
     Atom            X                  Y                   Z
    ------   -----------------  -----------------  -----------------
       1        0.000000963482     0.000008417678    -0.000011143919
       2       -0.000008235716     0.000000244885     0.000015856231
       3        0.000015914771    -0.000034969227    -0.000015217389
       4       -0.000004183556     0.000001805619     0.000001244862
       5        0.001617614190    -0.002632571425    -0.002361723385
       6       -0.000000655696     0.000003274732    -0.000003616793
       7       -0.000014545506     0.000006838950    -0.000002219044
       8       -0.001967892595     0.003046445291    -0.001431665034
       9       -0.001036488625     0.001709351212     0.002251942652
      10       -0.000005108209     0.000004755248    -0.000011353579
      11       -0.000019975491     0.000036437880    -0.000009652064
      12        0.001383114408    -0.002133681995     0.001591512709
      13        0.000011080044     0.000007979869    -0.000009796371
      14        0.000002004912    -0.000000651303    -0.000000981791
      15        0.000010411628    -0.000014800963     0.000002589630
      16        0.000013419720    -0.000009134030    -0.000002594766
      17        0.000002131665     0.000000317056    -0.000003734376
      18        0.000000634296    -0.000000087945     0.000000646560
      19        0.000000829345     0.000000247657     0.000000036210
      20       -0.000001033068    -0.000000219190    -0.000000130344

  **** Optimization is complete! (in 5 steps) ****
    Final optimized geometry and variables:
    Molecular point group: c1

    Geometry (in Angstrom), charge = 0, multiplicity = 1:

    O            1.230797846195     1.283274960600     0.178414541545
    C            1.117259048037     0.135972353778    -0.089468318051
    C           -0.177098477075    -0.636066365195    -0.103141733240
    O            2.139894475987    -0.635222302653    -0.420913440880
    C           -1.393256336540     0.198494589185     0.266794229156
    H           -0.282812077143    -1.067763281052    -1.092853367383
    H           -0.057464908611    -1.475768770250     0.573980724233
    C           -2.682971405210    -0.620516842520     0.297079026493
    H           -1.496540841232     1.031646804820    -0.419473185926
    H           -1.232136761153     0.650918901799     1.239078566908
    C           -3.938103469290     0.241627950663     0.350500614206
    H           -2.720405444729    -1.282836906769    -0.563875550127
    H           -2.662529141943    -1.277240776461     1.163202031335
    H           -4.020978970989     0.866115857185    -0.532372478568
    H           -4.831460503021    -0.369005700887     0.410766926093
    H           -3.924643620972     0.895534418233     1.216020890676
    C            3.420398981408    -0.037993548064    -0.449917550503
    H            3.449409949002     0.767261917742    -1.168911348548
    H            4.106318765849    -0.818270272816    -0.737236969976
    H            3.682743539894     0.349182291621     0.523480328728

  Mulliken Charges: (a.u.)
   Center  Symbol    Alpha    Beta     Spin     Total
       1     O     4.19670  4.19670  0.00000 -0.39339
       2     C     2.80652  2.80652  0.00000  0.38696
       3     C     3.10009  3.10009  0.00000 -0.20017
       4     O     4.14660  4.14660  0.00000 -0.29320
       5     C     3.08213  3.08213  0.00000 -0.16426
       6     H     0.44004  0.44004  0.00000  0.11991
       7     H     0.43998  0.43998  0.00000  0.12004
       8     C     3.08684  3.08684  0.00000 -0.17367
       9     H     0.44782  0.44782  0.00000  0.10437
      10     H     0.44614  0.44614  0.00000  0.10772
      11     C     3.14865  3.14865  0.00000 -0.29729
      12     H     0.45667  0.45667  0.00000  0.08667
      13     H     0.45416  0.45416  0.00000  0.09168
      14     H     0.45420  0.45420  0.00000  0.09160
      15     H     0.44851  0.44851  0.00000  0.10297
      16     H     0.45328  0.45328  0.00000  0.09344
      17     C     3.03767  3.03767  0.00000 -0.07535
      18     H     0.45434  0.45434  0.00000  0.09131
      19     H     0.44533  0.44533  0.00000  0.10933
      20     H     0.45433  0.45433  0.00000  0.09134

   Total alpha = 32.00000, Total beta = 32.00000, Total charge =  0.00000
