  ==> Input File <==

--------------------------------------------------------------------------
set {
	reference rhf
	basis 6-31G*
}

set_num_threads( 4 )
memory 2 gb

molecule MOL {
0 1

O	 2.059874	 1.652230	 -0.950273
C	 0.934231	 1.357163	 -0.649333
C	 -0.192961	 2.353093	 -0.848455
N	 0.623947	 0.147590	 -0.102813
H	 -0.686601	 2.587232	 0.088338
H	 0.240730	 3.254020	 -1.255012
H	 -0.940804	 1.976527	 -1.538027
C	 1.665360	 -0.855771	 0.000151
C	 -0.726495	 -0.341817	 0.067572
H	 2.465253	 -0.618490	 -0.692587
H	 1.257730	 -1.821716	 -0.242189
H	 2.081488	 -0.891645	 1.004627
H	 -0.764346	 -0.979947	 0.942441
H	 -1.424759	 0.465296	 0.222261
H	 -1.057778	 -0.926611	 -0.788630

	symmetry c1
}
set optking {
	frozen_dihedral = ("
		2 4 8 10
	")
}

ee = optimize('scf')
oeprop('DIPOLE', 'QUADRUPOLE', 'MULLIKEN_CHARGES')
f=open( 'psi4out.xyz', 'w' )
f.write( "15  " )
f.write( str(ee) + "\n" )
f.write( MOL.save_string_xyz() )
f.close()
--------------------------------------------------------------------------

    Molecular point group: c1
  Charge       = 0
  Multiplicity = 1
  Basis Set: 6-31G*
  Basis Set:
  @DF-RHF Final Energy:  -286.02827341584918
    Total Energy =                       -286.0282734158491280
    Molecular point group: c1
  Basis Set: 6-31G*
  Basis Set:
  Basis Set: 6-31G*
  Basis Set:
  @DF-RHF Final Energy:  -286.02881027274964
    Total Energy =                       -286.0288102727496948
  Basis Set: 6-31G*
  Basis Set:
  Basis Set: 6-31G*
  Basis Set:
  @DF-RHF Final Energy:  -286.02870654413817
    Total Energy =                       -286.0287065441381174
  Basis Set: 6-31G*
  Basis Set:
  Basis Set: 6-31G*
  Basis Set:
  @DF-RHF Final Energy:  -286.02924369001465
    Total Energy =                       -286.0292436900144821
  Basis Set: 6-31G*
  Basis Set:
  @DF-RHF Final Energy:  -286.02933558469016
    Total Energy =                       -286.0293355846901022
  @DF-RHF Final Energy:  -286.02939182446170
    Total Energy =                       -286.0293918244614133
  @DF-RHF Final Energy:  -286.02947266588069
    Total Energy =                       -286.0294726658807463
  @DF-RHF Final Energy:  -286.02961182012075
    Total Energy =                       -286.0296118201209765
  @DF-RHF Final Energy:  -286.02973062093645
    Total Energy =                       -286.0297306209365047
  @DF-RHF Final Energy:  -286.02979797983107
    Total Energy =                       -286.0297979798310166
  Basis Set: 6-31G*
  Basis Set:
  @DF-RHF Final Energy:  -286.02977733081508
    Total Energy =                       -286.0297773308148521
  Basis Set: 6-31G*
  Basis Set:
  Basis Set: 6-31G*
  Basis Set:
  @DF-RHF Final Energy:  -286.02981293357914
    Total Energy =                       -286.0298129335793078
  Basis Set: 6-31G*
  Basis Set:
  Basis Set: 6-31G*
  Basis Set:
  @DF-RHF Final Energy:  -286.02981449045609
    Total Energy =                       -286.0298144904562605
  Basis Set: 6-31G*
  Basis Set:
  Charge       = 0
  Multiplicity = 1
  Basis Set: 6-31G*
  Basis Set:

    Orbital Energies (a.u.)
    -----------------------

    Doubly Occupied:

       1A    -20.513900     2A    -15.584063     3A    -11.341688
       4A    -11.266456     5A    -11.247777     6A    -11.228285
       7A     -1.383947     8A     -1.243762     9A     -1.014203
      10A     -0.972731    11A     -0.919376    12A     -0.737978
      13A     -0.681099    14A     -0.659283    15A     -0.651311
      16A     -0.589366    17A     -0.576032    18A     -0.567377
      19A     -0.561531    20A     -0.546942    21A     -0.529637
      22A     -0.503707    23A     -0.409941    24A     -0.366326

  @DF-RHF Final Energy:  -286.02981463770698

   => Energetics <=

    Nuclear Repulsion Energy =            252.3601475918142398
    One-Electron Energy =                -888.5864929806124337
    Two-Electron Energy =                 350.1965307510914727
    DFT Exchange-Correlation Energy =       0.0000000000000000
    Empirical Dispersion Energy =           0.0000000000000000
    PCM Polarization Energy =               0.0000000000000000
    EFP Energy =                            0.0000000000000000
    Total Energy =                       -286.0298146377067496
    Molecular point group: c1
  Basis Set: 6-31G*
  Basis Set:

  -Total Gradient:
     Atom            X                  Y                   Z
    ------   -----------------  -----------------  -----------------
       1        0.000004577016     0.000019468200    -0.000007425413
       2       -0.000012493446    -0.000019228974    -0.000040339376
       3        0.000004076539     0.000007447030     0.000014918613
       4       -0.000000744673     0.000012105023     0.000071758200
       5        0.000000265351    -0.000000358772    -0.000005809306
       6       -0.000001185365     0.000002632518    -0.000002840827
       7        0.000002678512    -0.000003969415    -0.000003107501
       8       -0.000020186047    -0.000057605999    -0.000070173245
       9       -0.000002451254     0.000013094035     0.000000869433
      10        0.000017232190     0.000018147389     0.000041535833
      11        0.000007338533     0.000003580950     0.000003423125
      12       -0.000001623744     0.000004326016    -0.000002433688
      13       -0.000000395022    -0.000004886377     0.000003683827
      14       -0.000005079961    -0.000002803823    -0.000000720424
      15        0.000007991370     0.000008052197    -0.000003339250

  **** Optimization is complete! (in 14 steps) ****
    Final optimized geometry and variables:
    Molecular point group: c1

    Geometry (in Angstrom), charge = 0, multiplicity = 1:

    O            1.351268608308     0.978135791568    -0.429008602132
    C            0.212385650007     0.651803864987    -0.225799779527
    C           -0.904561134090     1.671447926258    -0.348232678122
    N           -0.128671689761    -0.628115559198     0.095051897226
    H           -1.433776077556     1.798653906958     0.589981713433
    H           -0.453988784387     2.610870233341    -0.630186666692
    H           -1.625619143071     1.381833891437    -1.104802969914
    C            0.927003788684    -1.596631383983     0.316640331381
    C           -1.441027523690    -1.028614080290     0.552436960848
    H            1.835676308748    -1.247128204246    -0.141589747424
    H            0.644804356874    -2.547534481711    -0.122141026076
    H            1.104385596334    -1.749192302039     1.378982800517
    H           -1.512840742443    -1.017851103428     1.638467755208
    H           -2.213298364602    -0.391705332441     0.151500870110
    H           -1.641139567958    -2.038626918911     0.214732457463

  Mulliken Charges: (a.u.)
   Center  Symbol    Alpha    Beta     Spin     Total
       1     O     4.30484  4.30484  0.00000 -0.60968
       2     C     2.62337  2.62337  0.00000  0.75326
       3     C     3.29877  3.29877  0.00000 -0.59755
       4     N     3.82385  3.82385  0.00000 -0.64771
       5     H     0.40784  0.40784  0.00000  0.18432
       6     H     0.39041  0.39041  0.00000  0.21918
       7     H     0.40658  0.40658  0.00000  0.18684
       8     C     3.14548  3.14548  0.00000 -0.29096
       9     C     3.14164  3.14164  0.00000 -0.28329
      10     H     0.38408  0.38408  0.00000  0.23184
      11     H     0.41877  0.41877  0.00000  0.16246
      12     H     0.41999  0.41999  0.00000  0.16002
      13     H     0.41654  0.41654  0.00000  0.16691
      14     H     0.40714  0.40714  0.00000  0.18573
      15     H     0.41070  0.41070  0.00000  0.17860

   Total alpha = 24.00000, Total beta = 24.00000, Total charge =  0.00000
