                              Psi4 1.0.54 Driver

  ==> Input File <==

--------------------------------------------------------------------------
set {
	reference rhf
	basis cc-pvtz
}

set_num_threads( 4 )
memory 2 gb

molecule MOL {
0 1

H	 -2.149496	 -2.244167	 0.000000
O	 -2.454378	 -1.354528	 0.000000
C	 -1.430628	 -0.482077	 0.000000
C	 -0.332220	 -0.785175	 -0.791393
C	 -1.442629	 0.676985	 0.746761
H	 -0.342214	 -1.691004	 -1.364457
C	 0.744108	 0.071464	 -0.830107
H	 -2.285812	 0.923764	 1.363277
C	 -0.348744	 1.530519	 0.696509
H	 1.589336	 -0.170266	 -1.444512
C	 0.749598	 1.239311	 -0.087254
C	 -0.369762	 2.741044	 1.481044
H	 1.585859	 1.907776	 -0.115487
N	 -0.389514	 3.686769	 2.095778

	symmetry c1
}
set optking {
	frozen_dihedral = ("
		5 3 2 1
	")
}

ee,wfn = optimize('scf', return_wfn=True)
oeprop( wfn, 'DIPOLE', 'QUADRUPOLE', 'MULLIKEN_CHARGES')
f=open( 'psi4out.xyz', 'w' )
f.write( "14  " )
f.write( str(ee) + "\n" )
f.write( MOL.save_string_xyz() )
f.close()
--------------------------------------------------------------------------

    Molecular point group: c1
  Charge       = 0
  Multiplicity = 1
  Basis Set: CC-PVTZ
  Basis Set:
  @DF-RHF Final Energy:  -397.42898780074160
    Total Energy =                       -397.4289878007416519
    Molecular point group: c1
  Basis Set: CC-PVTZ
  Basis Set:
  Basis Set: CC-PVTZ
  Basis Set:
  @DF-RHF Final Energy:  -397.43067251566947
    Total Energy =                       -397.4306725156693574
  Basis Set: CC-PVTZ
  Basis Set:
  Basis Set: CC-PVTZ
  Basis Set:
  @DF-RHF Final Energy:  -397.43080162037757
    Total Energy =                       -397.4308016203774514
  Basis Set: CC-PVTZ
  Basis Set:
  Basis Set: CC-PVTZ
  Basis Set:
  @DF-RHF Final Energy:  -397.43082159770250
    Total Energy =                       -397.4308215977024474
  Basis Set: CC-PVTZ
  Basis Set:
  Basis Set: CC-PVTZ
  Basis Set:
  @DF-RHF Final Energy:  -397.43082582846102
    Total Energy =                       -397.4308258284606836
  Basis Set: CC-PVTZ
  Basis Set:
  Charge       = 0
  Multiplicity = 1
  Basis Set: CC-PVTZ
  Basis Set:

    Orbital Energies (a.u.)
    -----------------------

    Doubly Occupied:

       1A    -20.600823     2A    -15.563853     3A    -11.321330
       4A    -11.291325     5A    -11.267239     6A    -11.261671
       7A    -11.257984     8A    -11.257948     9A    -11.257166
      10A     -1.431741    11A     -1.236859    12A     -1.187036
      13A     -1.066401    14A     -1.043363    15A     -0.900144
      16A     -0.862103    17A     -0.795402    18A     -0.716465
      19A     -0.694564    20A     -0.682014    21A     -0.636629
      22A     -0.624249    23A     -0.580126    24A     -0.567074
      25A     -0.550890    26A     -0.546888    27A     -0.519614
      28A     -0.481273    29A     -0.477668    30A     -0.367117
      31A     -0.347692

  @DF-RHF Final Energy:  -397.43082618969623

   => Energetics <=

    Nuclear Repulsion Energy =            380.2576699484196183
    One-Electron Energy =               -1292.5876859045242782
    Two-Electron Energy =                 514.8991897664088810
    DFT Exchange-Correlation Energy =       0.0000000000000000
    Empirical Dispersion Energy =           0.0000000000000000
    PCM Polarization Energy =               0.0000000000000000
    EFP Energy =                            0.0000000000000000
    Total Energy =                       -397.4308261896958356
    Molecular point group: c1
  Basis Set: CC-PVTZ
  Basis Set:

  -Total Gradient:
     Atom            X                  Y                   Z
    ------   -----------------  -----------------  -----------------
       1        0.000071955215     0.000070625196     0.002498492784
       2        0.000252985340    -0.000516266751    -0.002470585311
       3       -0.001078749421     0.001320805540    -0.001399244311
       4       -0.000001031076    -0.000030681619    -0.000019036538
       5        0.000776150597    -0.000849213226     0.001395835873
       6        0.000003576015     0.000001658133     0.000005385305
       7       -0.000003575798     0.000001485169    -0.000031464158
       8       -0.000003896456    -0.000010967168     0.000000138464
       9       -0.000030743034     0.000024217292    -0.000025420875
      10        0.000008014316     0.000007471877     0.000005323068
      11       -0.000011718188    -0.000010632053     0.000044772956
      12        0.000034625562     0.000008649571    -0.000016710095
      13        0.000005995358    -0.000006677606    -0.000003099692
      14       -0.000023588434    -0.000010474362     0.000015612530

  **** Optimization is complete! (in 6 steps) ****
    Final optimized geometry and variables:
    Molecular point group: c1

    Geometry (in Angstrom), charge = 0, multiplicity = 1:

    H           -1.599539347272    -2.960528369211    -0.301685847040
    O           -1.854957647525    -2.055371832781    -0.318033034369
    C           -0.774446422312    -1.242792377060    -0.368330141835
    C            0.324700949073    -1.532736283052    -1.156706529943
    C           -0.798311862357    -0.087587874132     0.387116130671
    H            0.332550769314    -2.428873827480    -1.748286579243
    C            1.400193166287    -0.666334583819    -1.189135501235
    H           -1.650393413378     0.126711314948     0.999647973456
    C            0.279821709204     0.778517587385     0.334536752328
    H            2.249158850772    -0.898794871971    -1.801863265825
    C            1.387494261469     0.496856007700    -0.448592329096
    C            0.251752404246     1.988289059322     1.120297285258
    H            2.215921993163     1.175422197094    -0.473957830242
    N            0.232493885334     2.934358426620     1.734537428949

  Mulliken Charges: (a.u.)
   Center  Symbol    Alpha    Beta     Spin     Total
       1     H     0.38363  0.38363  0.00000  0.23274
       2     O     4.17701  4.17701  0.00000 -0.35402
       3     C     2.85304  2.85304  0.00000  0.29392
       4     C     3.12237  3.12237  0.00000 -0.24473
       5     C     3.12130  3.12130  0.00000 -0.24260
       6     H     0.42174  0.42174  0.00000  0.15651
       7     C     3.05840  3.05840  0.00000 -0.11680
       8     H     0.40781  0.40781  0.00000  0.18438
       9     C     2.92439  2.92439  0.00000  0.15123
      10     H     0.41660  0.41660  0.00000  0.16681
      11     C     3.10113  3.10113  0.00000 -0.20226
      12     C     3.02407  3.02407  0.00000 -0.04814
      13     H     0.41413  0.41413  0.00000  0.17173
      14     N     3.57438  3.57438  0.00000 -0.14875

   Total alpha = 31.00000, Total beta = 31.00000, Total charge =  0.00000

*** Psi4 exiting successfully. Buy a developer a beer!
