  ==> Input File <==

--------------------------------------------------------------------------
set {
	reference rhf
	basis 6-31G*
}

set_num_threads( 1 )
memory 2 gb

molecule MOL {
0 1

O	 -0.988096	 -1.408613	 0.050699
C	 -0.676749	 -0.249230	 -0.009274
C	 -1.746085	 0.827156	 -0.009539
N	 0.623947	 0.147590	 -0.102813
H	 -1.701500	 1.431508	 -0.908902
H	 -2.703425	 0.330732	 0.036390
H	 -1.647323	 1.487769	 0.845106
C	 1.480421	 -0.000324	 1.057553
C	 1.133318	 1.015453	 -1.141852
H	 2.471807	 -0.302628	 0.738518
H	 1.071433	 -0.750495	 1.711704
H	 1.567462	 0.935025	 1.606159
H	 2.167020	 0.759640	 -1.341997
H	 0.584119	 0.897446	 -2.062389
H	 1.097726	 2.063380	 -0.849629

	symmetry c1
}
set optking {
	frozen_dihedral = ("
		2 4 8 10
	")
}

ee = energy('scf')
oeprop('DIPOLE', 'QUADRUPOLE', 'MULLIKEN_CHARGES')
f=open( 'psi4out.xyz', 'w' )
f.write( "15  " )
f.write( str(ee) + "\n" )
f.write( MOL.save_string_xyz() )
f.close()
--------------------------------------------------------------------------

    Molecular point group: c1

    Geometry (in Angstrom), charge = 0, multiplicity = 1:

       Center              X                  Y                   Z               Mass
    ------------   -----------------  -----------------  -----------------  -----------------
           O         -0.966889615360    -1.472456199219     0.074736612752    15.994914619560
           C         -0.655542615360    -0.313073199219     0.014763612752    12.000000000000
           C         -1.724878615360     0.763312800781     0.014498612752    12.000000000000
           N          0.645153384640     0.083746800781    -0.078775387248    14.003074004780
           H         -1.680293615360     1.367664800781    -0.884864387248     1.007825032070
           H         -2.682218615360     0.266888800781     0.060427612752     1.007825032070
           H         -1.626116615360     1.423925800781     0.869143612752     1.007825032070
           C          1.501627384640    -0.064167199219     1.081590612752    12.000000000000
           C          1.154524384640     0.951609800781    -1.117814387248    12.000000000000
           H          2.493013384640    -0.366471199219     0.762555612752     1.007825032070
           H          1.092639384640    -0.814338199219     1.735741612752     1.007825032070
           H          1.588668384640     0.871181800781     1.630196612752     1.007825032070
           H          2.188226384640     0.695796800781    -1.317959387248     1.007825032070
           H          0.605325384640     0.833602800781    -2.038351387248     1.007825032070
           H          1.118932384640     1.999536800781    -0.825591387248     1.007825032070

  Charge       = 0
  Multiplicity = 1
  Basis Set: 6-31G*
  Basis Set:

    Orbital Energies (a.u.)
    -----------------------

    Doubly Occupied:

       1A    -20.538207     2A    -15.557443     3A    -11.346270
       4A    -11.262464     5A    -11.256798     6A    -11.225519
       7A     -1.393392     8A     -1.238842     9A     -1.007660
      10A     -0.974594    11A     -0.918156    12A     -0.739580
      13A     -0.676001    14A     -0.658599    15A     -0.646953
      16A     -0.597598    17A     -0.583043    18A     -0.576527
      19A     -0.559744    20A     -0.547836    21A     -0.536678
      22A     -0.486304    23A     -0.420447    24A     -0.354209

  @DF-RHF Final Energy:  -286.00107321703609

   => Energetics <=

    Nuclear Repulsion Energy =            251.3157651660862371
    One-Electron Energy =                -886.4278037182992875
    Two-Electron Energy =                 349.1109653351774114
    DFT Exchange-Correlation Energy =       0.0000000000000000
    Empirical Dispersion Energy =           0.0000000000000000
    PCM Polarization Energy =               0.0000000000000000
    EFP Energy =                            0.0000000000000000
    Total Energy =                       -286.0010732170356960

  Mulliken Charges: (a.u.)
   Center  Symbol    Alpha    Beta     Spin     Total
       1     O     4.26332  4.26332  0.00000 -0.52665
       2     C     2.65227  2.65227  0.00000  0.69545
       3     C     3.28690  3.28690  0.00000 -0.57379
       4     N     3.82219  3.82219  0.00000 -0.64438
       5     H     0.40928  0.40928  0.00000  0.18144
       6     H     0.39699  0.39699  0.00000  0.20603
       7     H     0.40792  0.40792  0.00000  0.18416
       8     C     3.13874  3.13874  0.00000 -0.27747
       9     C     3.13891  3.13891  0.00000 -0.27781
      10     H     0.41438  0.41438  0.00000  0.17124
      11     H     0.40019  0.40019  0.00000  0.19962
      12     H     0.42522  0.42522  0.00000  0.14957
      13     H     0.40932  0.40932  0.00000  0.18137
      14     H     0.40953  0.40953  0.00000  0.18095
      15     H     0.42485  0.42485  0.00000  0.15029

   Total alpha = 24.00000, Total beta = 24.00000, Total charge = -0.00000
