                              Psi4 1.0.54 Driver

  ==> Input File <==

--------------------------------------------------------------------------
set {
	reference rhf
	basis cc-pvtz
}

set_num_threads( 4 )
memory 2 gb

molecule MOL {
0 1

H	 1.166964	 -1.062386	 0.758429
O	 1.324748	 -0.612467	 -0.052206
C	 0.706474	 0.636793	 -0.025501
C	 1.064620	 1.536975	 -1.173993
H	 1.006166	 1.107518	 0.903426
H	 -0.376229	 0.532867	 0.015157
C	 1.961331	 1.281617	 -2.100819
H	 0.517590	 2.464916	 -1.204561
H	 2.538237	 0.376566	 -2.094747
H	 2.155918	 1.980976	 -2.891447

	symmetry c1
}
set optking {
	frozen_dihedral = ("
		5 3 2 1
	")
}

ee,wfn = optimize('scf', return_wfn=True)
oeprop( wfn, 'DIPOLE', 'QUADRUPOLE', 'MULLIKEN_CHARGES')
f=open( 'psi4out.xyz', 'w' )
f.write( "10  " )
f.write( str(ee) + "\n" )
f.write( MOL.save_string_xyz() )
f.close()
--------------------------------------------------------------------------

    Molecular point group: c1
  Charge       = 0
  Multiplicity = 1
  Basis Set: CC-PVTZ
  Basis Set:
  @DF-RHF Final Energy:  -191.99606369381516
    Total Energy =                       -191.9960636938148753
    Molecular point group: c1
  Basis Set: CC-PVTZ
  Basis Set:
  Basis Set: CC-PVTZ
  Basis Set:
  @DF-RHF Final Energy:  -191.86197311390546
    Total Energy =                       -191.8619731139054352
  Basis Set: CC-PVTZ
  Basis Set:
  Basis Set: CC-PVTZ
  Basis Set:
  @DF-RHF Final Energy:  -191.96838797900548
    Total Energy =                       -191.9683879790055130
  Basis Set: CC-PVTZ
  Basis Set:
  Basis Set: CC-PVTZ
  Basis Set:
  @DF-RHF Final Energy:  -191.99697505084322
    Total Energy =                       -191.9969750508430764
  Basis Set: CC-PVTZ
  Basis Set:
  Basis Set: CC-PVTZ
  Basis Set:
  @DF-RHF Final Energy:  -191.99753783739641
    Total Energy =                       -191.9975378373964645
  Basis Set: CC-PVTZ
  Basis Set:
  Basis Set: CC-PVTZ
  Basis Set:
  @DF-RHF Final Energy:  -191.99774271220610
    Total Energy =                       -191.9977427122060760
  Basis Set: CC-PVTZ
  Basis Set:
  Basis Set: CC-PVTZ
  Basis Set:
  @DF-RHF Final Energy:  -191.99775383007898
    Total Energy =                       -191.9977538300788922
  Basis Set: CC-PVTZ
  Basis Set:
  Charge       = 0
  Multiplicity = 1
  Basis Set: CC-PVTZ
  Basis Set:

    Orbital Energies (a.u.)
    -----------------------

    Doubly Occupied:

       1A    -20.553900     2A    -11.278053     3A    -11.223784
       4A    -11.207749     5A     -1.374203     6A     -1.058596
       7A     -0.925912     8A     -0.756438     9A     -0.714339
      10A     -0.639658    11A     -0.619175    12A     -0.594302
      13A     -0.517977    14A     -0.488000    15A     -0.458728
      16A     -0.360308

  @DF-RHF Final Energy:  -191.99775427658187

   => Energetics <=

    Nuclear Repulsion Energy =            119.6657032692746867
    One-Electron Energy =                -497.7846687636959473
    Two-Electron Energy =                 186.1212112178393454
    DFT Exchange-Correlation Energy =       0.0000000000000000
    Empirical Dispersion Energy =           0.0000000000000000
    PCM Polarization Energy =               0.0000000000000000
    EFP Energy =                            0.0000000000000000
    Total Energy =                       -191.9977542765819294
    Molecular point group: c1
  Basis Set: CC-PVTZ
  Basis Set:

  -Total Gradient:
     Atom            X                  Y                   Z
    ------   -----------------  -----------------  -----------------
       1        0.000255661345     0.000127081734     0.000376269824
       2       -0.000418745000    -0.000235864777    -0.000481077306
       3        0.000476059905     0.000378499295     0.000228393426
       4       -0.000059710282    -0.000011621741    -0.000103164708
       5       -0.000316227138    -0.000293436745    -0.000035214015
       6        0.000029427261     0.000011065169    -0.000013697304
       7       -0.000033151659    -0.000018287249    -0.000119880093
       8        0.000033636622     0.000014084666     0.000035218242
       9        0.000013023257     0.000015475150     0.000056121918
      10        0.000020025690     0.000013004500     0.000057030016

  **** Optimization is complete! (in 8 steps) ****
    Final optimized geometry and variables:
    Molecular point group: c1

    Geometry (in Angstrom), charge = 0, multiplicity = 1:

    H           -0.079006417362    -2.172022728006     0.622887234224
    O            0.170393869089    -1.382749947805     0.179849056956
    C           -0.754151665901    -0.372171456628     0.451939762592
    C           -0.269445224686     0.948738004506    -0.060339123096
    H           -0.933602947095    -0.288812364962     1.522556898126
    H           -1.714205568415    -0.594482649955    -0.011564881244
    C            0.876926885596     1.163479089985    -0.664508057891
    H           -0.952685122432     1.765525754347     0.101336400756
    H            1.576028117752     0.369719624463    -0.838942652246
    H            1.145572205794     2.146892160855    -1.001146169409

  Mulliken Charges: (a.u.)
   Center  Symbol    Alpha    Beta     Spin     Total
       1     H     0.39536  0.39536  0.00000  0.20929
       2     O     4.19038  4.19038  0.00000 -0.38076
       3     C     2.93777  2.93777  0.00000  0.12446
       4     C     3.08224  3.08224  0.00000 -0.16449
       5     H     0.47509  0.47509  0.00000  0.04983
       6     H     0.47441  0.47441  0.00000  0.05118
       7     C     3.16995  3.16995  0.00000 -0.33990
       8     H     0.42399  0.42399  0.00000  0.15203
       9     H     0.42046  0.42046  0.00000  0.15907
      10     H     0.43035  0.43035  0.00000  0.13930

   Total alpha = 16.00000, Total beta = 16.00000, Total charge =  0.00000

*** Psi4 exiting successfully. Buy a developer a beer!
