  ==> Input File <==

--------------------------------------------------------------------------
set {
	reference rhf
	basis 6-31G*
}

set_num_threads( 4 )
memory 2 gb

molecule MOL {
0 1

H	 2.608699	 -0.663945	 -1.054970
N	 1.627784	 -0.467396	 -1.078095
C	 1.297279	 0.578839	 -0.127899
C	 0.862228	 -1.674509	 -0.826071
H	 1.877080	 1.464734	 -0.364098
H	 1.521819	 0.293548	 0.902553
C	 -0.186604	 0.897241	 -0.233443
H	 1.126975	 -2.420438	 -1.567871
H	 1.060418	 -2.096278	 0.162095
C	 -0.621386	 -1.354711	 -0.931183
H	 -0.390115	 1.327294	 -1.218703
H	 -0.452775	 1.639013	 0.512529
N	 -0.975995	 -0.298722	 0.000000
H	 -1.201541	 -2.239222	 -0.689095
H	 -0.854025	 -1.075531	 -1.963189
C	 -2.393863	 -0.024976	 0.000000
H	 -2.854032	 -0.467193	 -0.876721
H	 -2.854032	 -0.467193	 0.876721
H	 -2.623281	 1.044943	 0.000000

	symmetry c1
}
set optking {
	frozen_dihedral = ("
		7 13 16 19
	")
}

ee = optimize('scf')
oeprop('DIPOLE', 'QUADRUPOLE', 'MULLIKEN_CHARGES')
f=open( 'psi4out.xyz', 'w' )
f.write( "19  " )
f.write( str(ee) + "\n" )
f.write( MOL.save_string_xyz() )
f.close()
--------------------------------------------------------------------------

    Molecular point group: c1
  Charge       = 0
  Multiplicity = 1
  Basis Set: 6-31G*
  Basis Set:
  @DF-RHF Final Energy:  -305.19313556712785
    Total Energy =                       -305.1931355671277402
    Molecular point group: c1
  Basis Set: 6-31G*
  Basis Set:
  Basis Set: 6-31G*
  Basis Set:
  @DF-RHF Final Energy:  -305.19408378188399
    Total Energy =                       -305.1940837818839327
  Basis Set: 6-31G*
  Basis Set:
  Basis Set: 6-31G*
  Basis Set:
  @DF-RHF Final Energy:  -305.19425566296246
    Total Energy =                       -305.1942556629622914
  Basis Set: 6-31G*
  Basis Set:
  Basis Set: 6-31G*
  Basis Set:
  @DF-RHF Final Energy:  -305.19426961767419
    Total Energy =                       -305.1942696176741379
  Basis Set: 6-31G*
  Basis Set:
  Charge       = 0
  Multiplicity = 1
  Basis Set: 6-31G*
  Basis Set:

    Orbital Energies (a.u.)
    -----------------------

    Doubly Occupied:

       1A    -15.536651     2A    -15.535992     3A    -11.237751
       4A    -11.237730     5A    -11.237032     6A    -11.236844
       7A    -11.234875     8A     -1.244134     9A     -1.182884
      10A     -1.022660    11A     -0.963946    12A     -0.860499
      13A     -0.857643    14A     -0.755530    15A     -0.690217
      16A     -0.631165    17A     -0.623806    18A     -0.604474
      19A     -0.603433    20A     -0.580534    21A     -0.544013
      22A     -0.534258    23A     -0.511237    24A     -0.488117
      25A     -0.466762    26A     -0.456536    27A     -0.362785
      28A     -0.336436

  @DF-RHF Final Energy:  -305.19427083020690

   => Energetics <=

    Nuclear Repulsion Energy =            339.2933940614753396
    One-Electron Energy =               -1085.8194414503157077
    Two-Electron Energy =                 441.3317765586336918
    DFT Exchange-Correlation Energy =       0.0000000000000000
    Empirical Dispersion Energy =           0.0000000000000000
    PCM Polarization Energy =               0.0000000000000000
    EFP Energy =                            0.0000000000000000
    Total Energy =                       -305.1942708302067331
    Molecular point group: c1
  Basis Set: 6-31G*
  Basis Set:

  -Total Gradient:
     Atom            X                  Y                   Z
    ------   -----------------  -----------------  -----------------
       1        0.000006503604     0.000010181387     0.000001079061
       2       -0.000016748752     0.000013293204     0.000008905114
       3        0.000021351032    -0.000013355544     0.000025749716
       4       -0.000005382599    -0.000030043224    -0.000064592307
       5        0.000003431900    -0.000000478140     0.000001063477
       6        0.000002581947     0.000002178533     0.000009449291
       7        0.000162747949     0.000358231106     0.002681561031
       8        0.000029830519    -0.000009705338    -0.000002874689
       9       -0.000022165466     0.000007908402    -0.000011481274
      10        0.000004368640    -0.000026773370     0.000047661432
      11       -0.000020405882    -0.000008703308     0.000000439307
      12        0.000001738760    -0.000004476097    -0.000001763693
      13       -0.000226626003    -0.000434907517    -0.004748627469
      14       -0.000004787676     0.000000513323    -0.000004589944
      15        0.000012914587    -0.000007074431     0.000009046157
      16        0.000175256506    -0.000037278879     0.005678384629
      17       -0.000016372496     0.000003954175    -0.000002541359
      18        0.000039745626    -0.000001916031    -0.000052425841
      19       -0.000147982197     0.000178451746    -0.003574442639

  **** Optimization is complete! (in 5 steps) ****
    Final optimized geometry and variables:
    Molecular point group: c1

    Geometry (in Angstrom), charge = 0, multiplicity = 1:

    H            2.678470182892    -0.338513423292    -0.574544809662
    N            1.698087058020    -0.140618358320    -0.606703446516
    C            1.362602575048     0.911657297151     0.335115961346
    C            0.929260613403    -1.345197361047    -0.352419262079
    H            1.955573512028     1.790948989861     0.106528323316
    H            1.567498228160     0.625663879619     1.369597190980
    C           -0.116116253684     1.245836519307     0.206431685558
    H            1.204190460467    -2.099248139287    -1.082387984331
    H            1.114780675529    -1.755648142463     0.643010533559
    C           -0.552624755875    -1.026325056830    -0.480246362842
    H           -0.293600684243     1.694011791467    -0.776118877744
    H           -0.384677059732     1.979218841941     0.958816846232
    N           -0.915311443583     0.053932755620     0.414120762879
    H           -1.134781305571    -1.903995125581    -0.217989719842
    H           -0.776427585229    -0.779046998285    -1.522487619766
    C           -2.345800234908     0.290609907612     0.483449831275
    H           -2.860695728334    -0.072781374450    -0.405878820648
    H           -2.784592090363    -0.200262415356     1.346646866729
    H           -2.557093367668     1.352251749740     0.540556906082

  Mulliken Charges: (a.u.)
   Center  Symbol    Alpha    Beta     Spin     Total
       1     H     0.32953  0.32953  0.00000  0.34094
       2     N     3.85435  3.85435  0.00000 -0.70871
       3     C     3.06388  3.06388  0.00000 -0.12776
       4     C     3.06360  3.06360  0.00000 -0.12719
       5     H     0.41805  0.41805  0.00000  0.16390
       6     H     0.42818  0.42818  0.00000  0.14364
       7     C     3.05146  3.05146  0.00000 -0.10292
       8     H     0.41799  0.41799  0.00000  0.16402
       9     H     0.42821  0.42821  0.00000  0.14358
      10     C     3.05201  3.05201  0.00000 -0.10402
      11     H     0.42914  0.42914  0.00000  0.14173
      12     H     0.41869  0.41869  0.00000  0.16263
      13     N     3.79526  3.79526  0.00000 -0.59052
      14     H     0.41859  0.41859  0.00000  0.16282
      15     H     0.42863  0.42863  0.00000  0.14273
      16     C     3.13793  3.13793  0.00000 -0.27587
      17     H     0.42733  0.42733  0.00000  0.14534
      18     H     0.41669  0.41669  0.00000  0.16662
      19     H     0.42048  0.42048  0.00000  0.15904

   Total alpha = 28.00000, Total beta = 28.00000, Total charge = -0.00000
