  ==> Input File <==

--------------------------------------------------------------------------
set {
	reference rhf
	basis 6-31G*
}

set_num_threads( 4 )
memory 2 gb

molecule MOL {
0 1

H	 -3.892951	 0.981613	 -0.358725
C	 -3.196921	 0.361773	 0.172313
C	 -2.076860	 -0.007332	 -0.404944
H	 -3.439953	 0.057760	 1.173024
O	 -1.550391	 0.673353	 -1.456780
H	 -1.501964	 -0.852879	 -0.070670
C	 -0.465049	 0.121251	 -2.119401
C	 -0.900649	 -0.839106	 -3.203034
H	 0.202458	 -0.407419	 -1.448105
H	 0.078357	 0.927241	 -2.590119
F	 0.167470	 -1.310510	 -3.829699
F	 -1.563144	 -1.871025	 -2.706976
F	 -1.672975	 -0.258410	 -4.097849

	symmetry c1
}
set optking {
	frozen_dihedral = ("
		6 3 2 1
	")
}

ee = optimize('scf')
oeprop('DIPOLE', 'QUADRUPOLE', 'MULLIKEN_CHARGES')
f=open( 'psi4out.xyz', 'w' )
f.write( "13  " )
f.write( str(ee) + "\n" )
f.write( MOL.save_string_xyz() )
f.close()
--------------------------------------------------------------------------

    Molecular point group: c1
  Charge       = 0
  Multiplicity = 1
  Basis Set: 6-31G*
  Basis Set:
  @DF-RHF Final Energy:  -527.52729776336605
    Total Energy =                       -527.5272977633658229
    Molecular point group: c1
  Basis Set: 6-31G*
  Basis Set:
  Basis Set: 6-31G*
  Basis Set:
  @DF-RHF Final Energy:  -527.53217322987371
    Total Energy =                       -527.5321732298740471
  Basis Set: 6-31G*
  Basis Set:
  Basis Set: 6-31G*
  Basis Set:
  @DF-RHF Final Energy:  -527.53243368149674
    Total Energy =                       -527.5324336814967410
  Basis Set: 6-31G*
  Basis Set:
  Basis Set: 6-31G*
  Basis Set:
  @DF-RHF Final Energy:  -527.53245835525865
    Total Energy =                       -527.5324583552585409
  Basis Set: 6-31G*
  Basis Set:
  @DF-RHF Final Energy:  -527.53246235683991
    Total Energy =                       -527.5324623568401421
  @DF-RHF Final Energy:  -527.53246432751439
    Total Energy =                       -527.5324643275146173
  @DF-RHF Final Energy:  -527.53239511685229
    Total Energy =                       -527.5323951168521717
  @DF-RHF Final Energy:  -527.53246420550443
    Total Energy =                       -527.5324642055043114
  @DF-RHF Final Energy:  -527.53246408640643
    Total Energy =                       -527.5324640864064349
  @DF-RHF Final Energy:  -527.53245791817494
    Total Energy =                       -527.5324579181753961
  @DF-RHF Final Energy:  -527.53246435630103
    Total Energy =                       -527.5324643563013751
  @DF-RHF Final Energy:  -527.53246422350321
    Total Energy =                       -527.5324642235033252
  @DF-RHF Final Energy:  -527.53246414387320
    Total Energy =                       -527.5324641438728577
  Basis Set: 6-31G*
  Basis Set:
  @DF-RHF Final Energy:  -527.53246121373013
    Total Energy =                       -527.5324612137302438
  Basis Set: 6-31G*
  Basis Set:
  Basis Set: 6-31G*
  Basis Set:
  @DF-RHF Final Energy:  -527.53246409955932
    Total Energy =                       -527.5324640995594336
  Basis Set: 6-31G*
  Basis Set:
  Basis Set: 6-31G*
  Basis Set:
  @DF-RHF Final Energy:  -527.53246400971443
    Total Energy =                       -527.5324640097146585
  Basis Set: 6-31G*
  Basis Set:
  Charge       = 0
  Multiplicity = 1
  Basis Set: 6-31G*
  Basis Set:

    Orbital Energies (a.u.)
    -----------------------

    Doubly Occupied:

       1A    -26.345134     2A    -26.344428     3A    -26.341111
       4A    -20.608306     5A    -11.503609     6A    -11.318910
       7A    -11.300170     8A    -11.215823     9A     -1.742290
      10A     -1.640450    11A     -1.638816    12A     -1.438164
      13A     -1.084312    14A     -1.016670    15A     -0.925713
      16A     -0.837012    17A     -0.831547    18A     -0.821679
      19A     -0.791636    20A     -0.722402    21A     -0.711723
      22A     -0.696739    23A     -0.675981    24A     -0.660796
      25A     -0.655090    26A     -0.643713    27A     -0.634464
      28A     -0.584491    29A     -0.563629    30A     -0.523916
      31A     -0.512988    32A     -0.350219

  @DF-RHF Final Energy:  -527.53246407695815

   => Energetics <=

    Nuclear Repulsion Energy =            413.8938867217680695
    One-Electron Energy =               -1551.4888444584985336
    Two-Electron Energy =                 610.0624936597724854
    DFT Exchange-Correlation Energy =       0.0000000000000000
    Empirical Dispersion Energy =           0.0000000000000000
    PCM Polarization Energy =               0.0000000000000000
    EFP Energy =                            0.0000000000000000
    Total Energy =                       -527.5324640769580355
    Molecular point group: c1
  Basis Set: 6-31G*
  Basis Set:

  -Total Gradient:
     Atom            X                  Y                   Z
    ------   -----------------  -----------------  -----------------
       1       -0.005288506565    -0.008974403707    -0.005330298763
       2        0.004775942146     0.010013701853     0.003937487369
       3        0.006383881098     0.005013220543     0.009216971924
       4        0.000042966492     0.000064590502     0.000105883633
       5        0.000021804499     0.000152712697     0.000152170827
       6       -0.005905327304    -0.006264519546    -0.008014236062
       7       -0.000045843830    -0.000001230830    -0.000063274897
       8        0.000040436793     0.000004344055     0.000003446165
       9       -0.000000657725    -0.000001131364    -0.000000900509
      10        0.000002501124    -0.000003332396    -0.000002438967
      11        0.000015092710    -0.000008016639    -0.000002953003
      12       -0.000016219184     0.000013274648    -0.000011408193
      13       -0.000026070249    -0.000009209819     0.000009550466

  **** Optimization is complete! (in 17 steps) ****
    Final optimized geometry and variables:
    Molecular point group: c1

    Geometry (in Angstrom), charge = 0, multiplicity = 1:

    H           -2.487937310798     1.531099481345     2.007162910764
    C           -1.812581335910     0.852837547119     2.494057832978
    C           -0.667536321541     0.506764242166     1.950075126419
    H           -2.170972419749     0.316462464016     3.351794750618
    O           -0.163244929337     1.162321501368     0.870911387624
    H           -0.127202877097    -0.377521222373     2.238904587169
    C            0.905855884751     0.593364839954     0.196517171027
    C            0.445361097984    -0.391302879315    -0.854443215722
    H            1.587205511561     0.078903902371     0.865075314432
    H            1.439565777886     1.387229305100    -0.304790792574
    F            1.497862117193    -0.877755133974    -1.495410962793
    F           -0.205216593479    -1.411451149272    -0.318649971947
    F           -0.348829098069     0.168483436988    -1.743428607739

  Mulliken Charges: (a.u.)
   Center  Symbol    Alpha    Beta     Spin     Total
       1     H     0.40124  0.40124  0.00000  0.19753
       2     C     3.23329  3.23329  0.00000 -0.46658
       3     C     2.89837  2.89837  0.00000  0.20327
       4     H     0.40845  0.40845  0.00000  0.18311
       5     O     4.30045  4.30045  0.00000 -0.60089
       6     H     0.40588  0.40588  0.00000  0.18823
       7     C     3.06403  3.06403  0.00000 -0.12807
       8     C     2.45589  2.45589  0.00000  1.08821
       9     H     0.40546  0.40546  0.00000  0.18908
      10     H     0.38985  0.38985  0.00000  0.22030
      11     F     4.68260  4.68260  0.00000 -0.36521
      12     F     4.68002  4.68002  0.00000 -0.36005
      13     F     4.67447  4.67447  0.00000 -0.34893

   Total alpha = 32.00000, Total beta = 32.00000, Total charge =  0.00000
