  ==> Input File <==

--------------------------------------------------------------------------
set {
	reference rhf
	basis 6-31G*
}

set_num_threads( 4 )
memory 2 gb

molecule MOL {
0 1

H	 -2.646374	 -0.642757	 1.268656
C	 -2.083525	 -0.384536	 0.393091
O	 -0.807605	 -0.127164	 0.768327
F	 -2.118945	 -1.383102	 -0.486752
F	 -2.621877	 0.670592	 -0.209486
C	 0.084052	 0.273579	 -0.209957
C	 0.317685	 -0.927185	 -1.117558
Cl	 1.608314	 0.817531	 0.509736
H	 -0.300472	 1.080578	 -0.808846
F	 1.151623	 -0.615275	 -2.086785
F	 -0.830454	 -1.277065	 -1.662349
F	 0.797255	 -1.956385	 -0.462781

	symmetry c1
}
set optking {
	frozen_dihedral = ("
		9 6 3 2
	")
}

ee = optimize('scf')
oeprop('DIPOLE', 'QUADRUPOLE', 'MULLIKEN_CHARGES')
f=open( 'psi4out.xyz', 'w' )
f.write( "12  " )
f.write( str(ee) + "\n" )
f.write( MOL.save_string_xyz() )
f.close()
--------------------------------------------------------------------------

    Molecular point group: c1
  Charge       = 0
  Multiplicity = 1
  Basis Set: 6-31G*
  Basis Set:
  @DF-RHF Final Energy: -1146.23034862566851
    Total Energy =                      -1146.2303486256691940
    Molecular point group: c1
  Basis Set: 6-31G*
  Basis Set:
  Basis Set: 6-31G*
  Basis Set:
  @DF-RHF Final Energy: -1146.27651975710023
    Total Energy =                      -1146.2765197571002318
  Basis Set: 6-31G*
  Basis Set:
  Basis Set: 6-31G*
  Basis Set:
  @DF-RHF Final Energy: -1146.29170483691519
    Total Energy =                      -1146.2917048369158692
  Basis Set: 6-31G*
  Basis Set:
  Basis Set: 6-31G*
  Basis Set:
  @DF-RHF Final Energy: -1146.30076013167695
    Total Energy =                      -1146.3007601316771797
  Basis Set: 6-31G*
  Basis Set:
  @DF-RHF Final Energy: -1146.30523403815232
    Total Energy =                      -1146.3052340381518661
  @DF-RHF Final Energy: -1146.30682659370632
    Total Energy =                      -1146.3068265937060914
  @DF-RHF Final Energy: -1146.30722965575251
    Total Energy =                      -1146.3072296557525078
  @DF-RHF Final Energy: -1146.30735597767648
    Total Energy =                      -1146.3073559776762522
  Basis Set: 6-31G*
  Basis Set:
  @DF-RHF Final Energy: -1146.30737960667511
    Total Energy =                      -1146.3073796066746581
  Basis Set: 6-31G*
  Basis Set:
  Basis Set: 6-31G*
  Basis Set:
  @DF-RHF Final Energy: -1146.30738578400860
    Total Energy =                      -1146.3073857840086021
  Basis Set: 6-31G*
  Basis Set:
  Basis Set: 6-31G*
  Basis Set:
  @DF-RHF Final Energy: -1146.30738721893795
    Total Energy =                      -1146.3073872189381746
  Basis Set: 6-31G*
  Basis Set:
  Charge       = 0
  Multiplicity = 1
  Basis Set: 6-31G*
  Basis Set:

    Orbital Energies (a.u.)
    -----------------------

    Doubly Occupied:

       1A   -104.846723     2A    -26.359298     3A    -26.359276
       4A    -26.357767     5A    -26.349558     6A    -26.339149
       7A    -20.644863     8A    -11.527202     9A    -11.488457
      10A    -11.401946    11A    -10.581322    12A     -8.050720
      13A     -8.047105    14A     -8.047020    15A     -1.761424
      16A     -1.715162    17A     -1.657556    18A     -1.656253
      19A     -1.637538    20A     -1.478410    21A     -1.182793
      22A     -1.043840    23A     -0.991538    24A     -0.918510
      25A     -0.853143    26A     -0.849034    27A     -0.845602
      28A     -0.831687    29A     -0.816022    30A     -0.785574
      31A     -0.727145    32A     -0.724749    33A     -0.706517
      34A     -0.692755    35A     -0.676854    36A     -0.674010
      37A     -0.660192    38A     -0.655711    39A     -0.645460
      40A     -0.640471    41A     -0.591666    42A     -0.558264
      43A     -0.529512    44A     -0.480026    45A     -0.469477

  @DF-RHF Final Energy: -1146.30738786077109

   => Energetics <=

    Nuclear Repulsion Energy =            748.0371580751551619
    One-Electron Energy =               -3078.9744903292130402
    Two-Electron Energy =                1184.6299443932859958
    DFT Exchange-Correlation Energy =       0.0000000000000000
    Empirical Dispersion Energy =           0.0000000000000000
    PCM Polarization Energy =               0.0000000000000000
    EFP Energy =                            0.0000000000000000
    Total Energy =                      -1146.3073878607717688
    Molecular point group: c1
  Basis Set: 6-31G*
  Basis Set:

  -Total Gradient:
     Atom            X                  Y                   Z
    ------   -----------------  -----------------  -----------------
       1       -0.000004484742    -0.000017092951    -0.000014590286
       2        0.000476174441    -0.002289725583    -0.000532511470
       3       -0.000402942091     0.003956056327     0.001374437892
       4       -0.000008472205     0.000010659986     0.000029766353
       5        0.000017957636    -0.000002769434     0.000019833540
       6       -0.001238432004    -0.003290456534    -0.002566237926
       7       -0.000095841976    -0.000023890888     0.000043059388
       8       -0.000043917910    -0.000020498267    -0.000021114919
       9        0.001231836572     0.001639428448     0.001776378800
      10       -0.000016222458    -0.000032060047    -0.000004496029
      11        0.000073388099     0.000007900140    -0.000084360212
      12        0.000010956670     0.000062448797    -0.000020165151

  **** Optimization is complete! (in 12 steps) ****
    Final optimized geometry and variables:
    Molecular point group: c1

    Geometry (in Angstrom), charge = 0, multiplicity = 1:

    H           -2.409331851983     0.147748415433     1.824138852953
    C           -1.877880797783     0.039459485781     0.898250737343
    O           -0.558230393261     0.241241711267     1.150830230623
    F           -2.094657803726    -1.172232621943     0.406933827628
    F           -2.332291291169     0.917748345617     0.006975712803
    C            0.328655624205     0.652116711402     0.163826565536
    C            0.667037826587    -0.454295669748    -0.835260364379
    CL           1.794489869921     1.165395526971     1.008470201820
    H           -0.042984515088     1.508052602818    -0.371971469378
    F            1.633034452023    -0.059645810878    -1.637574167253
    F           -0.388038756592    -0.711454912398    -1.583482294220
    F            1.036265156272    -1.560280166939    -0.238256970105

  Mulliken Charges: (a.u.)
   Center  Symbol    Alpha    Beta     Spin     Total
       1     H     0.40463  0.40463  0.00000  0.19074
       2     C     2.56162  2.56162  0.00000  0.87676
       3     O     4.30790  4.30790  0.00000 -0.61581
       4     F     4.67990  4.67990  0.00000 -0.35981
       5     F     4.68739  4.68739  0.00000 -0.37477
       6     C     3.03906  3.03906  0.00000 -0.07812
       7     C     2.44393  2.44393  0.00000  1.11214
       8    CL     8.49357  8.49357  0.00000  0.01285
       9     H     0.36758  0.36758  0.00000  0.26484
      10     F     4.67274  4.67274  0.00000 -0.34548
      11     F     4.67503  4.67503  0.00000 -0.35006
      12     F     4.66664  4.66664  0.00000 -0.33329

   Total alpha = 45.00000, Total beta = 45.00000, Total charge =  0.00000
