  ==> Input File <==

--------------------------------------------------------------------------
set {
	reference rhf
	basis 6-31G*
}

set_num_threads( 4 )
memory 2 gb

molecule MOL {
0 1

O	 1.208717	 1.379009	 -0.297396
C	 0.861134	 0.272526	 -0.014869
C	 -0.623889	 -0.118271	 -0.003699
C	 1.901062	 -0.773218	 0.347033
C	 -0.895332	 -1.256461	 -1.002431
C	 -1.473649	 1.103340	 -0.370799
C	 -0.983900	 -0.581483	 1.422328
H	 -0.615301	 -0.972064	 -2.012700
H	 -1.954261	 -1.493213	 -1.010207
H	 -0.360539	 -2.164946	 -0.747760
H	 -1.227476	 1.468527	 -1.361691
H	 -2.526716	 0.838935	 -0.358521
H	 -1.314819	 1.915855	 0.325860
H	 -2.039679	 -0.828001	 1.472951
H	 -0.427637	 -1.464071	 1.720694
H	 -0.789023	 0.202493	 2.147048
H	 2.073276	 -1.422386	 -0.506421
H	 2.827509	 -0.271249	 0.589605
H	 1.595034	 -1.399429	 1.176146

	symmetry c1
}
set optking {
	frozen_dihedral = ("
		1 2 3 5
	")
}

ee = optimize('scf')
oeprop('DIPOLE', 'QUADRUPOLE', 'MULLIKEN_CHARGES')
f=open( 'psi4out.xyz', 'w' )
f.write( "19  " )
f.write( str(ee) + "\n" )
f.write( MOL.save_string_xyz() )
f.close()
--------------------------------------------------------------------------

    Molecular point group: c1
  Charge       = 0
  Multiplicity = 1
  Basis Set: 6-31G*
  Basis Set:
  @DF-RHF Final Energy:  -309.06213451126780
    Total Energy =                       -309.0621345112679137
    Molecular point group: c1
  Basis Set: 6-31G*
  Basis Set:
  Basis Set: 6-31G*
  Basis Set:
  @DF-RHF Final Energy:  -309.06071260397897
    Total Energy =                       -309.0607126039789705
  Basis Set: 6-31G*
  Basis Set:
  Basis Set: 6-31G*
  Basis Set:
  @DF-RHF Final Energy:  -309.06149062284675
    Total Energy =                       -309.0614906228465770
  Basis Set: 6-31G*
  Basis Set:
  Basis Set: 6-31G*
  Basis Set:
  @DF-RHF Final Energy:  -309.06267013175375
    Total Energy =                       -309.0626701317534071
  Basis Set: 6-31G*
  Basis Set:
  @DF-RHF Final Energy:  -309.06269621161152
    Total Energy =                       -309.0626962116112395
  @DF-RHF Final Energy:  -309.06263618543642
    Total Energy =                       -309.0626361854365314
  @DF-RHF Final Energy:  -309.06273443169636
    Total Energy =                       -309.0627344316965264
  Basis Set: 6-31G*
  Basis Set:
  @DF-RHF Final Energy:  -309.06273705992493
    Total Energy =                       -309.0627370599247001
  Basis Set: 6-31G*
  Basis Set:
  Basis Set: 6-31G*
  Basis Set:
  @DF-RHF Final Energy:  -309.06274221106401
    Total Energy =                       -309.0627422110644034
  Basis Set: 6-31G*
  Basis Set:
  Basis Set: 6-31G*
  Basis Set:
  @DF-RHF Final Energy:  -309.06274367961680
    Total Energy =                       -309.0627436796167444
  Basis Set: 6-31G*
  Basis Set:
  Charge       = 0
  Multiplicity = 1
  Basis Set: 6-31G*
  Basis Set:

    Orbital Energies (a.u.)
    -----------------------

    Doubly Occupied:

       1A    -20.548296     2A    -11.322785     3A    -11.246521
       4A    -11.226389     5A    -11.224923     6A    -11.224623
       7A    -11.207561     8A     -1.394667     9A     -1.109544
      10A     -1.001332    11A     -0.947506    12A     -0.934140
      13A     -0.835303    14A     -0.703515    15A     -0.664391
      16A     -0.631199    17A     -0.618964    18A     -0.599077
      19A     -0.593199    20A     -0.564722    21A     -0.546218
      22A     -0.543480    23A     -0.523034    24A     -0.512553
      25A     -0.497741    26A     -0.470499    27A     -0.467816
      28A     -0.392822

  @DF-RHF Final Energy:  -309.06274387994256

   => Energetics <=

    Nuclear Repulsion Energy =            326.1984573770122324
    One-Electron Energy =               -1065.4167619032036782
    Two-Electron Energy =                 430.1555606462491141
    DFT Exchange-Correlation Energy =       0.0000000000000000
    Empirical Dispersion Energy =           0.0000000000000000
    PCM Polarization Energy =               0.0000000000000000
    EFP Energy =                            0.0000000000000000
    Total Energy =                       -309.0627438799423317
    Molecular point group: c1
  Basis Set: 6-31G*
  Basis Set:

  -Total Gradient:
     Atom            X                  Y                   Z
    ------   -----------------  -----------------  -----------------
       1        0.000067809288    -0.000395422344    -0.001363669847
       2       -0.000166057928     0.000768679165     0.001659600489
       3        0.000268521289    -0.001051107097     0.000422421097
       4       -0.000014731536    -0.000002021260     0.000019894724
       5       -0.000179568841     0.000675278337    -0.000725883822
       6        0.000011951149    -0.000002768566    -0.000003583572
       7        0.000006115551     0.000000119056     0.000009001828
       8       -0.000005988681    -0.000002210953    -0.000005662982
       9        0.000002088330     0.000000106238     0.000001185321
      10        0.000006588860     0.000003169991    -0.000000707635
      11       -0.000001110890     0.000006471692    -0.000005833954
      12        0.000003349745     0.000001026076    -0.000000368672
      13       -0.000000454194    -0.000000175819    -0.000000512646
      14        0.000000169589    -0.000000124316    -0.000001535580
      15        0.000004438506    -0.000002859499     0.000001166600
      16       -0.000003892003     0.000001619380     0.000001673288
      17       -0.000001085973     0.000000471635    -0.000007750948
      18        0.000001010906    -0.000001787940    -0.000001605219
      19        0.000000846833     0.000001536228     0.000002171532

  **** Optimization is complete! (in 11 steps) ****
    Final optimized geometry and variables:
    Molecular point group: c1

    Geometry (in Angstrom), charge = 0, multiplicity = 1:

    O            1.209148059500     1.375524313209    -0.311728238794
    C            0.860182522001     0.272568821491    -0.017175892964
    C           -0.625097921779    -0.116370400175     0.010097477657
    C            1.909267344043    -0.785717842615     0.280620975928
    C           -0.863010427400    -1.263978612910    -0.989071328806
    C           -1.471256343919     1.096188377406    -0.393888936924
    C           -1.023877135809    -0.564511675707     1.428865896783
    H           -0.569352053115    -0.976679299399    -1.994264061260
    H           -1.917513764024    -1.519108309363    -1.012692493664
    H           -0.315630434485    -2.161468524553    -0.720201195004
    H           -1.213087443597     1.442618946972    -1.386985797947
    H           -2.524190700039     0.830700517340    -0.386557774754
    H           -1.322840284168     1.923722002203     0.288939507808
    H           -2.089933023552    -0.764499934102     1.462106853345
    H           -0.514252651922    -1.470320737894     1.737322648052
    H           -0.810572117213     0.209582569334     2.159954773594
    H            2.111738152467    -1.345689624982    -0.627963083218
    H            2.822728840508    -0.291998452425     0.582682771928
    H            1.605261277202    -1.492454893143     1.041396324800

  Mulliken Charges: (a.u.)
   Center  Symbol    Alpha    Beta     Spin     Total
       1     O     4.26357  4.26357  0.00000 -0.52713
       2     C     2.72601  2.72601  0.00000  0.54797
       3     C     3.07090  3.07090  0.00000 -0.14180
       4     C     3.28790  3.28790  0.00000 -0.57579
       5     C     3.24222  3.24222  0.00000 -0.48444
       6     C     3.22526  3.22526  0.00000 -0.45052
       7     C     3.24113  3.24113  0.00000 -0.48226
       8     H     0.41284  0.41284  0.00000  0.17432
       9     H     0.41297  0.41297  0.00000  0.17406
      10     H     0.41712  0.41712  0.00000  0.16576
      11     H     0.41120  0.41120  0.00000  0.17760
      12     H     0.42418  0.42418  0.00000  0.15165
      13     H     0.41108  0.41108  0.00000  0.17783
      14     H     0.41291  0.41291  0.00000  0.17419
      15     H     0.41821  0.41821  0.00000  0.16358
      16     H     0.41239  0.41239  0.00000  0.17522
      17     H     0.40311  0.40311  0.00000  0.19377
      18     H     0.39626  0.39626  0.00000  0.20748
      19     H     0.41075  0.41075  0.00000  0.17851

   Total alpha = 28.00000, Total beta = 28.00000, Total charge = -0.00000
