  ==> Input File <==

--------------------------------------------------------------------------
set {
	reference rhf
	basis cc-pvtz
}

set_num_threads( 4 )
memory 2 gb

molecule MOL {
0 1

H	 -2.186000	 0.880000	 0.473000
C	 -2.033000	 0.000000	 -0.145000
O	 -0.788000	 0.001000	 -0.773000
H	 -2.775000	 0.005000	 -0.932000
H	 -2.189000	 -0.885000	 0.465000
C	 0.393000	 -0.000000	 0.009000
C	 1.513000	 -0.004000	 -1.029000
C	 0.484000	 1.262000	 0.872000
C	 0.480000	 -1.260000	 0.877000
H	 1.438000	 0.873000	 -1.663000
H	 1.435000	 -0.882000	 -1.659000
H	 2.488000	 -0.004000	 -0.552000
H	 0.348000	 2.147000	 0.259000
H	 1.458000	 1.323000	 1.348000
H	 -0.262000	 1.275000	 1.659000
H	 0.341000	 -2.146000	 0.266000
H	 1.453000	 -1.322000	 1.352000
H	 -0.267000	 -1.267000	 1.664000

	symmetry c1
}
ee = optimize('scf')
oeprop('DIPOLE', 'QUADRUPOLE', 'MULLIKEN_CHARGES')
f=open( 'psi4out.xyz', 'w' )
f.write( "18  " )
f.write( str(ee) + "\n" )
f.write( MOL.save_string_xyz() )
f.close()
--------------------------------------------------------------------------

    Molecular point group: c1
  Charge       = 0
  Multiplicity = 1
  Basis Set: CC-PVTZ
  Basis Set:
  @DF-RHF Final Energy:  -271.27670055357532
    Total Energy =                       -271.2767005535754379
    Molecular point group: c1
  Basis Set: CC-PVTZ
  Basis Set:
  Basis Set: CC-PVTZ
  Basis Set:
  @DF-RHF Final Energy:  -271.27674885206437
    Total Energy =                       -271.2767488520640882
  Basis Set: CC-PVTZ
  Basis Set:
  Basis Set: CC-PVTZ
  Basis Set:
  @DF-RHF Final Energy:  -271.27670431273845
    Total Energy =                       -271.2767043127381044
  Basis Set: CC-PVTZ
  Basis Set:
  Basis Set: CC-PVTZ
  Basis Set:
  @DF-RHF Final Energy:  -271.27675665395913
    Total Energy =                       -271.2767566539596942
  Basis Set: CC-PVTZ
  Basis Set:
  Basis Set: CC-PVTZ
  Basis Set:
  @DF-RHF Final Energy:  -271.27675511362702
    Total Energy =                       -271.2767551136271322
  Basis Set: CC-PVTZ
  Basis Set:
  Basis Set: CC-PVTZ
  Basis Set:
  @DF-RHF Final Energy:  -271.27675701001476
    Total Energy =                       -271.2767570100146486
  Basis Set: CC-PVTZ
  Basis Set:
  Charge       = 0
  Multiplicity = 1
  Basis Set: CC-PVTZ
  Basis Set:

    Orbital Energies (a.u.)
    -----------------------

    Doubly Occupied:

       1A    -20.540654     2A    -11.280117     3A    -11.258040
       4A    -11.207087     5A    -11.207062     6A    -11.201795
       7A     -1.373683     8A     -1.074670     9A     -0.946715
      10A     -0.940847    11A     -0.913178    12A     -0.753503
      13A     -0.656646    14A     -0.646661    15A     -0.639407
      16A     -0.593899    17A     -0.575990    18A     -0.553302
      19A     -0.534331    20A     -0.524847    21A     -0.515064
      22A     -0.488137    23A     -0.488068    24A     -0.440773
      25A     -0.407738

  @DF-RHF Final Energy:  -271.27675701598406

   => Energetics <=

    Nuclear Repulsion Energy =            272.6677920016346093
    One-Electron Energy =                -908.3646647638818195
    Two-Electron Energy =                 364.4201157462631500
    DFT Exchange-Correlation Energy =       0.0000000000000000
    Empirical Dispersion Energy =           0.0000000000000000
    PCM Polarization Energy =               0.0000000000000000
    EFP Energy =                            0.0000000000000000
    Total Energy =                       -271.2767570159841171
    Molecular point group: c1
  Basis Set: CC-PVTZ
  Basis Set:

  -Total Gradient:
     Atom            X                  Y                   Z
    ------   -----------------  -----------------  -----------------
       1       -0.000000425332     0.000008987261     0.000011239302
       2        0.000026367919     0.000001263699    -0.000012415175
       3       -0.000006732161     0.000011287641     0.000015168822
       4       -0.000004183118     0.000002662620    -0.000002768469
       5       -0.000003543560     0.000000395990    -0.000002419096
       6       -0.000009398098    -0.000030138831    -0.000009842808
       7       -0.000003552185     0.000005174710     0.000003450083
       8       -0.000007474226     0.000002486343    -0.000007776312
       9        0.000010355498     0.000004213249     0.000004511079
      10       -0.000000536018     0.000001457537    -0.000006655072
      11       -0.000002145253    -0.000003399000     0.000004295953
      12        0.000003320703     0.000005592729     0.000002822888
      13       -0.000002344505     0.000000329458    -0.000002504140
      14        0.000005863554    -0.000001798618     0.000002034459
      15       -0.000009067308    -0.000003016027     0.000000368261
      16        0.000001836396    -0.000006664156    -0.000002621613
      17        0.000001364697     0.000000066786     0.000001152120
      18        0.000000293001     0.000001098608     0.000001959714

  **** Optimization is complete! (in 7 steps) ****
    Final optimized geometry and variables:
    Molecular point group: c1

    Geometry (in Angstrom), charge = 0, multiplicity = 1:

    H           -2.171709686115     0.882708049111     0.500286440644
    C           -2.016894291983     0.001719025597    -0.114151702752
    O           -0.775228366700     0.000055560221    -0.739965974980
    H           -2.760846159113     0.003756820119    -0.898168908664
    H           -2.174774048835    -0.879864068164     0.498643313046
    C            0.406132718221    -0.000383809475     0.036994006993
    C            1.526414004113    -0.003194347124    -0.997338927433
    C            0.498771149147     1.259027432804     0.900673730543
    C            0.495882702487    -1.257378111957     0.904465597168
    H            1.452278648427     0.872071409451    -1.630203876062
    H            1.451275459650    -0.881020215752    -1.626528720277
    H            2.497918772095    -0.002741431878    -0.517600673027
    H            0.368980098902     2.144238879538     0.289753467028
    H            1.470063566746     1.313479440119     1.377659863635
    H           -0.248448406716     1.271585995763     1.684296808114
    H            0.363970559608    -2.144194670349     0.296316589640
    H            1.467113463777    -1.312635909071     1.381470125109
    H           -0.251246468831    -1.265767906345     1.688235062119

  Mulliken Charges: (a.u.)
   Center  Symbol    Alpha    Beta     Spin     Total
       1     H     0.46983  0.46983  0.00000  0.06034
       2     C     3.04424  3.04424  0.00000 -0.08848
       3     O     4.18980  4.18980  0.00000 -0.37960
       4     H     0.44022  0.44022  0.00000  0.11956
       5     H     0.46980  0.46980  0.00000  0.06041
       6     C     2.87275  2.87275  0.00000  0.25450
       7     C     3.14153  3.14153  0.00000 -0.28306
       8     C     3.16446  3.16446  0.00000 -0.32893
       9     C     3.16451  3.16451  0.00000 -0.32902
      10     H     0.44880  0.44880  0.00000  0.10240
      11     H     0.44883  0.44883  0.00000  0.10234
      12     H     0.45939  0.45939  0.00000  0.08123
      13     H     0.44511  0.44511  0.00000  0.10978
      14     H     0.44840  0.44840  0.00000  0.10320
      15     H     0.44943  0.44943  0.00000  0.10114
      16     H     0.44511  0.44511  0.00000  0.10979
      17     H     0.44837  0.44837  0.00000  0.10325
      18     H     0.44943  0.44943  0.00000  0.10114

   Total alpha = 25.00000, Total beta = 25.00000, Total charge =  0.00000
