  ==> Input File <==

--------------------------------------------------------------------------
set {
	reference rhf
	basis 6-31G*
}

set_num_threads( 1 )
memory 2 gb

molecule MOL {
0 1

H	 -1.970663	 -0.476823	 0.951741
O	 -2.035884	 -0.060112	 0.102722
C	 -0.955155	 0.788182	 -0.092531
C	 0.353668	 0.040312	 -0.004810
H	 -0.985057	 1.290372	 -1.054184
H	 -0.974469	 1.533190	 0.688632
F	 0.394464	 -0.937475	 -0.903053
F	 1.368604	 0.853376	 -0.249821
F	 0.546173	 -0.502608	 1.179981

	symmetry c1
}
set optking {
	frozen_dihedral = ("
		7 4 3 5
	")
}

ee = energy('scf')
oeprop('DIPOLE', 'QUADRUPOLE', 'MULLIKEN_CHARGES')
f=open( 'psi4out.xyz', 'w' )
f.write( "9  " )
f.write( str(ee) + "\n" )
f.write( MOL.save_string_xyz() )
f.close()
--------------------------------------------------------------------------

    Molecular point group: c1

    Geometry (in Angstrom), charge = 0, multiplicity = 1:

       Center              X                  Y                   Z               Mass
    ------------   -----------------  -----------------  -----------------  -----------------
           H         -1.971955964656    -0.478813207744     0.935936116533     1.007825032070
           O         -2.037176964656    -0.062102207744     0.086917116533    15.994914619560
           C         -0.956447964656     0.786191792256    -0.108335883467    12.000000000000
           C          0.352375035344     0.038321792256    -0.020614883467    12.000000000000
           H         -0.986349964656     1.288381792256    -1.069988883467     1.007825032070
           H         -0.975761964656     1.531199792256     0.672827116533     1.007825032070
           F          0.393171035344    -0.939465207744    -0.918857883467    18.998403224000
           F          1.367311035344     0.851385792256    -0.265625883467    18.998403224000
           F          0.544880035344    -0.504598207744     1.164176116533    18.998403224000

  Charge       = 0
  Multiplicity = 1
  Basis Set: 6-31G*
  Basis Set:

    Orbital Energies (a.u.)
    -----------------------

    Doubly Occupied:

       1A    -26.350506     2A    -26.344173     3A    -26.335226
       4A    -20.588816     5A    -11.501400     6A    -11.310227
       7A     -1.742009     8A     -1.644223     9A     -1.633371
      10A     -1.402347    11A     -1.048450    12A     -0.924841
      13A     -0.832175    14A     -0.829231    15A     -0.807096
      16A     -0.725160    17A     -0.713842    18A     -0.695649
      19A     -0.668294    20A     -0.658809    21A     -0.643044
      22A     -0.634086    23A     -0.616560    24A     -0.527684
      25A     -0.478283

  @DF-RHF Final Energy:  -450.66032547795237

   => Energetics <=

    Nuclear Repulsion Energy =            277.2116461149985298
    One-Electron Energy =               -1176.4329476019024696
    Two-Electron Energy =                 448.5609760089522524
    DFT Exchange-Correlation Energy =       0.0000000000000000
    Empirical Dispersion Energy =           0.0000000000000000
    PCM Polarization Energy =               0.0000000000000000
    EFP Energy =                            0.0000000000000000
    Total Energy =                       -450.6603254779516874

  Mulliken Charges: (a.u.)
   Center  Symbol    Alpha    Beta     Spin     Total
       1     H     0.27243  0.27243  0.00000  0.45513
       2     O     4.36262  4.36262  0.00000 -0.72524
       3     C     3.04909  3.04909  0.00000 -0.09817
       4     C     2.46925  2.46925  0.00000  1.06151
       5     H     0.39434  0.39434  0.00000  0.21133
       6     H     0.41067  0.41067  0.00000  0.17865
       7     F     4.68008  4.68008  0.00000 -0.36015
       8     F     4.68143  4.68143  0.00000 -0.36285
       9     F     4.68010  4.68010  0.00000 -0.36020

   Total alpha = 25.00000, Total beta = 25.00000, Total charge =  0.00000
