  ==> Input File <==

--------------------------------------------------------------------------
set {
	reference rhf
	basis cc-pvtz
}

set_num_threads( 4 )
memory 2 gb

molecule MOL {
0 1

H	 1.583656	 1.086309	 1.091132
C	 0.703793	 1.196416	 0.474344
O	 -0.000000	 0.000000	 0.518769
H	 0.109004	 2.023143	 0.857234
H	 1.015122	 1.438246	 -0.539780
C	 -1.165153	 0.000000	 -0.236961
H	 -1.229451	 0.882440	 -0.870223
H	 -2.002557	 0.000000	 0.445289
H	 -1.229451	 -0.882440	 -0.870223

	symmetry c1
}
set optking {
	frozen_dihedral = ("
		2 3 6 7
	")
}

ee = optimize('scf')
oeprop('DIPOLE', 'QUADRUPOLE', 'MULLIKEN_CHARGES')
f=open( 'psi4out.xyz', 'w' )
f.write( "9  " )
f.write( str(ee) + "\n" )
f.write( MOL.save_string_xyz() )
f.close()
--------------------------------------------------------------------------

    Molecular point group: c1
  Charge       = 0
  Multiplicity = 1
  Basis Set: CC-PVTZ
  Basis Set:
  @DF-RHF Final Energy:  -154.12307758299505
    Total Energy =                       -154.1230775829950801
    Molecular point group: c1
  Basis Set: CC-PVTZ
  Basis Set:
  Basis Set: CC-PVTZ
  Basis Set:
  @DF-RHF Final Energy:  -154.12357729156861
    Total Energy =                       -154.1235772915684947
  Basis Set: CC-PVTZ
  Basis Set:
  Basis Set: CC-PVTZ
  Basis Set:
  @DF-RHF Final Energy:  -154.12369171815297
    Total Energy =                       -154.1236917181529122
  Basis Set: CC-PVTZ
  Basis Set:
  Charge       = 0
  Multiplicity = 1
  Basis Set: CC-PVTZ
  Basis Set:

    Orbital Energies (a.u.)
    -----------------------

    Doubly Occupied:

       1A    -20.546780     2A    -11.263588     3A    -11.262679
       4A     -1.377926     5A     -0.975820     6A     -0.872626
       7A     -0.658950     8A     -0.654986     9A     -0.644866
      10A     -0.558539    11A     -0.527977    12A     -0.475405
      13A     -0.415004

  @DF-RHF Final Energy:  -154.12369265108387

   => Energetics <=

    Nuclear Repulsion Energy =             84.5911533056530800
    One-Electron Energy =                -376.9594033938809616
    Two-Electron Energy =                 138.2445574371440671
    DFT Exchange-Correlation Energy =       0.0000000000000000
    Empirical Dispersion Energy =           0.0000000000000000
    PCM Polarization Energy =               0.0000000000000000
    EFP Energy =                            0.0000000000000000
    Total Energy =                       -154.1236926510838430
    Molecular point group: c1
  Basis Set: CC-PVTZ
  Basis Set:

  -Total Gradient:
     Atom            X                  Y                   Z
    ------   -----------------  -----------------  -----------------
       1        0.000015041167     0.000017842804     0.000012306705
       2        0.000685481357    -0.000337882942    -0.000926733852
       3       -0.001140454457     0.000766720423     0.001556581084
       4       -0.000022357823    -0.000057704162    -0.000016723852
       5       -0.000023294492    -0.000007343940     0.000003604359
       6        0.001103018428    -0.001088500644    -0.001671113545
       7       -0.000631934133     0.000712180376     0.001063208722
       8       -0.000018011426    -0.000007790790    -0.000010282191
       9        0.000032511379     0.000002478876    -0.000010847429

  **** Optimization is complete! (in 4 steps) ****
    Final optimized geometry and variables:
    Molecular point group: c1

    Geometry (in Angstrom), charge = 0, multiplicity = 1:

    H            1.756556989533     0.654521871582     0.847042495417
    C            0.877483752591     0.785697388704     0.232499102487
    O            0.157023737140    -0.401993926743     0.268321927380
    H            0.300672106592     1.619646571026     0.626464019932
    H            1.193002476768     1.031971271922    -0.778609599722
    C           -1.021087665847    -0.419135430984    -0.477754169267
    H           -1.108231394532     0.452970666708    -1.118023266840
    H           -1.883141183954    -0.436341965361     0.181533536981
    H           -1.041072458687    -1.307423511196    -1.096660825761

  Mulliken Charges: (a.u.)
   Center  Symbol    Alpha    Beta     Spin     Total
       1     H     0.44977  0.44977  0.00000  0.10047
       2     C     3.02081  3.02081  0.00000 -0.04163
       3     O     4.17266  4.17266  0.00000 -0.34533
       4     H     0.47331  0.47331  0.00000  0.05337
       5     H     0.47280  0.47280  0.00000  0.05439
       6     C     3.01645  3.01645  0.00000 -0.03291
       7     H     0.47481  0.47481  0.00000  0.05037
       8     H     0.46240  0.46240  0.00000  0.07521
       9     H     0.45697  0.45697  0.00000  0.08605

   Total alpha = 13.00000, Total beta = 13.00000, Total charge = -0.00000
