                              Psi4 1.0.54 Driver

  ==> Input File <==

--------------------------------------------------------------------------
set {
	reference rhf
	basis cc-pvtz
}

set_num_threads( 4 )
memory 2 gb

molecule MOL {
0 1

O	 -2.440701	 -0.934798	 -0.415053
C	 -1.922978	 0.063265	 -0.045005
C	 -2.632749	 1.372204	 0.158357
O	 -0.637375	 0.157174	 0.243149
H	 -2.187724	 2.129143	 -0.474664
H	 -3.677681	 1.257276	 -0.079438
H	 -2.516788	 1.693160	 1.185542
C	 0.162530	 -1.009518	 0.097799
C	 1.587210	 -0.664190	 0.477086
H	 0.096803	 -1.356267	 -0.924704
H	 -0.233803	 -1.785900	 0.736810
C	 2.602339	 -0.875778	 -0.642962
H	 1.853248	 -1.282147	 1.330367
H	 1.620635	 0.366622	 0.816420
C	 4.028103	 -0.545012	 -0.214702
H	 2.555782	 -1.909428	 -0.975375
H	 2.329238	 -0.265190	 -1.495863
H	 4.727721	 -0.707622	 -1.026169
H	 4.341422	 -1.162626	 0.620628
H	 4.113498	 0.492080	 0.092159

	symmetry c1
}
set optking {
	frozen_dihedral = ("
		12 9 8 10
	")
}

ee,wfn = optimize('scf', return_wfn=True)
oeprop( wfn, 'DIPOLE', 'QUADRUPOLE', 'MULLIKEN_CHARGES')
f=open( 'psi4out.xyz', 'w' )
f.write( "20  " )
f.write( str(ee) + "\n" )
f.write( MOL.save_string_xyz() )
f.close()
--------------------------------------------------------------------------

    Molecular point group: c1
  Charge       = 0
  Multiplicity = 1
  Basis Set: CC-PVTZ
  Basis Set:
  @DF-RHF Final Energy:  -384.08159206349961
    Total Energy =                       -384.0815920634995564
    Molecular point group: c1
  Basis Set: CC-PVTZ
  Basis Set:
  Basis Set: CC-PVTZ
  Basis Set:
  @DF-RHF Final Energy:  -384.08195235468696
    Total Energy =                       -384.0819523546871324
  Basis Set: CC-PVTZ
  Basis Set:
  Basis Set: CC-PVTZ
  Basis Set:
  @DF-RHF Final Energy:  -384.08180973288665
    Total Energy =                       -384.0818097328867680
  Basis Set: CC-PVTZ
  Basis Set:
  Basis Set: CC-PVTZ
  Basis Set:
  @DF-RHF Final Energy:  -384.08203358616254
    Total Energy =                       -384.0820335861627655
  Basis Set: CC-PVTZ
  Basis Set:
  Charge       = 0
  Multiplicity = 1
  Basis Set: CC-PVTZ
  Basis Set:

    Orbital Energies (a.u.)
    -----------------------

    Doubly Occupied:

       1A    -20.594005     2A    -20.532177     3A    -11.365928
       4A    -11.279903     5A    -11.231235     6A    -11.222720
       7A    -11.222028     8A    -11.212787     9A     -1.470261
      10A     -1.364385    11A     -1.086176    12A     -1.029932
      13A     -0.980175    14A     -0.882753    15A     -0.808122
      16A     -0.781830    17A     -0.692139    18A     -0.684857
      19A     -0.670499    20A     -0.634736    21A     -0.601080
      22A     -0.593990    23A     -0.571569    24A     -0.556193
      25A     -0.545580    26A     -0.523793    27A     -0.514326
      28A     -0.482117    29A     -0.480904    30A     -0.476559
      31A     -0.450060    32A     -0.440221

  @DF-RHF Final Energy:  -384.08203361468838

   => Energetics <=

    Nuclear Repulsion Energy =            380.7048272827527171
    One-Electron Energy =               -1277.6076486850467973
    Two-Electron Energy =                 512.8207877876056955
    DFT Exchange-Correlation Energy =       0.0000000000000000
    Empirical Dispersion Energy =           0.0000000000000000
    PCM Polarization Energy =               0.0000000000000000
    EFP Energy =                            0.0000000000000000
    Total Energy =                       -384.0820336146883847
    Molecular point group: c1
  Basis Set: CC-PVTZ
  Basis Set:

  -Total Gradient:
     Atom            X                  Y                   Z
    ------   -----------------  -----------------  -----------------
       1        0.000024003425    -0.000034834535     0.000021772214
       2       -0.000003696846     0.000035097266    -0.000103566018
       3        0.000000263856     0.000011944047     0.000056684097
       4       -0.000028902362    -0.000064763286     0.000034016994
       5       -0.000001673354     0.000004735309    -0.000005293744
       6        0.000015559226    -0.000014999944    -0.000001385378
       7       -0.000001166588     0.000021750732     0.000001880014
       8        0.000133303855    -0.000226234278     0.000231954250
       9       -0.000147661406     0.000272023246    -0.000240141301
      10       -0.000012703452     0.000228220855    -0.000096621746
      11        0.000027621930    -0.000000134528     0.000005495080
      12        0.000007489651    -0.000222428973     0.000058125673
      13       -0.000074173472    -0.000061683085    -0.000005556235
      14        0.000008729233     0.000027119734     0.000027821623
      15        0.000027902281     0.000055964381    -0.000012017893
      16        0.000010889775    -0.000013442435     0.000023132443
      17       -0.000005036559    -0.000041117867     0.000008053499
      18        0.000014136208     0.000021146416    -0.000000170351
      19       -0.000010846562    -0.000003879387    -0.000014966841
      20        0.000015961158     0.000005516333     0.000010783622

  **** Optimization is complete! (in 5 steps) ****
    Final optimized geometry and variables:
    Molecular point group: c1

    Geometry (in Angstrom), charge = 0, multiplicity = 1:

    O           -2.520831836175    -0.621445833197    -0.417183340055
    C           -2.006054147901     0.371076240173    -0.028027638241
    C           -2.713681990756     1.681838807370     0.170242379447
    O           -0.726465923525     0.456931358038     0.287004621302
    H           -2.250081507143     2.441557220517    -0.445798958195
    H           -3.753437966490     1.574345391408    -0.092449440085
    H           -2.619653902132     1.993224556215     1.202557405677
    C            0.069762229439    -0.715531659223     0.149504998991
    C            1.505323450648    -0.379599664186     0.557449131281
    H            0.014905526407    -1.046858972317    -0.877685592862
    H           -0.355829809371    -1.493494933535     0.765551517686
    C            2.519966986961    -0.586284586775    -0.564891327734
    H            1.790130635332    -0.984394915422     1.411764193561
    H            1.533640355789     0.651393168395     0.887914550448
    C            3.944646710783    -0.242635374880    -0.146069023418
    H            2.481752946981    -1.619080522580    -0.900222449607
    H            2.235221898036     0.022433970967    -1.418411972346
    H            4.640609576497    -0.396018840942    -0.962382543779
    H            4.268160082987    -0.860446223123     0.684994846469
    H            4.021320590446     0.793945463040     0.164574003867

  Mulliken Charges: (a.u.)
   Center  Symbol    Alpha    Beta     Spin     Total
       1     O     4.19728  4.19728  0.00000 -0.39455
       2     C     2.80719  2.80719  0.00000  0.38562
       3     C     3.13769  3.13769  0.00000 -0.27539
       4     O     4.15169  4.15169  0.00000 -0.30338
       5     H     0.44615  0.44615  0.00000  0.10770
       6     H     0.43812  0.43812  0.00000  0.12375
       7     H     0.44580  0.44580  0.00000  0.10841
       8     C     2.98600  2.98600  0.00000  0.02801
       9     C     3.09026  3.09026  0.00000 -0.18053
      10     H     0.45357  0.45357  0.00000  0.09287
      11     H     0.45025  0.45025  0.00000  0.09949
      12     C     3.08952  3.08952  0.00000 -0.17904
      13     H     0.44993  0.44993  0.00000  0.10014
      14     H     0.44605  0.44605  0.00000  0.10790
      15     C     3.15049  3.15049  0.00000 -0.30098
      16     H     0.45261  0.45261  0.00000  0.09477
      17     H     0.45158  0.45158  0.00000  0.09684
      18     H     0.44717  0.44717  0.00000  0.10566
      19     H     0.45456  0.45456  0.00000  0.09088
      20     H     0.45408  0.45408  0.00000  0.09184

   Total alpha = 32.00000, Total beta = 32.00000, Total charge =  0.00000

*** Psi4 exiting successfully. Buy a developer a beer!
