  ==> Input File <==

--------------------------------------------------------------------------
set {
	reference rhf
	basis cc-pvtz
}

set_num_threads( 4 )
memory 2 gb

molecule MOL {
0 1

H	 3.289346	 -0.454484	 0.039362
C	 2.232486	 -0.267601	 0.030022
C	 1.600641	 0.056383	 -1.161254
C	 1.510304	 -0.351106	 1.203477
H	 2.168670	 0.119354	 -2.069093
C	 0.245025	 0.296877	 -1.177608
H	 2.001709	 -0.601887	 2.123317
C	 0.148916	 -0.109303	 1.185462
H	 -0.261195	 0.548586	 -2.088125
C	 -0.486398	 0.214248	 0.000000
H	 -0.419267	 -0.172559	 2.095045
C	 -1.946525	 0.470130	 0.000000
O	 -2.779618	 -0.371226	 0.000000
H	 -2.227127	 1.528393	 0.000000

	symmetry c1
}
set optking {
	frozen_dihedral = ("
		8 10 12 14
	")
}

ee = optimize('scf')
oeprop('DIPOLE', 'QUADRUPOLE', 'MULLIKEN_CHARGES')
f=open( 'psi4out.xyz', 'w' )
f.write( "14  " )
f.write( str(ee) + "\n" )
f.write( MOL.save_string_xyz() )
f.close()
--------------------------------------------------------------------------

    Molecular point group: c1
  Charge       = 0
  Multiplicity = 1
  Basis Set: CC-PVTZ
  Basis Set:
  @DF-RHF Final Energy:  -343.53705328410592
    Total Energy =                       -343.5370532841062072
    Molecular point group: c1
  Basis Set: CC-PVTZ
  Basis Set:
  Basis Set: CC-PVTZ
  Basis Set:
  @DF-RHF Final Energy:  -343.53698324096888
    Total Energy =                       -343.5369832409689934
  Basis Set: CC-PVTZ
  Basis Set:
  Basis Set: CC-PVTZ
  Basis Set:
  @DF-RHF Final Energy:  -343.53704866404854
    Total Energy =                       -343.5370486640481431
  Basis Set: CC-PVTZ
  Basis Set:
  Basis Set: CC-PVTZ
  Basis Set:
  @DF-RHF Final Energy:  -343.53759832158698
    Total Energy =                       -343.5375983215867564
  Basis Set: CC-PVTZ
  Basis Set:
  Charge       = 0
  Multiplicity = 1
  Basis Set: CC-PVTZ
  Basis Set:

    Orbital Energies (a.u.)
    -----------------------

    Doubly Occupied:

       1A    -20.563694     2A    -11.332794     3A    -11.251304
       4A    -11.246011     5A    -11.245188     6A    -11.243005
       7A    -11.242343     8A    -11.240811     9A     -1.417854
      10A     -1.174929    11A     -1.049364    12A     -1.033441
      13A     -0.890406    14A     -0.845122    15A     -0.798192
      16A     -0.725628    17A     -0.681398    18A     -0.657057
      19A     -0.645868    20A     -0.620789    21A     -0.604167
      22A     -0.540535    23A     -0.532357    24A     -0.518132
      25A     -0.506000    26A     -0.426255    27A     -0.352327
      28A     -0.351457

  @DF-RHF Final Energy:  -343.53760417324770

   => Energetics <=

    Nuclear Repulsion Energy =            323.0344792624988486
    One-Electron Energy =               -1105.6713108327198825
    Two-Electron Energy =                 439.0992273969734470
    DFT Exchange-Correlation Energy =       0.0000000000000000
    Empirical Dispersion Energy =           0.0000000000000000
    PCM Polarization Energy =               0.0000000000000000
    EFP Energy =                            0.0000000000000000
    Total Energy =                       -343.5376041732475869
    Molecular point group: c1
  Basis Set: CC-PVTZ
  Basis Set:

  -Total Gradient:
     Atom            X                  Y                   Z
    ------   -----------------  -----------------  -----------------
       1        0.000008752070     0.000001268316    -0.000039316604
       2       -0.000011005695    -0.000058887358     0.000297041171
       3       -0.000277532564     0.000086648942    -0.000152735341
       4        0.000277129750     0.000010573016    -0.000181195853
       5        0.000043323958    -0.000006572286     0.000026891189
       6        0.000352710323    -0.000061684914    -0.000155005957
       7       -0.000014574953     0.000018339068    -0.000006956450
       8        0.000210486890     0.002649433531     0.000225947952
       9       -0.000031681337    -0.000001424525     0.000007431469
      10       -0.000845925114    -0.003795735121     0.000811937479
      11       -0.000012784618    -0.000010723687    -0.000009918800
      12        0.000393207802     0.001228210816    -0.004075550636
      13       -0.000115921303    -0.000101133187    -0.000005628819
      14        0.000023814785     0.000041687390     0.003257059201

  **** Optimization is complete! (in 5 steps) ****
    Final optimized geometry and variables:
    Molecular point group: c1

    Geometry (in Angstrom), charge = 0, multiplicity = 1:

    H            3.303955752631    -0.429571628729     0.023802956083
    C            2.245961500841    -0.251057155749     0.012147736153
    C            1.611545552082     0.068880153062    -1.174023849991
    C            1.516290662657    -0.338023299590     1.181789217141
    H            2.175673370663     0.137408750871    -2.084172991666
    C            0.251110783751     0.305522622879    -1.189052420423
    H            2.005931407270    -0.582562144064     2.104685760383
    C            0.152285525621    -0.113306833343     1.167317897310
    H           -0.237250100925     0.562025468468    -2.110725394200
    C           -0.484212597610     0.197907921877    -0.020629196096
    H           -0.415233869359    -0.190962451660     2.075063998395
    C           -1.954334876891     0.490494548053    -0.025051344358
    O           -2.795159939135    -0.336423340652     0.038196055450
    H           -2.224552440253     1.551509686881    -0.049255744187

  Mulliken Charges: (a.u.)
   Center  Symbol    Alpha    Beta     Spin     Total
       1     H     0.42083  0.42083  0.00000  0.15835
       2     C     3.08423  3.08423  0.00000 -0.16846
       3     C     3.06345  3.06345  0.00000 -0.12690
       4     C     3.06299  3.06299  0.00000 -0.12598
       5     H     0.42086  0.42086  0.00000  0.15829
       6     C     3.09924  3.09924  0.00000 -0.19847
       7     H     0.42094  0.42094  0.00000  0.15812
       8     C     3.09942  3.09942  0.00000 -0.19884
       9     H     0.42388  0.42388  0.00000  0.15224
      10     C     2.93740  2.93740  0.00000  0.12519
      11     H     0.42041  0.42041  0.00000  0.15917
      12     C     2.93163  2.93163  0.00000  0.13675
      13     O     4.15619  4.15619  0.00000 -0.31238
      14     H     0.45853  0.45853  0.00000  0.08293

   Total alpha = 28.00000, Total beta = 28.00000, Total charge = -0.00000
