                              Psi4 1.0.54 Driver

  ==> Input File <==

--------------------------------------------------------------------------
set {
	reference rhf
	basis cc-pvtz
}

set_num_threads( 4 )
memory 2 gb

molecule MOL {
0 1

H	 0.723406	 1.127779	 -1.984017
C	 0.748879	 1.574216	 -0.981171
C	 0.692262	 0.592428	 0.156232
O	 0.812467	 2.748280	 -0.858025
C	 -0.554654	 -0.292621	 0.086567
H	 0.733417	 1.142935	 1.086869
H	 1.581535	 -0.031266	 0.092379
C	 -1.846385	 0.513195	 -0.016346
H	 -0.473986	 -0.956115	 -0.769708
H	 -0.597929	 -0.929215	 0.966651
C	 -3.089953	 -0.365049	 -0.098564
H	 -1.798267	 1.154820	 -0.891143
H	 -1.925398	 1.173265	 0.842889
H	 -3.055079	 -1.012299	 -0.968245
H	 -3.988403	 0.236438	 -0.170014
H	 -3.183055	 -0.995885	 0.779079

	symmetry c1
}
set optking {
	frozen_dihedral = ("
		6 3 5 9
	")
}

ee,wfn = optimize('scf', return_wfn=True)
oeprop( wfn, 'DIPOLE', 'QUADRUPOLE', 'MULLIKEN_CHARGES')
f=open( 'psi4out.xyz', 'w' )
f.write( "16  " )
f.write( str(ee) + "\n" )
f.write( MOL.save_string_xyz() )
f.close()
--------------------------------------------------------------------------

    Molecular point group: c1
  Charge       = 0
  Multiplicity = 1
  Basis Set: CC-PVTZ
  Basis Set:
  @DF-RHF Final Energy:  -270.11759829503717
    Total Energy =                       -270.1175982950372827
    Molecular point group: c1
  Basis Set: CC-PVTZ
  Basis Set:
  Basis Set: CC-PVTZ
  Basis Set:
  @DF-RHF Final Energy:  -270.11773726482420
    Total Energy =                       -270.1177372648240862
  Basis Set: CC-PVTZ
  Basis Set:
  Basis Set: CC-PVTZ
  Basis Set:
  @DF-RHF Final Energy:  -270.11807731140243
    Total Energy =                       -270.1180773114024873
  Basis Set: CC-PVTZ
  Basis Set:
  Basis Set: CC-PVTZ
  Basis Set:
  @DF-RHF Final Energy:  -270.11818772210620
    Total Energy =                       -270.1181877221060859
  Basis Set: CC-PVTZ
  Basis Set:
  Basis Set: CC-PVTZ
  Basis Set:
  @DF-RHF Final Energy:  -270.11819775377319
    Total Energy =                       -270.1181977537730745
  Basis Set: CC-PVTZ
  Basis Set:
  Basis Set: CC-PVTZ
  Basis Set:
  @DF-RHF Final Energy:  -270.11820250125652
    Total Energy =                       -270.1182025012564623
  Basis Set: CC-PVTZ
  Basis Set:
  Charge       = 0
  Multiplicity = 1
  Basis Set: CC-PVTZ
  Basis Set:

    Orbital Energies (a.u.)
    -----------------------

    Doubly Occupied:

       1A    -20.551553     2A    -11.321508     3A    -11.234495
       4A    -11.233748     5A    -11.225641     6A    -11.215894
       7A     -1.406537     8A     -1.097349     9A     -1.018318
      10A     -0.905567    11A     -0.824443    12A     -0.786130
      13A     -0.669201    14A     -0.656473    15A     -0.621116
      16A     -0.611182    17A     -0.590290    18A     -0.549162
      19A     -0.528308    20A     -0.518813    21A     -0.490970
      22A     -0.480150    23A     -0.469766    24A     -0.412168

  @DF-RHF Final Energy:  -270.11820383949600

   => Energetics <=

    Nuclear Repulsion Energy =            233.9144589631196425
    One-Electron Energy =                -829.2277576240234112
    Two-Electron Energy =                 325.1950948214076789
    DFT Exchange-Correlation Energy =       0.0000000000000000
    Empirical Dispersion Energy =           0.0000000000000000
    PCM Polarization Energy =               0.0000000000000000
    EFP Energy =                            0.0000000000000000
    Total Energy =                       -270.1182038394961182
    Molecular point group: c1
  Basis Set: CC-PVTZ
  Basis Set:

  -Total Gradient:
     Atom            X                  Y                   Z
    ------   -----------------  -----------------  -----------------
       1       -0.000006608554    -0.000046472655    -0.000052004750
       2       -0.000029320192    -0.000109404923     0.000041142637
       3       -0.001205939075     0.001953091475    -0.001065065442
       4        0.000024219299     0.000145163701     0.000011598248
       5       -0.000980691502     0.001573960579    -0.001552168204
       6        0.001170879660    -0.001870618734     0.001143837404
       7       -0.000004847473     0.000012142904    -0.000007778599
       8        0.000023746484    -0.000019382555     0.000027227685
       9        0.001016941520    -0.001670656332     0.001465506960
      10        0.000010431597     0.000012722399    -0.000005725438
      11       -0.000016088720     0.000007253215    -0.000007819329
      12        0.000004159777     0.000006402134    -0.000003024303
      13       -0.000010861005     0.000005811479     0.000001024252
      14        0.000003594496     0.000000807883     0.000003424707
      15       -0.000000158621    -0.000002859511    -0.000003194185
      16        0.000000542307     0.000002038943     0.000003018356

  **** Optimization is complete! (in 7 steps) ****
    Final optimized geometry and variables:
    Molecular point group: c1

    Geometry (in Angstrom), charge = 0, multiplicity = 1:

    H            1.320626389687     0.276644536764    -1.660928465353
    C            1.372132412818     0.746512569335    -0.669207762474
    C            1.179287045986    -0.193964729213     0.487852515019
    O            1.580477021012     1.906286201706    -0.574041439289
    C           -0.076325640806    -1.062998909705     0.362157147689
    H            1.183379016745     0.369605599151     1.411768244740
    H            2.052537376915    -0.843231126020     0.504795743784
    C           -1.375622046639    -0.271011543803     0.239877341406
    H            0.032955525903    -1.741677865546    -0.479875743776
    H           -0.128517671847    -1.698399725820     1.240422414705
    C           -2.608400796915    -1.166215322520     0.180728821399
    H           -1.345872875493     0.355032794958    -0.647239954951
    H           -1.458943047637     0.407524644312     1.083752383046
    H           -2.565955095855    -1.835674789404    -0.671927694854
    H           -3.514193941867    -0.578093725761     0.094335062611
    H           -2.692773520762    -1.775208207685     1.074489447577

  Mulliken Charges: (a.u.)
   Center  Symbol    Alpha    Beta     Spin     Total
       1     H     0.46315  0.46315  0.00000  0.07371
       2     C     2.90427  2.90427  0.00000  0.19146
       3     C     3.09068  3.09068  0.00000 -0.18137
       4     O     4.16653  4.16653  0.00000 -0.33306
       5     C     3.11037  3.11037  0.00000 -0.22073
       6     H     0.44149  0.44149  0.00000  0.11701
       7     H     0.44227  0.44227  0.00000  0.11547
       8     C     3.08550  3.08550  0.00000 -0.17101
       9     H     0.44931  0.44931  0.00000  0.10138
      10     H     0.44444  0.44444  0.00000  0.11112
      11     C     3.14972  3.14972  0.00000 -0.29944
      12     H     0.44964  0.44964  0.00000  0.10073
      13     H     0.44828  0.44828  0.00000  0.10343
      14     H     0.45480  0.45480  0.00000  0.09040
      15     H     0.44573  0.44573  0.00000  0.10854
      16     H     0.45382  0.45382  0.00000  0.09236

   Total alpha = 24.00000, Total beta = 24.00000, Total charge = -0.00000

*** Psi4 exiting successfully. Buy a developer a beer!
