                              Psi4 1.0.54 Driver

  ==> Input File <==

--------------------------------------------------------------------------
set {
	reference rhf
	basis cc-pvtz
}

set_num_threads( 4 )
memory 2 gb

molecule MOL {
0 1

H	 -0.939693	 0.000281	 1.681345
O	 -0.046262	 -0.000157	 1.387678
C	 -0.000837	 0.000006	 -0.025491
C	 1.367155	 -0.492941	 -0.493198
C	 -1.113753	 -0.891518	 -0.572984
C	 -0.220486	 1.449528	 -0.436378
H	 1.444811	 -0.469703	 -1.574042
H	 1.538616	 -1.515563	 -0.170839
H	 2.151545	 0.127232	 -0.077769
H	 -1.126947	 -0.882819	 -1.656745
H	 -0.976418	 -1.919646	 -0.251790
H	 -2.077215	 -0.552192	 -0.213731
H	 -0.202380	 1.552504	 -1.514968
H	 0.553410	 2.079395	 -0.016184
H	 -1.177294	 1.801379	 -0.071777

	symmetry c1
}
set optking {
	frozen_dihedral = ("
		4 3 2 1
	")
}

ee,wfn = optimize('scf', return_wfn=True)
oeprop( wfn, 'DIPOLE', 'QUADRUPOLE', 'MULLIKEN_CHARGES')
f=open( 'psi4out.xyz', 'w' )
f.write( "15  " )
f.write( str(ee) + "\n" )
f.write( MOL.save_string_xyz() )
f.close()
--------------------------------------------------------------------------

    Molecular point group: c1
  Charge       = 0
  Multiplicity = 1
  Basis Set: CC-PVTZ
  Basis Set:
  @DF-RHF Final Energy:  -232.24451249963099
    Total Energy =                       -232.2445124996307300
    Molecular point group: c1
  Basis Set: CC-PVTZ
  Basis Set:
  Basis Set: CC-PVTZ
  Basis Set:
  @DF-RHF Final Energy:  -232.20073117934174
    Total Energy =                       -232.2007311793414601
  Basis Set: CC-PVTZ
  Basis Set:
  Basis Set: CC-PVTZ
  Basis Set:
  @DF-RHF Final Energy:  -232.24440437363361
    Total Energy =                       -232.2444043736334152
  Basis Set: CC-PVTZ
  Basis Set:
  Basis Set: CC-PVTZ
  Basis Set:
  @DF-RHF Final Energy:  -232.24623139843001
    Total Energy =                       -232.2462313984298135
  Basis Set: CC-PVTZ
  Basis Set:
  Basis Set: CC-PVTZ
  Basis Set:
  @DF-RHF Final Energy:  -232.24628698366527
    Total Energy =                       -232.2462869836651862
  Basis Set: CC-PVTZ
  Basis Set:
  Basis Set: CC-PVTZ
  Basis Set:
  @DF-RHF Final Energy:  -232.24629012169876
    Total Energy =                       -232.2462901216989621
  Basis Set: CC-PVTZ
  Basis Set:
  Charge       = 0
  Multiplicity = 1
  Basis Set: CC-PVTZ
  Basis Set:

    Orbital Energies (a.u.)
    -----------------------

    Doubly Occupied:

       1A    -20.541740     2A    -11.280856     3A    -11.212633
       4A    -11.206353     5A    -11.203722     6A     -1.364478
       7A     -1.065328     8A     -0.943669     9A     -0.939007
      10A     -0.778507    11A     -0.672455    12A     -0.624387
      13A     -0.622896    14A     -0.576049    15A     -0.557600
      16A     -0.533156    17A     -0.517060    18A     -0.511299
      19A     -0.504440    20A     -0.458377    21A     -0.428430

  @DF-RHF Final Energy:  -232.24629111469875

   => Energetics <=

    Nuclear Repulsion Energy =            200.6569765737651778
    One-Electron Energy =                -712.7216457260393554
    Two-Electron Energy =                 279.8183780375754850
    DFT Exchange-Correlation Energy =       0.0000000000000000
    Empirical Dispersion Energy =           0.0000000000000000
    PCM Polarization Energy =               0.0000000000000000
    EFP Energy =                            0.0000000000000000
    Total Energy =                       -232.2462911146986926
    Molecular point group: c1
  Basis Set: CC-PVTZ
  Basis Set:

  -Total Gradient:
     Atom            X                  Y                   Z
    ------   -----------------  -----------------  -----------------
       1        0.000025232670    -0.001596583592     0.000220050245
       2       -0.000051064886     0.001711742593    -0.000348266096
       3        0.000337410372     0.000842460685    -0.000027287183
       4       -0.000304393215    -0.000967847235     0.000088466162
       5        0.000018367898     0.000005286184     0.000029942565
       6       -0.000022697155    -0.000007597176     0.000084429853
       7        0.000010882333     0.000016306314    -0.000022031935
       8       -0.000018220436    -0.000020698330    -0.000005105260
       9        0.000002041005     0.000023969888     0.000021249686
      10       -0.000001915067     0.000008720481    -0.000037134323
      11        0.000027751979    -0.000025419022     0.000016415057
      12       -0.000032403168     0.000011735812     0.000016165577
      13        0.000012183014    -0.000022345742    -0.000033890591
      14        0.000003024956     0.000018529450    -0.000000309120
      15       -0.000006200298     0.000001739688    -0.000002694639

  **** Optimization is complete! (in 7 steps) ****
    Final optimized geometry and variables:
    Molecular point group: c1

    Geometry (in Angstrom), charge = 0, multiplicity = 1:

    H           -1.414218723592     0.176901987198     1.298310535841
    O           -0.474576894652     0.195767598246     1.291025991663
    C            0.008557273119     0.000592747632    -0.024324198886
    C            1.454224396362    -0.451929415280     0.132995352306
    C           -0.816680283288    -1.078912500607    -0.721306332657
    C           -0.069668284211     1.319867945580    -0.789577919950
    H            1.922834681000    -0.595919506265    -0.833581743947
    H            1.498091329534    -1.383673872463     0.682474251702
    H            2.020068673751     0.290492098955     0.681937959509
    H           -0.445506768794    -1.270434067843    -1.721003310110
    H           -0.780522340369    -2.004180666052    -0.159106470874
    H           -1.855650351267    -0.774001445377    -0.809248026591
    H            0.326415693769     1.217356981682    -1.793709064069
    H            0.495165680176     2.085132780637    -0.272315422412
    H           -1.098288357021     1.656325036964    -0.867366921160

  Mulliken Charges: (a.u.)
   Center  Symbol    Alpha    Beta     Spin     Total
       1     H     0.39480  0.39480  0.00000  0.21041
       2     O     4.21220  4.21220  0.00000 -0.42440
       3     C     2.87851  2.87851  0.00000  0.24299
       4     C     3.14215  3.14215  0.00000 -0.28431
       5     C     3.15448  3.15448  0.00000 -0.30897
       6     C     3.14636  3.14636  0.00000 -0.29272
       7     H     0.45897  0.45897  0.00000  0.08206
       8     H     0.45011  0.45011  0.00000  0.09978
       9     H     0.44732  0.44732  0.00000  0.10535
      10     H     0.45353  0.45353  0.00000  0.09294
      11     H     0.44564  0.44564  0.00000  0.10872
      12     H     0.45601  0.45601  0.00000  0.08798
      13     H     0.45719  0.45719  0.00000  0.08562
      14     H     0.44762  0.44762  0.00000  0.10476
      15     H     0.45511  0.45511  0.00000  0.08977

   Total alpha = 21.00000, Total beta = 21.00000, Total charge = -0.00000

*** Psi4 exiting successfully. Buy a developer a beer!
