                              Psi4 1.0.54 Driver

  ==> Input File <==

--------------------------------------------------------------------------
set {
	reference rhf
	basis cc-pvtz
}

set_num_threads( 4 )
memory 2 gb

molecule MOL {
0 1

O	 -0.972940	 -1.355488	 0.365080
C	 -0.661730	 -0.217771	 0.156594
C	 -1.718996	 0.867105	 0.148519
N	 0.622280	 0.144970	 -0.099307
H	 -1.754548	 1.376254	 -0.806389
H	 -2.668266	 0.393286	 0.335263
H	 -1.531607	 1.606395	 0.917486
C	 1.664396	 -0.854993	 0.000772
C	 1.081428	 1.512970	 -0.138219
H	 2.462727	 -0.615153	 -0.690869
H	 1.261798	 -1.821849	 -0.240651
H	 2.081615	 -0.891605	 1.003877
H	 1.887403	 1.597454	 -0.855786
H	 0.300265	 2.186888	 -0.445650
H	 1.459443	 1.841969	 0.827135

	symmetry c1
}
set optking {
	frozen_dihedral = ("
		2 4 8 10
	")
}

ee,wfn = optimize('scf', return_wfn=True)
oeprop( wfn, 'DIPOLE', 'QUADRUPOLE', 'MULLIKEN_CHARGES')
f=open( 'psi4out.xyz', 'w' )
f.write( "15  " )
f.write( str(ee) + "\n" )
f.write( MOL.save_string_xyz() )
f.close()
--------------------------------------------------------------------------

    Molecular point group: c1
  Charge       = 0
  Multiplicity = 1
  Basis Set: CC-PVTZ
  Basis Set:
  @DF-RHF Final Energy:  -286.13554854825827
    Total Energy =                       -286.1355485482584413
    Molecular point group: c1
  Basis Set: CC-PVTZ
  Basis Set:
  Basis Set: CC-PVTZ
  Basis Set:
  @DF-RHF Final Energy:  -286.13558184150264
    Total Energy =                       -286.1355818415025283
  Basis Set: CC-PVTZ
  Basis Set:
  Basis Set: CC-PVTZ
  Basis Set:
  @DF-RHF Final Energy:  -286.13555446331191
    Total Energy =                       -286.1355544633121895
  Basis Set: CC-PVTZ
  Basis Set:
  Basis Set: CC-PVTZ
  Basis Set:
  @DF-RHF Final Energy:  -286.13560572054138
    Total Energy =                       -286.1356057205415482
  Basis Set: CC-PVTZ
  Basis Set:
  Basis Set: CC-PVTZ
  Basis Set:
  @DF-RHF Final Energy:  -286.13560819305474
    Total Energy =                       -286.1356081930547361
  Basis Set: CC-PVTZ
  Basis Set:
  Charge       = 0
  Multiplicity = 1
  Basis Set: CC-PVTZ
  Basis Set:

    Orbital Energies (a.u.)
    -----------------------

    Doubly Occupied:

       1A    -20.504421     2A    -15.578187     3A    -11.334821
       4A    -11.263918     5A    -11.246549     6A    -11.226561
       7A     -1.387940     8A     -1.245978     9A     -1.015053
      10A     -0.973153    11A     -0.920312    12A     -0.738865
      13A     -0.683101    14A     -0.661594    15A     -0.653869
      16A     -0.590135    17A     -0.578354    18A     -0.568202
      19A     -0.562035    20A     -0.548003    21A     -0.530475
      22A     -0.506302    23A     -0.414387    24A     -0.370989

  @DF-RHF Final Energy:  -286.13560903329505

   => Energetics <=

    Nuclear Repulsion Energy =            252.9759317148342745
    One-Electron Energy =                -890.0166759853448184
    Two-Electron Energy =                 350.9051352372155179
    DFT Exchange-Correlation Energy =       0.0000000000000000
    Empirical Dispersion Energy =           0.0000000000000000
    PCM Polarization Energy =               0.0000000000000000
    EFP Energy =                            0.0000000000000000
    Total Energy =                       -286.1356090332950544
    Molecular point group: c1
  Basis Set: CC-PVTZ
  Basis Set:

  -Total Gradient:
     Atom            X                  Y                   Z
    ------   -----------------  -----------------  -----------------
       1       -0.000050941110    -0.000040178491     0.000012262232
       2       -0.000002688559     0.000058933556     0.000181281318
       3        0.000047390845    -0.000006387857     0.000054321335
       4        0.000042160582     0.000029522247    -0.000240596493
       5        0.000017955330     0.000019869523    -0.000040025319
       6        0.000010605128    -0.000012602511    -0.000005621341
       7       -0.000000753410     0.000012740653    -0.000014562830
       8       -0.000077113903    -0.000149759447    -0.000115611109
       9       -0.000032638944    -0.000051082718     0.000032423135
      10        0.000083983520     0.000118267732     0.000131644356
      11        0.000010316443     0.000015932747     0.000006372103
      12       -0.000010424654    -0.000003355271     0.000010327316
      13        0.000003886219     0.000000796600    -0.000003407282
      14       -0.000043325698     0.000006617443    -0.000008193164
      15        0.000001588210     0.000000685793    -0.000000614255

  **** Optimization is complete! (in 6 steps) ****
    Final optimized geometry and variables:
    Molecular point group: c1

    Geometry (in Angstrom), charge = 0, multiplicity = 1:

    O           -0.975381686758    -1.371154618299     0.312730113501
    C           -0.672584623716    -0.235564570926     0.082333767309
    C           -1.734984212831     0.843745045893     0.062630106878
    N            0.608912325918     0.125554521281    -0.190248048938
    H           -1.760925775992     1.356626667134    -0.890492409218
    H           -2.684130746407     0.364879868732     0.236970516624
    H           -1.560627471850     1.580559576601     0.837152297890
    C            1.645194055089    -0.879287220189    -0.072743769939
    C            1.070364331553     1.493303447556    -0.213287674574
    H            2.438463318528    -0.655786446045    -0.774492855542
    H            1.237428457449    -1.849916084855    -0.291280195094
    H            2.069584547247    -0.900552355265     0.927808626923
    H            1.866393723838     1.589790220519    -0.940217598384
    H            0.285176820918     2.172327673505    -0.498127072034
    H            1.461032363821     1.806304445560     0.752465267440

  Mulliken Charges: (a.u.)
   Center  Symbol    Alpha    Beta     Spin     Total
       1     O     4.21979  4.21979  0.00000 -0.43959
       2     C     2.84512  2.84512  0.00000  0.30976
       3     C     3.16083  3.16083  0.00000 -0.32167
       4     N     3.56322  3.56322  0.00000 -0.12644
       5     H     0.44887  0.44887  0.00000  0.10226
       6     H     0.42865  0.42865  0.00000  0.14271
       7     H     0.44902  0.44902  0.00000  0.10195
       8     C     3.09658  3.09658  0.00000 -0.19315
       9     C     3.09560  3.09560  0.00000 -0.19120
      10     H     0.45725  0.45725  0.00000  0.08550
      11     H     0.42832  0.42832  0.00000  0.14337
      12     H     0.45712  0.45712  0.00000  0.08577
      13     H     0.44909  0.44909  0.00000  0.10183
      14     H     0.44523  0.44523  0.00000  0.10955
      15     H     0.45532  0.45532  0.00000  0.08935

   Total alpha = 24.00000, Total beta = 24.00000, Total charge = -0.00000

*** Psi4 exiting successfully. Buy a developer a beer!
