                              Psi4 1.0.54 Driver

  ==> Input File <==

--------------------------------------------------------------------------
set {
	reference rhf
	basis cc-pvtz
}

set_num_threads( 4 )
memory 2 gb

molecule MOL {
0 1

O	 -0.694481	 1.313155	 -0.204815
C	 -0.862519	 0.151932	 -0.046791
C	 -2.171428	 -0.477048	 0.339095
O	 0.085519	 -0.757083	 -0.192238
H	 -2.467997	 -1.191667	 -0.417688
H	 -2.923379	 0.287970	 0.444097
H	 -2.053854	 -1.015120	 1.270901
C	 1.392036	 -0.330828	 -0.560749
C	 1.995246	 -1.227765	 -1.621664
H	 2.015598	 -0.295264	 0.318866
H	 1.256679	 0.672216	 -0.936689
H	 2.959268	 -0.834681	 -1.924317
H	 2.140794	 -2.230236	 -1.243180
H	 1.355757	 -1.270903	 -2.495040

	symmetry c1
}
set optking {
	frozen_dihedral = ("
		10 8 4 2
	")
}

ee,wfn = optimize('scf', return_wfn=True)
oeprop( wfn, 'DIPOLE', 'QUADRUPOLE', 'MULLIKEN_CHARGES')
f=open( 'psi4out.xyz', 'w' )
f.write( "14  " )
f.write( str(ee) + "\n" )
f.write( MOL.save_string_xyz() )
f.close()
--------------------------------------------------------------------------

    Molecular point group: c1
  Charge       = 0
  Multiplicity = 1
  Basis Set: CC-PVTZ
  Basis Set:
  @DF-RHF Final Energy:  -305.98874471490274
    Total Energy =                       -305.9887447149029072
    Molecular point group: c1
  Basis Set: CC-PVTZ
  Basis Set:
  Basis Set: CC-PVTZ
  Basis Set:
  @DF-RHF Final Energy:  -305.98976176259765
    Total Energy =                       -305.9897617625974817
  Basis Set: CC-PVTZ
  Basis Set:
  Basis Set: CC-PVTZ
  Basis Set:
  @DF-RHF Final Energy:  -305.99034603025916
    Total Energy =                       -305.9903460302591611
  Basis Set: CC-PVTZ
  Basis Set:
  Basis Set: CC-PVTZ
  Basis Set:
  @DF-RHF Final Energy:  -305.99028712087511
    Total Energy =                       -305.9902871208752799
  Basis Set: CC-PVTZ
  Basis Set:
  Basis Set: CC-PVTZ
  Basis Set:
  @DF-RHF Final Energy:  -305.99048445977462
    Total Energy =                       -305.9904844597746205
  Basis Set: CC-PVTZ
  Basis Set:
  Basis Set: CC-PVTZ
  Basis Set:
  @DF-RHF Final Energy:  -305.99048726405920
    Total Energy =                       -305.9904872640590838
  Basis Set: CC-PVTZ
  Basis Set:
  Charge       = 0
  Multiplicity = 1
  Basis Set: CC-PVTZ
  Basis Set:

    Orbital Energies (a.u.)
    -----------------------

    Doubly Occupied:

       1A    -20.594179     2A    -20.532576     3A    -11.368170
       4A    -11.282352     5A    -11.231338     6A    -11.220827
       7A     -1.469534     8A     -1.366153     9A     -1.058659
      10A     -1.000576    11A     -0.875439    12A     -0.778953
      13A     -0.698137    14A     -0.686817    15A     -0.665566
      16A     -0.612971    17A     -0.582209    18A     -0.563913
      19A     -0.561128    20A     -0.536762    21A     -0.515974
      22A     -0.499596    23A     -0.454129    24A     -0.442050

  @DF-RHF Final Energy:  -305.99048762108004

   => Energetics <=

    Nuclear Repulsion Energy =            246.1544405209286310
    One-Electron Energy =                -905.0938371109705258
    Two-Electron Energy =                 352.9489089689616321
    DFT Exchange-Correlation Energy =       0.0000000000000000
    Empirical Dispersion Energy =           0.0000000000000000
    PCM Polarization Energy =               0.0000000000000000
    EFP Energy =                            0.0000000000000000
    Total Energy =                       -305.9904876210803195
    Molecular point group: c1
  Basis Set: CC-PVTZ
  Basis Set:

  -Total Gradient:
     Atom            X                  Y                   Z
    ------   -----------------  -----------------  -----------------
       1       -0.000012155814     0.000053270539    -0.000004112515
       2       -0.000247287147    -0.000145018281    -0.001048571989
       3       -0.000007148087     0.000006028138    -0.000014243667
       4        0.000469622404    -0.000157008362     0.001478737992
       5       -0.000001184456    -0.000003137386     0.000001844037
       6       -0.000009250555     0.000007189079     0.000001638380
       7        0.000004294616    -0.000001006648     0.000004846274
       8       -0.000543408943     0.001363233911    -0.000154427483
       9       -0.000020592298     0.000014550164    -0.000001614714
      10        0.000360986589    -0.001139944870    -0.000241363483
      11        0.000012022471    -0.000005272036    -0.000016725862
      12       -0.000000255928     0.000005233505     0.000003825905
      13       -0.000003442492     0.000008285507     0.000005709729
      14       -0.000002200361    -0.000006403257    -0.000015542606

  **** Optimization is complete! (in 7 steps) ****
    Final optimized geometry and variables:
    Molecular point group: c1

    Geometry (in Angstrom), charge = 0, multiplicity = 1:

    O           -0.704773477571     1.529998293966     0.287616565587
    C           -0.826125539934     0.355350759697     0.364136463053
    C           -2.106617541541    -0.347617494866     0.717059386543
    O            0.150997229993    -0.509601708785     0.151655881725
    H           -2.385630474688    -1.019217670262    -0.084457225134
    H           -2.884829188397     0.379655873769     0.881725161220
    H           -1.958312469132    -0.943632255020     1.608305680165
    C            1.440893328418    -0.039153891890    -0.220570820586
    C            2.006920438500    -0.970955921607    -1.269094066739
    H            2.059832934951    -0.043931584730     0.667285440315
    H            1.364552262012     0.971801772462    -0.583418562990
    H            3.009917297071    -0.657128423587    -1.534289362961
    H            2.053164166267    -1.987403840256    -0.898995760176
    H            1.397277974948    -0.959452321238    -2.164157026609

  Mulliken Charges: (a.u.)
   Center  Symbol    Alpha    Beta     Spin     Total
       1     O     4.19802  4.19802  0.00000 -0.39604
       2     C     2.80202  2.80202  0.00000  0.39595
       3     C     3.14002  3.14002  0.00000 -0.28004
       4     O     4.15587  4.15587  0.00000 -0.31174
       5     H     0.44628  0.44628  0.00000  0.10744
       6     H     0.43817  0.43817  0.00000  0.12366
       7     H     0.44568  0.44568  0.00000  0.10863
       8     C     2.98490  2.98490  0.00000  0.03020
       9     C     3.13304  3.13304  0.00000 -0.26608
      10     H     0.45536  0.45536  0.00000  0.08928
      11     H     0.44266  0.44266  0.00000  0.11468
      12     H     0.45451  0.45451  0.00000  0.09097
      13     H     0.45143  0.45143  0.00000  0.09713
      14     H     0.45202  0.45202  0.00000  0.09595

   Total alpha = 24.00000, Total beta = 24.00000, Total charge = -0.00000

*** Psi4 exiting successfully. Buy a developer a beer!
