  ==> Input File <==

--------------------------------------------------------------------------
set {
	reference rhf
	basis 6-31G*
}

set_num_threads( 4 )
memory 2 gb

molecule MOL {
0 1

O	 -2.324811	 1.361668	 -0.277141
C	 -2.105949	 0.203097	 -0.092081
C	 -0.889235	 -0.467034	 -0.705952
C	 -3.002726	 -0.644460	 0.782455
C	 -0.955326	 -1.992473	 -0.527591
H	 -0.010961	 -0.081276	 -0.199858
H	 -0.807967	 -0.219662	 -1.760574
C	 0.273529	 -2.697429	 -1.106872
H	 -1.053912	 -2.205171	 0.530910
H	 -1.851186	 -2.379390	 -1.010786
C	 0.226732	 -4.227129	 -1.018096
H	 1.166041	 -2.335407	 -0.599834
H	 0.380315	 -2.414008	 -2.151917
C	 0.266351	 -4.781381	 0.407117
H	 1.071733	 -4.627546	 -1.572469
H	 -0.666160	 -4.589418	 -1.523645
H	 1.144460	 -4.426244	 0.939591
H	 0.303740	 -5.866226	 0.396452
H	 -0.607666	 -4.492308	 0.980982
H	 -3.496582	 -1.399307	 0.176174
H	 -3.747939	 -0.023774	 1.260148
H	 -2.421318	 -1.168775	 1.535358

	symmetry c1
}
set optking {
	frozen_dihedral = ("
		6 3 2 1
	")
}

ee = optimize('scf')
oeprop('DIPOLE', 'QUADRUPOLE', 'MULLIKEN_CHARGES')
f=open( 'psi4out.xyz', 'w' )
f.write( "22  " )
f.write( str(ee) + "\n" )
f.write( MOL.save_string_xyz() )
f.close()
--------------------------------------------------------------------------

    Molecular point group: c1
  Charge       = 0
  Multiplicity = 1
  Basis Set: 6-31G*
  Basis Set:
  @DF-RHF Final Energy:  -348.09058052387832
    Total Energy =                       -348.0905805238782023
    Molecular point group: c1
  Basis Set: 6-31G*
  Basis Set:
  Basis Set: 6-31G*
  Basis Set:
  @DF-RHF Final Energy:  -348.09326535110335
    Total Energy =                       -348.0932653511033550
  Basis Set: 6-31G*
  Basis Set:
  Basis Set: 6-31G*
  Basis Set:
  @DF-RHF Final Energy:  -348.09560158243153
    Total Energy =                       -348.0956015824312999
  Basis Set: 6-31G*
  Basis Set:
  Basis Set: 6-31G*
  Basis Set:
  @DF-RHF Final Energy:  -348.09593680623186
    Total Energy =                       -348.0959368062318617
  Basis Set: 6-31G*
  Basis Set:
  @DF-RHF Final Energy:  -348.09592924943325
    Total Energy =                       -348.0959292494337660
  @DF-RHF Final Energy:  -348.09596896890531
    Total Energy =                       -348.0959689689053675
  @DF-RHF Final Energy:  -348.09597582407747
    Total Energy =                       -348.0959758240777546
  @DF-RHF Final Energy:  -348.09599997710507
    Total Energy =                       -348.0959999771049524
  @DF-RHF Final Energy:  -348.09598259972756
    Total Energy =                       -348.0959825997279609
  Basis Set: 6-31G*
  Basis Set:
  @DF-RHF Final Energy:  -348.09600495295257
    Total Energy =                       -348.0960049529528533
  Basis Set: 6-31G*
  Basis Set:
  Basis Set: 6-31G*
  Basis Set:
  @DF-RHF Final Energy:  -348.09600956097825
    Total Energy =                       -348.0960095609783025
  Basis Set: 6-31G*
  Basis Set:
  Basis Set: 6-31G*
  Basis Set:
  @DF-RHF Final Energy:  -348.09601286202542
    Total Energy =                       -348.0960128620253045
  Basis Set: 6-31G*
  Basis Set:
  Charge       = 0
  Multiplicity = 1
  Basis Set: 6-31G*
  Basis Set:

    Orbital Energies (a.u.)
    -----------------------

    Doubly Occupied:

       1A    -20.545197     2A    -11.325752     3A    -11.230862
       4A    -11.230266     5A    -11.227565     6A    -11.224828
       7A    -11.223304     8A    -11.215468     9A     -1.392278
      10A     -1.098828    11A     -1.045152    12A     -0.996464
      13A     -0.941477    14A     -0.864136    15A     -0.789565
      16A     -0.731554    17A     -0.660433    18A     -0.648309
      19A     -0.631533    20A     -0.616696    21A     -0.602956
      22A     -0.584354    23A     -0.556782    24A     -0.544316
      25A     -0.538432    26A     -0.514199    27A     -0.512094
      28A     -0.478803    29A     -0.474892    30A     -0.467427
      31A     -0.464581    32A     -0.395951

  @DF-RHF Final Energy:  -348.09601313875839

   => Energetics <=

    Nuclear Repulsion Energy =            372.4755423869879678
    One-Electron Energy =               -1209.5942062422991512
    Two-Electron Energy =                 489.0226507165527892
    DFT Exchange-Correlation Energy =       0.0000000000000000
    Empirical Dispersion Energy =           0.0000000000000000
    PCM Polarization Energy =               0.0000000000000000
    EFP Energy =                            0.0000000000000000
    Total Energy =                       -348.0960131387583942
    Molecular point group: c1
  Basis Set: 6-31G*
  Basis Set:

  -Total Gradient:
     Atom            X                  Y                   Z
    ------   -----------------  -----------------  -----------------
       1        0.000693235468     0.000350562404     0.001025697994
       2       -0.000945882644    -0.000330631549    -0.001608959636
       3        0.000114309379    -0.000855335997     0.001513267927
       4        0.000005711564     0.000008857660     0.000015851332
       5        0.000002306647    -0.000013543866     0.000008359066
       6        0.000137639317     0.000847811672    -0.000934759015
       7       -0.000001355849    -0.000008318761    -0.000000976795
       8        0.000000677689    -0.000002461995     0.000005333309
       9        0.000005906540    -0.000005647813    -0.000014364630
      10       -0.000012855082     0.000006184592    -0.000001195867
      11        0.000004252743     0.000002002000    -0.000000139845
      12        0.000000457484     0.000001347532    -0.000000362757
      13        0.000002435525    -0.000005776499    -0.000003091997
      14        0.000000085426     0.000000288578     0.000000705695
      15       -0.000000055082     0.000002243267    -0.000003378158
      16       -0.000000429735     0.000000964194     0.000002061160
      17        0.000001789602    -0.000001332834     0.000001891018
      18       -0.000001136481     0.000000532331    -0.000000400236
      19       -0.000001204435     0.000003822409    -0.000000515609
      20        0.000000205569    -0.000002283031    -0.000006685005
      21        0.000000010450    -0.000000411526     0.000000672402
      22       -0.000006104096     0.000001127217     0.000000989647

  **** Optimization is complete! (in 13 steps) ****
    Final optimized geometry and variables:
    Molecular point group: c1

    Geometry (in Angstrom), charge = 0, multiplicity = 1:

    O           -1.214702382142     3.039888604347    -0.103713421010
    C           -1.076642270429     1.895841603389     0.207266111823
    C            0.119658663075     1.114751600749    -0.324773716345
    C           -2.044223532563     1.230023359597     1.161892583779
    C            0.102217754458    -0.408475873522    -0.183342015042
    H            0.992880555251     1.529033031905     0.176090843991
    H            0.224108127653     1.397376826893    -1.367517857075
    C            1.363856525459    -1.046973395186    -0.771852777613
    H            0.006763952830    -0.681904804508     0.862601315158
    H           -0.769868361400    -0.815514121835    -0.691319206790
    C            1.374586916521    -2.579429186309    -0.743996884966
    H            2.237304018640    -0.672020857912    -0.240903720563
    H            1.471845002391    -0.718792452046    -1.803212016986
    C            1.413979994501    -3.190361826443     0.657940470898
    H            2.242679684506    -2.925085523609    -1.299310980793
    H            0.504393765073    -2.954920065066    -1.278436323121
    H            2.267677274219    -2.822067328035     1.220497844986
    H            1.496894750928    -4.271302638052     0.603913030268
    H            0.518781688544    -2.962514556248     1.227249691715
    H           -2.512892111598     0.366102270293     0.701826564679
    H           -2.803577233427     1.943696751092     1.448877339419
    H           -1.523207333051     0.880078615557     2.048337436822

  Mulliken Charges: (a.u.)
   Center  Symbol    Alpha    Beta     Spin     Total
       1     O     4.26367  4.26367  0.00000 -0.52733
       2     C     2.73563  2.73563  0.00000  0.52874
       3     C     3.20567  3.20567  0.00000 -0.41135
       4     C     3.29198  3.29198  0.00000 -0.58397
       5     C     3.16351  3.16351  0.00000 -0.32702
       6     H     0.40206  0.40206  0.00000  0.19588
       7     H     0.39934  0.39934  0.00000  0.20131
       8     C     3.15327  3.15327  0.00000 -0.30654
       9     H     0.41767  0.41767  0.00000  0.16465
      10     H     0.41988  0.41988  0.00000  0.16024
      11     C     3.15300  3.15300  0.00000 -0.30599
      12     H     0.42194  0.42194  0.00000  0.15612
      13     H     0.41904  0.41904  0.00000  0.16191
      14     C     3.24185  3.24185  0.00000 -0.48371
      15     H     0.41856  0.41856  0.00000  0.16288
      16     H     0.42229  0.42229  0.00000  0.15542
      17     H     0.42129  0.42129  0.00000  0.15742
      18     H     0.41728  0.41728  0.00000  0.16543
      19     H     0.42109  0.42109  0.00000  0.15783
      20     H     0.40725  0.40725  0.00000  0.18550
      21     H     0.39553  0.39553  0.00000  0.20893
      22     H     0.40818  0.40818  0.00000  0.18363

   Total alpha = 32.00000, Total beta = 32.00000, Total charge = -0.00000
