  ==> Input File <==

--------------------------------------------------------------------------
set {
	reference rhf
	basis 6-31G*
}

set_num_threads( 4 )
memory 2 gb

molecule MOL {
0 1

H	 -0.423733	 2.876047	 -1.135284
C	 0.321575	 2.346268	 -0.529021
C	 0.065331	 0.871482	 -0.349150
O	 1.247746	 2.934569	 -0.073139
C	 -1.339775	 0.583656	 0.198860
H	 0.834207	 0.467378	 0.299267
H	 0.171657	 0.404362	 -1.327237
C	 -1.808407	 -0.848507	 -0.061364
H	 -2.036183	 1.280685	 -0.256307
H	 -1.360094	 0.788874	 1.267089
H	 -1.828843	 -1.063152	 -1.125336
H	 -2.808409	 -1.004529	 0.329750
H	 -1.153967	 -1.577789	 0.406873

	symmetry c1
}
set optking {
	frozen_dihedral = ("
		6 3 5 9
	")
}

ee = optimize('scf')
oeprop('DIPOLE', 'QUADRUPOLE', 'MULLIKEN_CHARGES')
f=open( 'psi4out.xyz', 'w' )
f.write( "13  " )
f.write( str(ee) + "\n" )
f.write( MOL.save_string_xyz() )
f.close()
--------------------------------------------------------------------------

    Molecular point group: c1
  Charge       = 0
  Multiplicity = 1
  Basis Set: 6-31G*
  Basis Set:
  @DF-RHF Final Energy:  -230.98396784875331
    Total Energy =                       -230.9839678487534229
    Molecular point group: c1
  Basis Set: 6-31G*
  Basis Set:
  Basis Set: 6-31G*
  Basis Set:
  @DF-RHF Final Energy:  -230.98411712070634
    Total Energy =                       -230.9841171207062303
  Basis Set: 6-31G*
  Basis Set:
  Basis Set: 6-31G*
  Basis Set:
  @DF-RHF Final Energy:  -230.98237749390495
    Total Energy =                       -230.9823774939047780
  Basis Set: 6-31G*
  Basis Set:
  Basis Set: 6-31G*
  Basis Set:
  @DF-RHF Final Energy:  -230.98417312652407
    Total Energy =                       -230.9841731265239844
  Basis Set: 6-31G*
  Basis Set:
  @DF-RHF Final Energy:  -230.98418504344295
    Total Energy =                       -230.9841850434426931
  Basis Set: 6-31G*
  Basis Set:
  @DF-RHF Final Energy:  -230.98418931077964
    Total Energy =                       -230.9841893107797546
  Basis Set: 6-31G*
  Basis Set:
  Basis Set: 6-31G*
  Basis Set:
  @DF-RHF Final Energy:  -230.98419158225119
    Total Energy =                       -230.9841915822511282
  Basis Set: 6-31G*
  Basis Set:
  Basis Set: 6-31G*
  Basis Set:
  @DF-RHF Final Energy:  -230.98419270622790
    Total Energy =                       -230.9841927062276739
  Basis Set: 6-31G*
  Basis Set:
  Charge       = 0
  Multiplicity = 1
  Basis Set: 6-31G*
  Basis Set:

    Orbital Energies (a.u.)
    -----------------------

    Doubly Occupied:

       1A    -20.563225     2A    -11.327024     3A    -11.239263
       4A    -11.235851     5A    -11.224210     6A     -1.403090
       7A     -1.086681     8A     -0.976651     9A     -0.840749
      10A     -0.794048    11A     -0.677567    12A     -0.642623
      13A     -0.625990    14A     -0.589286    15A     -0.561748
      16A     -0.529060    17A     -0.516322    18A     -0.490644
      19A     -0.483666    20A     -0.410593

  @DF-RHF Final Energy:  -230.98419273418824

   => Energetics <=

    Nuclear Repulsion Energy =            170.4087615650660155
    One-Electron Energy =                -650.3493250945193722
    Two-Electron Energy =                 248.9563707952650589
    DFT Exchange-Correlation Energy =       0.0000000000000000
    Empirical Dispersion Energy =           0.0000000000000000
    PCM Polarization Energy =               0.0000000000000000
    EFP Energy =                            0.0000000000000000
    Total Energy =                       -230.9841927341882979
    Molecular point group: c1
  Basis Set: 6-31G*
  Basis Set:

  -Total Gradient:
     Atom            X                  Y                   Z
    ------   -----------------  -----------------  -----------------
       1        0.000001572013     0.000001059832     0.000000191906
       2       -0.000000370849    -0.000007290254    -0.000000812452
       3        0.000005702630    -0.002745585805    -0.001355281281
       4        0.000006011996     0.000008083294     0.000002507645
       5       -0.000570828755    -0.001691507251    -0.002308396015
       6        0.000084742327     0.002553596841     0.001490981525
       7       -0.000002625085    -0.000001704955     0.000000427364
       8       -0.000001899180    -0.000006188236     0.000004838386
       9        0.000479106126     0.001895322271     0.002166529088
      10       -0.000000131270    -0.000002209356    -0.000002548698
      11        0.000000814735     0.000003264264     0.000002657577
      12       -0.000001695851    -0.000004510759    -0.000000856219
      13       -0.000000398842    -0.000002329889    -0.000000238828

  **** Optimization is complete! (in 9 steps) ****
    Final optimized geometry and variables:
    Molecular point group: c1

    Geometry (in Angstrom), charge = 0, multiplicity = 1:

    H           -0.066046225405     1.715088636184    -1.010566924612
    C            0.637388383867     1.172240040594    -0.367662051303
    C            0.370440042727    -0.305856229400    -0.230164806446
    O            1.528832615888     1.750620080462     0.163787186746
    C           -1.038610343172    -0.579475526466     0.319047083550
    H            1.133325138606    -0.713150269646     0.422439234491
    H            0.477006723825    -0.754213633334    -1.216733615107
    C           -1.495790039738    -2.019123938027     0.096612265341
    H           -1.749806259769     0.111789928101    -0.128371192512
    H           -1.044762086819    -0.356022272891     1.382346670613
    H           -1.552797431066    -2.252722942697    -0.962410877015
    H           -2.477060524437    -2.186926702303     0.528019021499
    H           -0.806911638387    -2.722258786982     0.554893491264

  Mulliken Charges: (a.u.)
   Center  Symbol    Alpha    Beta     Spin     Total
       1     H     0.43212  0.43212  0.00000  0.13576
       2     C     2.83175  2.83175  0.00000  0.33651
       3     C     3.20631  3.20631  0.00000 -0.41262
       4     O     4.23633  4.23633  0.00000 -0.47267
       5     C     3.16559  3.16559  0.00000 -0.33117
       6     H     0.39865  0.39865  0.00000  0.20270
       7     H     0.40998  0.40998  0.00000  0.18004
       8     C     3.23948  3.23948  0.00000 -0.47895
       9     H     0.41801  0.41801  0.00000  0.16397
      10     H     0.41066  0.41066  0.00000  0.17868
      11     H     0.41940  0.41940  0.00000  0.16120
      12     H     0.41478  0.41478  0.00000  0.17043
      13     H     0.41694  0.41694  0.00000  0.16612

   Total alpha = 20.00000, Total beta = 20.00000, Total charge =  0.00000
