  ==> Input File <==

--------------------------------------------------------------------------
set {
	reference rhf
	basis 6-31G*
}

set_num_threads( 4 )
memory 2 gb

molecule MOL {
0 1

O	 1.732136	 1.539661	 1.267614
C	 0.797705	 1.337422	 0.539164
C	 -0.251244	 2.413515	 0.329839
N	 0.623947	 0.147590	 -0.102813
H	 -1.235597	 2.073211	 0.632041
H	 0.031440	 3.261514	 0.934845
H	 -0.305632	 2.720863	 -0.708987
C	 1.665360	 -0.855771	 0.000151
C	 -0.345703	 -0.071884	 -1.153458
H	 2.465253	 -0.618490	 -0.692587
H	 1.257730	 -1.821716	 -0.242189
H	 2.081488	 -0.891645	 1.004627
H	 -0.678570	 -1.102435	 -1.118758
H	 -1.214014	 0.555550	 -1.029784
H	 0.075844	 0.111312	 -2.140145

	symmetry c1
}
set optking {
	frozen_dihedral = ("
		2 4 8 10
	")
}

ee = optimize('scf')
oeprop('DIPOLE', 'QUADRUPOLE', 'MULLIKEN_CHARGES')
f=open( 'psi4out.xyz', 'w' )
f.write( "15  " )
f.write( str(ee) + "\n" )
f.write( MOL.save_string_xyz() )
f.close()
--------------------------------------------------------------------------

    Molecular point group: c1
  Charge       = 0
  Multiplicity = 1
  Basis Set: 6-31G*
  Basis Set:
  @DF-RHF Final Energy:  -286.02905341056703
    Total Energy =                       -286.0290534105670872
    Molecular point group: c1
  Basis Set: 6-31G*
  Basis Set:
  Basis Set: 6-31G*
  Basis Set:
  @DF-RHF Final Energy:  -286.02952588285507
    Total Energy =                       -286.0295258828550686
  Basis Set: 6-31G*
  Basis Set:
  Basis Set: 6-31G*
  Basis Set:
  @DF-RHF Final Energy:  -286.02947392475693
    Total Energy =                       -286.0294739247566440
  Basis Set: 6-31G*
  Basis Set:
  Basis Set: 6-31G*
  Basis Set:
  @DF-RHF Final Energy:  -286.02964756725146
    Total Energy =                       -286.0296475672513452
  Basis Set: 6-31G*
  Basis Set:
  Basis Set: 6-31G*
  Basis Set:
  @DF-RHF Final Energy:  -286.02965886646325
    Total Energy =                       -286.0296588664630804
  Basis Set: 6-31G*
  Basis Set:
  Basis Set: 6-31G*
  Basis Set:
  @DF-RHF Final Energy:  -286.02966502847039
    Total Energy =                       -286.0296650284703901
  Basis Set: 6-31G*
  Basis Set:
  Basis Set: 6-31G*
  Basis Set:
  @DF-RHF Final Energy:  -286.02966738592994
    Total Energy =                       -286.0296673859297698
  Basis Set: 6-31G*
  Basis Set:
  Charge       = 0
  Multiplicity = 1
  Basis Set: 6-31G*
  Basis Set:

    Orbital Energies (a.u.)
    -----------------------

    Doubly Occupied:

       1A    -20.515575     2A    -15.583247     3A    -11.340775
       4A    -11.266425     5A    -11.247987     6A    -11.228462
       7A     -1.385236     8A     -1.242848     9A     -1.014012
      10A     -0.972755    11A     -0.918090    12A     -0.737467
      13A     -0.680503    14A     -0.658554    15A     -0.651310
      16A     -0.588811    17A     -0.576304    18A     -0.568859
      19A     -0.562815    20A     -0.545988    21A     -0.529695
      22A     -0.501516    23A     -0.411190    24A     -0.367465

  @DF-RHF Final Energy:  -286.02966791200174

   => Energetics <=

    Nuclear Repulsion Energy =            252.5487170112118065
    One-Electron Energy =                -888.9649901995327355
    Two-Electron Energy =                 350.3866052763187895
    DFT Exchange-Correlation Energy =       0.0000000000000000
    Empirical Dispersion Energy =           0.0000000000000000
    PCM Polarization Energy =               0.0000000000000000
    EFP Energy =                            0.0000000000000000
    Total Energy =                       -286.0296679120021395
    Molecular point group: c1
  Basis Set: 6-31G*
  Basis Set:

  -Total Gradient:
     Atom            X                  Y                   Z
    ------   -----------------  -----------------  -----------------
       1        0.000002406627    -0.000014472275    -0.000019263586
       2        0.000197764593     0.000177175272    -0.000388554427
       3       -0.000056578890    -0.000040856924     0.000064273995
       4       -0.000200631465    -0.000105362690     0.000659453649
       5        0.000002256029     0.000024718682    -0.000012608350
       6        0.000005624476     0.000001686076    -0.000007889559
       7        0.000019865845    -0.000004192652    -0.000016178570
       8       -0.000240777786    -0.000330293106    -0.000650334586
       9        0.000006456846    -0.000013886617     0.000013897315
      10        0.000247716404     0.000319400659     0.000374397441
      11       -0.000000872363    -0.000010644231     0.000004453101
      12        0.000008418040    -0.000004384732    -0.000006318840
      13       -0.000011515936    -0.000005062835     0.000005966221
      14        0.000009173841     0.000013127391    -0.000022109954
      15        0.000010693737    -0.000006952015     0.000000816149

  **** Optimization is complete! (in 8 steps) ****
    Final optimized geometry and variables:
    Molecular point group: c1

    Geometry (in Angstrom), charge = 0, multiplicity = 1:

    O            1.053045859880     0.792535711241     1.088140296608
    C            0.092290921914     0.589475925362     0.395649957862
    C           -0.957999691263     1.667510414111     0.207448965246
    N           -0.106344994292    -0.612319397736    -0.218256513072
    H           -1.942869275291     1.321953153767     0.501159155822
    H           -0.675420954881     2.505991619441     0.825795339067
    H           -1.009763790302     1.992895706017    -0.826284722058
    C            0.961652126135    -1.590620775600    -0.122954398682
    C           -1.051983604496    -0.810971616330    -1.295991603526
    H            1.757486500923    -1.390320257305    -0.836211215719
    H            0.556364895701    -2.575167938970    -0.320258605822
    H            1.383455051904    -1.572135612766     0.868355317655
    H           -1.391987663085    -1.839139413095    -1.285396678858
    H           -1.919017898599    -0.180179505864    -1.179154127375
    H           -0.609846795051    -0.612434936132    -2.270896769944

  Mulliken Charges: (a.u.)
   Center  Symbol    Alpha    Beta     Spin     Total
       1     O     4.30310  4.30310  0.00000 -0.60620
       2     C     2.62546  2.62546  0.00000  0.74909
       3     C     3.29822  3.29822  0.00000 -0.59645
       4     N     3.82212  3.82212  0.00000 -0.64424
       5     H     0.40651  0.40651  0.00000  0.18698
       6     H     0.39064  0.39064  0.00000  0.21872
       7     H     0.40755  0.40755  0.00000  0.18490
       8     C     3.14077  3.14077  0.00000 -0.28154
       9     C     3.14278  3.14278  0.00000 -0.28555
      10     H     0.41751  0.41751  0.00000  0.16499
      11     H     0.41934  0.41934  0.00000  0.16131
      12     H     0.39145  0.39145  0.00000  0.21711
      13     H     0.41003  0.41003  0.00000  0.17994
      14     H     0.40736  0.40736  0.00000  0.18528
      15     H     0.41717  0.41717  0.00000  0.16567

   Total alpha = 24.00000, Total beta = 24.00000, Total charge = -0.00000
