                              Psi4 1.0.54 Driver

  ==> Input File <==

--------------------------------------------------------------------------
set {
	reference rhf
	basis cc-pvtz
}

set_num_threads( 4 )
memory 2 gb

molecule MOL {
0 1

H	 -3.567210	 0.502489	 -0.000000
O	 -3.095461	 -0.311027	 0.000000
C	 -1.769942	 -0.106588	 0.000000
C	 -1.219976	 1.169333	 -0.000000
C	 -0.950139	 -1.222880	 0.000000
H	 -1.862506	 2.030484	 -0.000000
C	 0.146148	 1.322296	 -0.000000
H	 -1.394605	 -2.197800	 0.000000
C	 0.415878	 -1.052514	 0.000000
H	 0.582818	 2.301290	 -0.000000
C	 0.981121	 0.213562	 0.000000
H	 1.052840	 -1.917844	 0.000000
C	 2.447402	 0.371303	 0.000000
O	 3.227427	 -0.521847	 0.000000
H	 2.796538	 1.409525	 0.000000

	symmetry c1
}
set optking {
	frozen_dihedral = ("
		7 11 13 14
	")
}

ee,wfn = optimize('scf', return_wfn=True)
oeprop( wfn, 'DIPOLE', 'QUADRUPOLE', 'MULLIKEN_CHARGES')
f=open( 'psi4out.xyz', 'w' )
f.write( "15  " )
f.write( str(ee) + "\n" )
f.write( MOL.save_string_xyz() )
f.close()
--------------------------------------------------------------------------

    Molecular point group: c1
  Charge       = 0
  Multiplicity = 1
  Basis Set: CC-PVTZ
  Basis Set:
  @DF-RHF Final Energy:  -418.44229779352958
    Total Energy =                       -418.4422977935295194
    Molecular point group: c1
  Basis Set: CC-PVTZ
  Basis Set:
  Basis Set: CC-PVTZ
  Basis Set:
  @DF-RHF Final Energy:  -418.44252051399383
    Total Energy =                       -418.4425205139938271
  Basis Set: CC-PVTZ
  Basis Set:
  Basis Set: CC-PVTZ
  Basis Set:
  @DF-RHF Final Energy:  -418.44255748992430
    Total Energy =                       -418.4425574899241838
  Basis Set: CC-PVTZ
  Basis Set:
  Basis Set: CC-PVTZ
  Basis Set:
  @DF-RHF Final Energy:  -418.44256270724605
    Total Energy =                       -418.4425627072458838
  Basis Set: CC-PVTZ
  Basis Set:
  Charge       = 0
  Multiplicity = 1
  Basis Set: CC-PVTZ
  Basis Set:

    Orbital Energies (a.u.)
    -----------------------

    Doubly Occupied:

       1A    -20.605248     2A    -20.545380     3A    -11.322920
       4A    -11.322562     5A    -11.260725     6A    -11.251969
       7A    -11.242462     8A    -11.236975     9A    -11.236346
      10A     -1.438489    11A     -1.401687    12A     -1.175280
      13A     -1.046792    14A     -1.040412    15A     -0.897513
      16A     -0.861831    17A     -0.806149    18A     -0.761766
      19A     -0.699208    20A     -0.691202    21A     -0.642647
      22A     -0.629101    23A     -0.615622    24A     -0.611833
      25A     -0.587380    26A     -0.561837    27A     -0.555359
      28A     -0.509423    29A     -0.490297    30A     -0.421359
      31A     -0.362089    32A     -0.332058

  @DF-RHF Final Energy:  -418.44256261997407

   => Energetics <=

    Nuclear Repulsion Energy =            402.3033701251843013
    One-Electron Energy =               -1367.1640210138452858
    Two-Electron Energy =                 546.4180882686868017
    DFT Exchange-Correlation Energy =       0.0000000000000000
    Empirical Dispersion Energy =           0.0000000000000000
    PCM Polarization Energy =               0.0000000000000000
    EFP Energy =                            0.0000000000000000
    Total Energy =                       -418.4425626199741828
    Molecular point group: c1
  Basis Set: CC-PVTZ
  Basis Set:

  -Total Gradient:
     Atom            X                  Y                   Z
    ------   -----------------  -----------------  -----------------
       1        0.000010381494     0.000001516566    -0.000000017372
       2        0.000012607529    -0.000007061042    -0.000001922860
       3       -0.000007051767     0.000032873061     0.000007361942
       4       -0.000018688559    -0.000025310970    -0.000004953379
       5        0.000006798301    -0.000030381178    -0.000008332314
       6        0.000005253853     0.000002371534    -0.000000170880
       7        0.000001422590     0.000031310120    -0.000017682381
       8       -0.000002681249     0.000001511595    -0.000002094237
       9       -0.000011604992     0.000027709070     0.000002677656
      10       -0.000000969696    -0.000012098866     0.000000221958
      11        0.000017516314    -0.000014269702     0.000168094959
      12       -0.000001879635    -0.000014591434     0.000000589180
      13        0.000008287482    -0.000009869964    -0.000464653670
      14       -0.000017592919     0.000010407926     0.000153721225
      15       -0.000001798735     0.000005883282     0.000167160172

  **** Optimization is complete! (in 5 steps) ****
    Final optimized geometry and variables:
    Molecular point group: c1

    Geometry (in Angstrom), charge = 0, multiplicity = 1:

    H           -3.573242117557     0.528434996648     0.000325858055
    O           -3.099202475835    -0.283914905410     0.000381228697
    C           -1.774629561687    -0.075819751002     0.000236307628
    C           -1.223777024490     1.192355903697    -0.000009283375
    C           -0.954074221728    -1.200366545090     0.000258586837
    H           -1.859317638886     2.058414963360    -0.000104396668
    C            0.150732241082     1.332548477493    -0.000171123564
    H           -1.406608258614    -2.171842839746     0.000368419182
    C            0.406937872427    -1.044199333661     0.000104583608
    H            0.577820801386     2.318468910178    -0.000429465323
    C            0.978342280706     0.226934231297     0.000008083053
    H            1.051471372975    -1.900827747570     0.000057720437
    C            2.442807065842     0.400473094211    -0.000541117613
    O            3.232571004036    -0.483620917103    -0.000443586062
    H            2.779610696037     1.443100931754     0.002128463957

  Mulliken Charges: (a.u.)
   Center  Symbol    Alpha    Beta     Spin     Total
       1     H     0.38568  0.38568  0.00000  0.22863
       2     O     4.16565  4.16565  0.00000 -0.33130
       3     C     2.84326  2.84326  0.00000  0.31347
       4     C     3.13480  3.13480  0.00000 -0.26960
       5     C     3.10722  3.10722  0.00000 -0.21444
       6     H     0.43235  0.43235  0.00000  0.13530
       7     C     3.07389  3.07389  0.00000 -0.14779
       8     H     0.41545  0.41545  0.00000  0.16909
       9     C     3.05975  3.05975  0.00000 -0.11950
      10     H     0.42121  0.42121  0.00000  0.15759
      11     C     3.00264  3.00264  0.00000 -0.00529
      12     H     0.40727  0.40727  0.00000  0.18545
      13     C     2.91136  2.91136  0.00000  0.17727
      14     O     4.17836  4.17836  0.00000 -0.35672
      15     H     0.46109  0.46109  0.00000  0.07783

   Total alpha = 32.00000, Total beta = 32.00000, Total charge = -0.00000

*** Psi4 exiting successfully. Buy a developer a beer!
