  ==> Input File <==

--------------------------------------------------------------------------
set {
	reference rhf
	basis 6-31G*
}

set_num_threads( 4 )
memory 2 gb

molecule MOL {
0 1

H	 2.235631	 1.779595	 0.082552
O	 1.305828	 1.786901	 0.258424
C	 0.702312	 0.627605	 -0.264544
C	 -0.714990	 0.596302	 0.266387
H	 1.232034	 -0.262833	 0.063130
H	 0.696559	 0.647759	 -1.352241
O	 -1.405996	 -0.526611	 -0.195820
H	 -1.257453	 1.468809	 -0.075599
H	 -0.688972	 0.618407	 1.353696
H	 -0.890587	 -1.292708	 0.022039

	symmetry c1
}
set optking {
	frozen_dihedral = ("
		5 3 4 7
	")
}

ee = optimize('scf')
oeprop('DIPOLE', 'QUADRUPOLE', 'MULLIKEN_CHARGES')
f=open( 'psi4out.xyz', 'w' )
f.write( "10  " )
f.write( str(ee) + "\n" )
f.write( MOL.save_string_xyz() )
f.close()
--------------------------------------------------------------------------

    Molecular point group: c1
  Charge       = 0
  Multiplicity = 1
  Basis Set: 6-31G*
  Basis Set:
  @DF-RHF Final Energy:  -228.92048279316950
    Total Energy =                       -228.9204827931694979
    Molecular point group: c1
  Basis Set: 6-31G*
  Basis Set:
  Basis Set: 6-31G*
  Basis Set:
  @DF-RHF Final Energy:  -228.92142530640024
    Total Energy =                       -228.9214253064001809
  Basis Set: 6-31G*
  Basis Set:
  Basis Set: 6-31G*
  Basis Set:
  @DF-RHF Final Energy:  -228.92161205548473
    Total Energy =                       -228.9216120554847862
  Basis Set: 6-31G*
  Basis Set:
  Basis Set: 6-31G*
  Basis Set:
  @DF-RHF Final Energy:  -228.92169049842366
    Total Energy =                       -228.9216904984235725
  Basis Set: 6-31G*
  Basis Set:
  Basis Set: 6-31G*
  Basis Set:
  @DF-RHF Final Energy:  -228.92171734408581
    Total Energy =                       -228.9217173440857778
  Basis Set: 6-31G*
  Basis Set:
  Charge       = 0
  Multiplicity = 1
  Basis Set: 6-31G*
  Basis Set:

    Orbital Energies (a.u.)
    -----------------------

    Doubly Occupied:

       1A    -20.562579     2A    -20.560253     3A    -11.272712
       4A    -11.268741     5A     -1.375112     6A     -1.361604
       7A     -0.998094     8A     -0.845690     9A     -0.721324
      10A     -0.689191    11A     -0.638204    12A     -0.614044
      13A     -0.575664    14A     -0.524312    15A     -0.492221
      16A     -0.444377    17A     -0.439653

  @DF-RHF Final Energy:  -228.92171789016817

   => Energetics <=

    Nuclear Repulsion Energy =            131.3280843861689959
    One-Electron Energy =                -573.7320533768083806
    Two-Electron Energy =                 213.4822511004711885
    DFT Exchange-Correlation Energy =       0.0000000000000000
    Empirical Dispersion Energy =           0.0000000000000000
    PCM Polarization Energy =               0.0000000000000000
    EFP Energy =                            0.0000000000000000
    Total Energy =                       -228.9217178901681962
    Molecular point group: c1
  Basis Set: 6-31G*
  Basis Set:

  -Total Gradient:
     Atom            X                  Y                   Z
    ------   -----------------  -----------------  -----------------
       1       -0.000000051593     0.000012493828     0.000012926093
       2       -0.000000972076    -0.000049750817    -0.000025278749
       3       -0.000059321150     0.000012109900    -0.000278362164
       4        0.000095696267    -0.000176349262     0.000231289812
       5        0.000073274666     0.000087967543     0.000217143294
       6       -0.000028589569    -0.000031586365    -0.000009918124
       7       -0.000065658670     0.000145879123    -0.000146190324
       8       -0.000016864774    -0.000007197174    -0.000002175628
       9       -0.000000215339    -0.000001207097    -0.000001334350
      10        0.000002702236     0.000007640321     0.000001900139

  **** Optimization is complete! (in 6 steps) ****
    Final optimized geometry and variables:
    Molecular point group: c1

    Geometry (in Angstrom), charge = 0, multiplicity = 1:

    H            2.193169980129     1.276085381654    -0.019076997984
    O            1.313047448824     1.169463872092     0.311703569554
    C            0.721153007076     0.034517845333    -0.259573940881
    C           -0.711167049590    -0.030205282455     0.239015129043
    H            1.253683728908    -0.871383602142     0.030524390214
    H            0.719585119036     0.085331724244    -1.345089026311
    O           -1.389825867756    -1.133301999538    -0.299004362520
    H           -1.242917830196     0.854408496974    -0.082415193857
    H           -0.719157100767    -0.044203428497     1.325346801453
    H           -1.104735756959    -1.925502679063     0.133954645740

  Mulliken Charges: (a.u.)
   Center  Symbol    Alpha    Beta     Spin     Total
       1     H     0.27799  0.27799  0.00000  0.44402
       2     O     4.37187  4.37187  0.00000 -0.74375
       3     C     3.00547  3.00547  0.00000 -0.01095
       4     C     3.00354  3.00354  0.00000 -0.00708
       5     H     0.43661  0.43661  0.00000  0.12678
       6     H     0.42262  0.42262  0.00000  0.15475
       7     O     4.37061  4.37061  0.00000 -0.74123
       8     H     0.40808  0.40808  0.00000  0.18384
       9     H     0.42192  0.42192  0.00000  0.15617
      10     H     0.28128  0.28128  0.00000  0.43744

   Total alpha = 17.00000, Total beta = 17.00000, Total charge = -0.00000
