  ==> Input File <==

--------------------------------------------------------------------------
set {
	reference rhf
	basis cc-pvtz
}

set_num_threads( 4 )
memory 2 gb

molecule MOL {
0 1

H	 -2.816458	 -0.841657	 -0.064679
N	 -1.878861	 -0.711874	 0.250184
C	 -1.341419	 0.551458	 -0.220231
H	 -1.333674	 -1.468530	 -0.105118
C	 -0.748005	 1.335339	 0.927828
H	 -0.578579	 0.438275	 -0.989521
H	 -2.149615	 1.135126	 -0.647085
O	 0.349840	 0.635672	 1.430730
H	 -0.437250	 2.320027	 0.581428
H	 -1.496817	 1.468115	 1.705375
C	 0.946657	 1.220478	 2.540249
H	 1.778781	 0.598339	 2.836727
H	 1.319503	 2.216848	 2.312374
H	 0.251110	 1.295737	 3.372782

	symmetry c1
}
set optking {
	frozen_dihedral = ("
		6 3 2 4
	")
}

ee = optimize('scf')
oeprop('DIPOLE', 'QUADRUPOLE', 'MULLIKEN_CHARGES')
f=open( 'psi4out.xyz', 'w' )
f.write( "14  " )
f.write( str(ee) + "\n" )
f.write( MOL.save_string_xyz() )
f.close()
--------------------------------------------------------------------------

    Molecular point group: c1
  Charge       = 0
  Multiplicity = 1
  Basis Set: CC-PVTZ
  Basis Set:
  @DF-RHF Final Energy:  -248.22084597287744
    Total Energy =                       -248.2208459728774415
    Molecular point group: c1
  Basis Set: CC-PVTZ
  Basis Set:
  Basis Set: CC-PVTZ
  Basis Set:
  @DF-RHF Final Energy:  -248.22152489320268
    Total Energy =                       -248.2215248932022860
  Basis Set: CC-PVTZ
  Basis Set:
  Basis Set: CC-PVTZ
  Basis Set:
  @DF-RHF Final Energy:  -248.22162350212469
    Total Energy =                       -248.2216235021246575
  Basis Set: CC-PVTZ
  Basis Set:
  Basis Set: CC-PVTZ
  Basis Set:
  @DF-RHF Final Energy:  -248.22163128466349
    Total Energy =                       -248.2216312846636583
  Basis Set: CC-PVTZ
  Basis Set:
  Charge       = 0
  Multiplicity = 1
  Basis Set: CC-PVTZ
  Basis Set:

    Orbital Energies (a.u.)
    -----------------------

    Doubly Occupied:

       1A    -20.543119     2A    -15.525670     3A    -11.257985
       4A    -11.257625     5A    -11.241399     6A     -1.378052
       7A     -1.175182     8A     -0.998827     9A     -0.902715
      10A     -0.813782    11A     -0.682385    12A     -0.672765
      13A     -0.636527    14A     -0.627212    15A     -0.602153
      16A     -0.530242    17A     -0.519184    18A     -0.507433
      19A     -0.470283    20A     -0.413141    21A     -0.383841

  @DF-RHF Final Energy:  -248.22163210859401

   => Energetics <=

    Nuclear Repulsion Energy =            193.5888385171270443
    One-Electron Energy =                -721.3418950191869499
    Two-Electron Energy =                 279.5314243934658407
    DFT Exchange-Correlation Energy =       0.0000000000000000
    Empirical Dispersion Energy =           0.0000000000000000
    PCM Polarization Energy =               0.0000000000000000
    EFP Energy =                            0.0000000000000000
    Total Energy =                       -248.2216321085941217
    Molecular point group: c1
  Basis Set: CC-PVTZ
  Basis Set:

  -Total Gradient:
     Atom            X                  Y                   Z
    ------   -----------------  -----------------  -----------------
       1       -0.000001624593     0.000010428040    -0.000007759255
       2        0.002408518504     0.000173504693     0.003581857517
       3       -0.002633550455     0.000114044016    -0.003128958807
       4       -0.001538777128    -0.000145790218    -0.002414719152
       5       -0.000012570620    -0.000005439270     0.000019356731
       6        0.001755785740    -0.000143680352     0.001972962658
       7        0.000026593834     0.000006280342    -0.000013305526
       8        0.000007209548     0.000007340340    -0.000031904659
       9       -0.000017762144    -0.000010196791     0.000011298734
      10        0.000000972365    -0.000021502721     0.000013524172
      11        0.000011457473     0.000022590447    -0.000002316418
      12       -0.000004600341    -0.000003186597    -0.000002625477
      13        0.000001483650    -0.000002418938     0.000004597411
      14       -0.000003135834    -0.000001972988    -0.000002007927

  **** Optimization is complete! (in 5 steps) ****
    Final optimized geometry and variables:
    Molecular point group: c1

    Geometry (in Angstrom), charge = 0, multiplicity = 1:

    H           -2.320419947379    -1.428285212927    -1.105891344785
    N           -1.400306053283    -1.311677246739    -0.742308680731
    C           -0.808069935854    -0.059749822897    -1.198599149524
    H           -0.869349571487    -2.099503410424    -1.040520329134
    C           -0.214559183105     0.730122161234    -0.050385404247
    H           -0.010557134560    -0.232147661681    -1.914190063743
    H           -1.558374740444     0.554588308607    -1.683692456031
    O            0.920170738848     0.069147775924     0.413345019101
    H            0.051116587308     1.732674543436    -0.388862866370
    H           -0.950715145617     0.824938377923     0.744862828665
    C            1.489071045388     0.628094124021     1.548885017641
    H            2.359171180706     0.041935885627     1.807766635941
    H            1.800694419694     1.656613596036     1.375576466639
    H            0.797155653100     0.616045576560     2.387899090435

  Mulliken Charges: (a.u.)
   Center  Symbol    Alpha    Beta     Spin     Total
       1     H     0.42810  0.42810  0.00000  0.14380
       2     N     3.69015  3.69015  0.00000 -0.38030
       3     C     3.04172  3.04172  0.00000 -0.08344
       4     H     0.42567  0.42567  0.00000  0.14865
       5     C     2.95041  2.95041  0.00000  0.09918
       6     H     0.45645  0.45645  0.00000  0.08710
       7     H     0.45665  0.45665  0.00000  0.08670
       8     O     4.17533  4.17533  0.00000 -0.35067
       9     H     0.47608  0.47608  0.00000  0.04784
      10     H     0.47594  0.47594  0.00000  0.04813
      11     C     3.03034  3.03034  0.00000 -0.06068
      12     H     0.44859  0.44859  0.00000  0.10281
      13     H     0.47406  0.47406  0.00000  0.05187
      14     H     0.47050  0.47050  0.00000  0.05899

   Total alpha = 21.00000, Total beta = 21.00000, Total charge = -0.00000
