  ==> Input File <==

--------------------------------------------------------------------------
set {
	reference rhf
	basis 6-31G*
}

set_num_threads( 4 )
memory 2 gb

molecule MOL {
0 1

H	 -1.836216	 1.387520	 -0.000064
C	 -1.301823	 0.443321	 -0.000031
O	 -0.003969	 0.658512	 0.000451
O	 -1.829879	 -0.616434	 -0.000857
C	 0.439050	 1.997504	 -0.218684
C	 1.951692	 1.988550	 -0.172257
H	 0.017308	 2.633925	 0.547096
H	 0.068244	 2.335490	 -1.176579
H	 2.305080	 1.639796	 0.791341
H	 2.330805	 2.992110	 -0.334656
H	 2.356425	 1.339948	 -0.940629

	symmetry c1
}
set optking {
	frozen_dihedral = ("
		5 3 2 4
	")
}

ee = optimize('scf')
oeprop('DIPOLE', 'QUADRUPOLE', 'MULLIKEN_CHARGES')
f=open( 'psi4out.xyz', 'w' )
f.write( "11  " )
f.write( str(ee) + "\n" )
f.write( MOL.save_string_xyz() )
f.close()
--------------------------------------------------------------------------

    Molecular point group: c1
  Charge       = 0
  Multiplicity = 1
  Basis Set: 6-31G*
  Basis Set:
  @DF-RHF Final Energy:  -266.81810099810821
    Total Energy =                       -266.8181009981083207
    Molecular point group: c1
  Basis Set: 6-31G*
  Basis Set:
  Basis Set: 6-31G*
  Basis Set:
  @DF-RHF Final Energy:  -266.81911889850051
    Total Energy =                       -266.8191188985006761
  Basis Set: 6-31G*
  Basis Set:
  Basis Set: 6-31G*
  Basis Set:
  @DF-RHF Final Energy:  -266.81919825145445
    Total Energy =                       -266.8191982514543952
  Basis Set: 6-31G*
  Basis Set:
  Basis Set: 6-31G*
  Basis Set:
  @DF-RHF Final Energy:  -266.81928429396976
    Total Energy =                       -266.8192842939697584
  Basis Set: 6-31G*
  Basis Set:
  Basis Set: 6-31G*
  Basis Set:
  @DF-RHF Final Energy:  -266.81929350565554
    Total Energy =                       -266.8192935056555370
  Basis Set: 6-31G*
  Basis Set:
  Charge       = 0
  Multiplicity = 1
  Basis Set: 6-31G*
  Basis Set:

    Orbital Energies (a.u.)
    -----------------------

    Doubly Occupied:

       1A    -20.611971     2A    -20.555262     3A    -11.379584
       4A    -11.307025     5A    -11.233907     6A     -1.473443
       7A     -1.379798     8A     -1.055912     9A     -0.888864
      10A     -0.848042    11A     -0.738124    12A     -0.696332
      13A     -0.666462    14A     -0.600482    15A     -0.575780
      16A     -0.564714    17A     -0.531231    18A     -0.521876
      19A     -0.456140    20A     -0.449791

  @DF-RHF Final Energy:  -266.81929418604238

   => Energetics <=

    Nuclear Repulsion Energy =            176.2631303324328371
    One-Electron Energy =                -713.0953716680800198
    Two-Electron Energy =                 270.0129471496048268
    DFT Exchange-Correlation Energy =       0.0000000000000000
    Empirical Dispersion Energy =           0.0000000000000000
    PCM Polarization Energy =               0.0000000000000000
    EFP Energy =                            0.0000000000000000
    Total Energy =                       -266.8192941860423275
    Molecular point group: c1
  Basis Set: 6-31G*
  Basis Set:

  -Total Gradient:
     Atom            X                  Y                   Z
    ------   -----------------  -----------------  -----------------
       1        0.000017494612    -0.000008073971    -0.000008250186
       2        0.000059311282    -0.000245566517     0.001683552873
       3        0.000037248640     0.000269255362     0.001004035623
       4       -0.000123084177     0.000099177944    -0.001534035145
       5       -0.000024312573    -0.000120129195    -0.001113495566
       6        0.000041926614     0.000042855925    -0.000014447019
       7        0.000006909605     0.000012018818    -0.000036465597
       8       -0.000033734963    -0.000049437353     0.000020186124
       9       -0.000003895865    -0.000001502351     0.000002212423
      10        0.000019592931     0.000000271101    -0.000004063288
      11        0.000002543895     0.000001130239     0.000000769757

  **** Optimization is complete! (in 6 steps) ****
    Final optimized geometry and variables:
    Molecular point group: c1

    Geometry (in Angstrom), charge = 0, multiplicity = 1:

    H           -1.753095668870     0.471535604086     0.225292407303
    C           -1.168333721165    -0.442364914772     0.117908015751
    O            0.133742249055    -0.233864108038     0.014428816682
    O           -1.655336514434    -1.515001568674     0.096524222311
    C            0.587433025230     1.099111431093    -0.163956587456
    C            2.097971231295     1.091405052480    -0.065386592378
    H            0.153632273925     1.737495094914     0.598763345823
    H            0.264280092455     1.459267829620    -1.134282071731
    H            2.412414438035     0.729420214384     0.906183127559
    H            2.484479043108     2.095510929214    -0.204519936714
    H            2.523596041057     0.447596494929    -0.825502709635

  Mulliken Charges: (a.u.)
   Center  Symbol    Alpha    Beta     Spin     Total
       1     H     0.43239  0.43239  0.00000  0.13522
       2     C     2.71842  2.71842  0.00000  0.56315
       3     O     4.28373  4.28373  0.00000 -0.56747
       4     O     4.24946  4.24946  0.00000 -0.49893
       5     C     3.01068  3.01068  0.00000 -0.02135
       6     C     3.24692  3.24692  0.00000 -0.49384
       7     H     0.41704  0.41704  0.00000  0.16591
       8     H     0.41387  0.41387  0.00000  0.17225
       9     H     0.40686  0.40686  0.00000  0.18628
      10     H     0.41553  0.41553  0.00000  0.16893
      11     H     0.40508  0.40508  0.00000  0.18984

   Total alpha = 20.00000, Total beta = 20.00000, Total charge = -0.00000
