                              Psi4 1.0.54 Driver

  ==> Input File <==

--------------------------------------------------------------------------
set {
	reference rhf
	basis cc-pvtz
}

set_num_threads( 4 )
memory 2 gb

molecule MOL {
0 1

H	 1.128311	 0.207724	 1.465118
C	 1.134565	 0.093781	 0.372499
C	 0.062554	 0.862911	 -0.350953
O	 1.948932	 -0.587720	 -0.146651
C	 -1.171326	 1.116315	 0.520794
H	 -0.193750	 0.328242	 -1.256453
H	 0.500775	 1.816577	 -0.636538
C	 -1.941336	 -0.154829	 0.867101
H	 -1.825332	 1.803839	 -0.002809
H	 -0.869316	 1.622149	 1.433683
H	 -2.285656	 -0.656655	 -0.030212
H	 -2.808340	 0.073865	 1.475085
H	 -1.327625	 -0.858045	 1.419261

	symmetry c1
}
set optking {
	frozen_dihedral = ("
		6 3 2 4
	")
}

ee,wfn = optimize('scf', return_wfn=True)
oeprop( wfn, 'DIPOLE', 'QUADRUPOLE', 'MULLIKEN_CHARGES')
f=open( 'psi4out.xyz', 'w' )
f.write( "13  " )
f.write( str(ee) + "\n" )
f.write( MOL.save_string_xyz() )
f.close()
--------------------------------------------------------------------------

    Molecular point group: c1
  Charge       = 0
  Multiplicity = 1
  Basis Set: CC-PVTZ
  Basis Set:
  @DF-RHF Final Energy:  -231.06983954326282
    Total Energy =                       -231.0698395432628161
    Molecular point group: c1
  Basis Set: CC-PVTZ
  Basis Set:
  Basis Set: CC-PVTZ
  Basis Set:
  @DF-RHF Final Energy:  -231.06846102618093
    Total Energy =                       -231.0684610261810690
  Basis Set: CC-PVTZ
  Basis Set:
  Basis Set: CC-PVTZ
  Basis Set:
  @DF-RHF Final Energy:  -231.06991422090496
    Total Energy =                       -231.0699142209049910
  Basis Set: CC-PVTZ
  Basis Set:
  Basis Set: CC-PVTZ
  Basis Set:
  @DF-RHF Final Energy:  -231.06999934761913
    Total Energy =                       -231.0699993476188752
  Basis Set: CC-PVTZ
  Basis Set:
  Basis Set: CC-PVTZ
  Basis Set:
  @DF-RHF Final Energy:  -231.06993031767149
    Total Energy =                       -231.0699303176714352
  Basis Set: CC-PVTZ
  Basis Set:
  Basis Set: CC-PVTZ
  Basis Set:
  @DF-RHF Final Energy:  -231.07001326834433
    Total Energy =                       -231.0700132683442405
  Basis Set: CC-PVTZ
  Basis Set:
  Charge       = 0
  Multiplicity = 1
  Basis Set: CC-PVTZ
  Basis Set:

    Orbital Energies (a.u.)
    -----------------------

    Doubly Occupied:

       1A    -20.551904     2A    -11.322633     3A    -11.235620
       4A    -11.234891     5A    -11.222017     6A     -1.407545
       7A     -1.088800     8A     -0.973728     9A     -0.848993
      10A     -0.792287    11A     -0.663833    12A     -0.650563
      13A     -0.635956    14A     -0.595276    15A     -0.567610
      16A     -0.533045    17A     -0.508886    18A     -0.493729
      19A     -0.484765    20A     -0.412763

  @DF-RHF Final Energy:  -231.07001390622995

   => Energetics <=

    Nuclear Repulsion Energy =            173.2213061309496709
    One-Electron Energy =                -656.1329541008785782
    Two-Electron Energy =                 251.8416340636989048
    DFT Exchange-Correlation Energy =       0.0000000000000000
    Empirical Dispersion Energy =           0.0000000000000000
    PCM Polarization Energy =               0.0000000000000000
    EFP Energy =                            0.0000000000000000
    Total Energy =                       -231.0700139062300309
    Molecular point group: c1
  Basis Set: CC-PVTZ
  Basis Set:

  -Total Gradient:
     Atom            X                  Y                   Z
    ------   -----------------  -----------------  -----------------
       1       -0.000004004458    -0.000005038227    -0.000039504875
       2       -0.001424958453    -0.001965851164     0.000340183922
       3        0.001542725788     0.001496963340    -0.000979694193
       4        0.000848482737     0.001245229129    -0.000078425289
       5        0.000001381294    -0.000000289303    -0.000006153543
       6       -0.000962536028    -0.000747759079     0.000764634149
       7       -0.000003470416    -0.000018883450     0.000005557760
       8       -0.000004629146    -0.000001085650     0.000002422440
       9        0.000003191705    -0.000009884967     0.000008715687
      10       -0.000001472042    -0.000004789238    -0.000011897757
      11        0.000003511330     0.000005124964     0.000002843424
      12        0.000003810982    -0.000003679493     0.000001388626
      13       -0.000002033294     0.000009943139    -0.000010070352

  **** Optimization is complete! (in 7 steps) ****
    Final optimized geometry and variables:
    Molecular point group: c1

    Geometry (in Angstrom), charge = 0, multiplicity = 1:

    H            1.198268527572     0.001076196869     1.190458836561
    C            1.146050941129    -0.132615522181     0.101778721272
    C            0.029085285138     0.607282805528    -0.592716938370
    O            1.958750338341    -0.787120343545    -0.452800506438
    C           -1.195569390953     0.839715687100     0.290475271730
    H           -0.231667293236     0.059688263720    -1.490020247556
    H            0.448419293756     1.560358016959    -0.905320452809
    C           -1.940044298867    -0.446208900502     0.639297188082
    H           -1.869433410217     1.517989112614    -0.219977664249
    H           -0.891671366777     1.345667042371     1.202736529331
    H           -2.292587889622    -0.945062389099    -0.256725074761
    H           -2.799487828131    -0.239724602478     1.265491641769
    H           -1.305560036158    -1.145020508201     1.174504909579

  Mulliken Charges: (a.u.)
   Center  Symbol    Alpha    Beta     Spin     Total
       1     H     0.46251  0.46251  0.00000  0.07497
       2     C     2.91039  2.91039  0.00000  0.17922
       3     C     3.08765  3.08765  0.00000 -0.17530
       4     O     4.16414  4.16414  0.00000 -0.32828
       5     C     3.10393  3.10393  0.00000 -0.20786
       6     H     0.44105  0.44105  0.00000  0.11791
       7     H     0.43894  0.43894  0.00000  0.12212
       8     C     3.14578  3.14578  0.00000 -0.29157
       9     H     0.44387  0.44387  0.00000  0.11226
      10     H     0.45180  0.45180  0.00000  0.09641
      11     H     0.45099  0.45099  0.00000  0.09803
      12     H     0.44551  0.44551  0.00000  0.10898
      13     H     0.45345  0.45345  0.00000  0.09310

   Total alpha = 20.00000, Total beta = 20.00000, Total charge = -0.00000

*** Psi4 exiting successfully. Buy a developer a beer!
