                              Psi4 1.0.54 Driver

  ==> Input File <==

--------------------------------------------------------------------------
set {
	reference rhf
	basis cc-pvtz
}

set_num_threads( 4 )
memory 2 gb

molecule MOL {
0 1

H	 -1.696772	 2.614140	 2.584695
O	 -0.891117	 2.120430	 2.614499
C	 -0.656141	 1.624490	 1.402986
C	 0.614348	 0.819142	 1.366911
O	 -1.386281	 1.815241	 0.492776
C	 0.926581	 0.227233	 0.000178
H	 0.522534	 0.044219	 2.121095
H	 1.413873	 1.469030	 1.707681
C	 2.220156	 -0.582071	 -0.000088
H	 0.100398	 -0.399940	 -0.315275
H	 0.992833	 1.026621	 -0.729213
C	 3.466689	 0.296012	 -0.000457
H	 2.239073	 -1.234095	 -0.869382
H	 2.239505	 -1.233985	 0.869270
H	 3.493549	 0.935857	 -0.875887
H	 4.368821	 -0.304526	 -0.001199
H	 3.494559	 0.935166	 0.875458

	symmetry c1
}
set optking {
	frozen_dihedral = ("
		10 6 9 13
	")
}

ee,wfn = optimize('scf', return_wfn=True)
oeprop( wfn, 'DIPOLE', 'QUADRUPOLE', 'MULLIKEN_CHARGES')
f=open( 'psi4out.xyz', 'w' )
f.write( "17  " )
f.write( str(ee) + "\n" )
f.write( MOL.save_string_xyz() )
f.close()
--------------------------------------------------------------------------

    Molecular point group: c1
  Charge       = 0
  Multiplicity = 1
  Basis Set: CC-PVTZ
  Basis Set:
  @DF-RHF Final Energy:  -345.04663164012123
    Total Energy =                       -345.0466316401212339
    Molecular point group: c1
  Basis Set: CC-PVTZ
  Basis Set:
  Basis Set: CC-PVTZ
  Basis Set:
  @DF-RHF Final Energy:  -345.04687026084667
    Total Energy =                       -345.0468702608466742
  Basis Set: CC-PVTZ
  Basis Set:
  Basis Set: CC-PVTZ
  Basis Set:
  @DF-RHF Final Energy:  -345.04658527759921
    Total Energy =                       -345.0465852775991493
  Basis Set: CC-PVTZ
  Basis Set:
  Basis Set: CC-PVTZ
  Basis Set:
  @DF-RHF Final Energy:  -345.04691688093084
    Total Energy =                       -345.0469168809307803
  Basis Set: CC-PVTZ
  Basis Set:
  Charge       = 0
  Multiplicity = 1
  Basis Set: CC-PVTZ
  Basis Set:

    Orbital Energies (a.u.)
    -----------------------

    Doubly Occupied:

       1A    -20.604091     2A    -20.540708     3A    -11.373684
       4A    -11.239178     5A    -11.221380     6A    -11.220767
       7A    -11.212709     8A     -1.477663     9A     -1.369185
      10A     -1.092589    11A     -1.017682    12A     -0.919060
      13A     -0.831101    14A     -0.782707    15A     -0.703849
      16A     -0.693097    17A     -0.667405    18A     -0.619353
      19A     -0.613660    20A     -0.586575    21A     -0.563025
      22A     -0.542718    23A     -0.520675    24A     -0.484887
      25A     -0.478882    26A     -0.475261    27A     -0.470546
      28A     -0.446870

  @DF-RHF Final Energy:  -345.04692024356746

   => Energetics <=

    Nuclear Repulsion Energy =            307.6195210059074725
    One-Electron Energy =               -1079.7942742093582638
    Two-Electron Energy =                 427.1278329598832215
    DFT Exchange-Correlation Energy =       0.0000000000000000
    Empirical Dispersion Energy =           0.0000000000000000
    PCM Polarization Energy =               0.0000000000000000
    EFP Energy =                            0.0000000000000000
    Total Energy =                       -345.0469202435675697
    Molecular point group: c1
  Basis Set: CC-PVTZ
  Basis Set:

  -Total Gradient:
     Atom            X                  Y                   Z
    ------   -----------------  -----------------  -----------------
       1        0.000017399852    -0.000024438651    -0.000051498989
       2        0.000047350176     0.000005819550     0.000096588917
       3        0.000052568945    -0.000050812572     0.000004674252
       4       -0.000024451535     0.000056738631     0.000069896203
       5       -0.000052045742     0.000015419408    -0.000096417552
       6       -0.000542621269    -0.000883810666     0.002294574787
       7        0.000002327173    -0.000014602455    -0.000004924281
       8       -0.000016038772    -0.000005413304    -0.000004256577
       9        0.001043669475     0.001669738801    -0.001545531758
      10        0.000292566491     0.000508306489    -0.001720557445
      11        0.000003172970    -0.000017883056     0.000015885445
      12        0.000020963573     0.000048887547     0.000006683177
      13       -0.000797756869    -0.001290348763     0.000965491177
      14        0.000001462757     0.000021967769    -0.000019437547
      15       -0.000021879890    -0.000009814820    -0.000001152584
      16       -0.000028247972    -0.000004372799     0.000011166207
      17        0.000001560634    -0.000025381107    -0.000021183429

  **** Optimization is complete! (in 5 steps) ****
    Final optimized geometry and variables:
    Molecular point group: c1

    Geometry (in Angstrom), charge = 0, multiplicity = 1:

    H           -2.309370886198     1.667341215384     1.715917886925
    O           -1.498910739628     1.181907041737     1.750856367877
    C           -1.252458515204     0.688523398218     0.540363313350
    C            0.027512796286    -0.101947653670     0.511404339482
    O           -1.978938043182     0.873666836568    -0.373955223733
    C            0.345242851452    -0.695431219324    -0.854473627249
    H           -0.060487870778    -0.877983816250     1.264925912641
    H            0.813026194111     0.559679949037     0.858254513247
    C            1.643647111001    -1.505444195296    -0.879487118030
    H           -0.479675763163    -1.321818521817    -1.170762036169
    H            0.400279988642     0.103165414003    -1.586192291229
    C            2.914833189900    -0.661009696655    -0.873039424718
    H            1.638135108957    -2.137076155568    -1.761245536118
    H            1.659407655693    -2.187189682402    -0.032650516471
    H            2.943434539950     0.002903763827    -1.730368181640
    H            3.796485713195    -1.290002025777    -0.912131918268
    H            2.992176650119    -0.050750450310     0.019718962169

  Mulliken Charges: (a.u.)
   Center  Symbol    Alpha    Beta     Spin     Total
       1     H     0.38237  0.38237  0.00000  0.23526
       2     O     4.16025  4.16025  0.00000 -0.32049
       3     C     2.80337  2.80337  0.00000  0.39325
       4     C     3.11094  3.11094  0.00000 -0.22188
       5     O     4.19120  4.19120  0.00000 -0.38239
       6     C     3.08871  3.08871  0.00000 -0.17742
       7     H     0.43792  0.43792  0.00000  0.12417
       8     H     0.43805  0.43805  0.00000  0.12391
       9     C     3.09360  3.09360  0.00000 -0.18719
      10     H     0.44075  0.44075  0.00000  0.11849
      11     H     0.44693  0.44693  0.00000  0.10614
      12     C     3.14967  3.14967  0.00000 -0.29935
      13     H     0.44478  0.44478  0.00000  0.11043
      14     H     0.45652  0.45652  0.00000  0.08695
      15     H     0.45288  0.45288  0.00000  0.09423
      16     H     0.44595  0.44595  0.00000  0.10809
      17     H     0.45610  0.45610  0.00000  0.08779

   Total alpha = 28.00000, Total beta = 28.00000, Total charge = -0.00000

*** Psi4 exiting successfully. Buy a developer a beer!
