                              Psi4 1.0.54 Driver

  ==> Input File <==

--------------------------------------------------------------------------
set {
	reference rhf
	basis cc-pvtz
}

set_num_threads( 4 )
memory 2 gb

molecule MOL {
0 1

H	 1.098346	 1.848098	 0.285791
C	 1.555244	 0.871819	 0.170532
N	 0.526300	 -0.128137	 0.000000
H	 2.121680	 0.666190	 1.069924
H	 2.253345	 0.930139	 -0.667218
C	 -0.247113	 0.037112	 -1.209233
H	 0.930263	 -1.039138	 0.023434
H	 -0.996493	 -0.743733	 -1.271440
H	 0.397975	 -0.057351	 -2.073512
H	 -0.763794	 0.997171	 -1.271673

	symmetry c1
}
set optking {
	frozen_dihedral = ("
		2 3 6 8
	")
}

ee,wfn = optimize('scf', return_wfn=True)
oeprop( wfn, 'DIPOLE', 'QUADRUPOLE', 'MULLIKEN_CHARGES')
f=open( 'psi4out.xyz', 'w' )
f.write( "10  " )
f.write( str(ee) + "\n" )
f.write( MOL.save_string_xyz() )
f.close()
--------------------------------------------------------------------------

    Molecular point group: c1
  Charge       = 0
  Multiplicity = 1
  Basis Set: CC-PVTZ
  Basis Set:
  @DF-RHF Final Energy:  -134.29179192943170
    Total Energy =                       -134.2917919294317244
    Molecular point group: c1
  Basis Set: CC-PVTZ
  Basis Set:
  Basis Set: CC-PVTZ
  Basis Set:
  @DF-RHF Final Energy:  -134.29291646441342
    Total Energy =                       -134.2929164644133948
  Basis Set: CC-PVTZ
  Basis Set:
  Basis Set: CC-PVTZ
  Basis Set:
  @DF-RHF Final Energy:  -134.29306624941330
    Total Energy =                       -134.2930662494133003
  Basis Set: CC-PVTZ
  Basis Set:
  Charge       = 0
  Multiplicity = 1
  Basis Set: CC-PVTZ
  Basis Set:

    Orbital Energies (a.u.)
    -----------------------

    Doubly Occupied:

       1A    -15.532451     2A    -11.234290     3A    -11.234224
       4A     -1.200980     5A     -0.948252     6A     -0.854824
       7A     -0.662825     8A     -0.613236     9A     -0.592449
      10A     -0.539128    11A     -0.511061    12A     -0.507382
      13A     -0.364079

  @DF-RHF Final Energy:  -134.29306754895111

   => Energetics <=

    Nuclear Repulsion Energy =             84.7552592712423660
    One-Electron Energy =                -348.5062922359525714
    Two-Electron Energy =                 129.4579654157589630
    DFT Exchange-Correlation Energy =       0.0000000000000000
    Empirical Dispersion Energy =           0.0000000000000000
    PCM Polarization Energy =               0.0000000000000000
    EFP Energy =                            0.0000000000000000
    Total Energy =                       -134.2930675489512282
    Molecular point group: c1
  Basis Set: CC-PVTZ
  Basis Set:

  -Total Gradient:
     Atom            X                  Y                   Z
    ------   -----------------  -----------------  -----------------
       1        0.000001919693    -0.000004493738    -0.000001528960
       2       -0.000195604631     0.000264925368     0.000106763316
       3        0.000145036104    -0.000228121880    -0.000140855097
       4       -0.000003682276    -0.000008509259     0.000005106932
       5       -0.000012385071    -0.000008841559     0.000013689778
       6        0.000279351058    -0.000263397684    -0.000280213861
       7       -0.000022243339    -0.000002438664    -0.000057929133
       8       -0.000254651881     0.000260119488     0.000259416687
       9        0.000023270406     0.000000355345     0.000037668795
      10        0.000038989936    -0.000009597415     0.000057881542

  **** Optimization is complete! (in 4 steps) ****
    Final optimized geometry and variables:
    Molecular point group: c1

    Geometry (in Angstrom), charge = 0, multiplicity = 1:

    H            0.476137774247     1.594794150821     0.626765327932
    C            0.928342135180     0.613959037202     0.534680569796
    N           -0.104753617330    -0.382501780155     0.368764511601
    H            1.481771173030     0.420615120360     1.444839406500
    H            1.637940107530     0.653149092433    -0.294502459655
    C           -0.860727857354    -0.235222856274    -0.853543114215
    H            0.291312281757    -1.296022630717     0.416371403690
    H           -1.614558195545    -1.009820643884    -0.914920926449
    H           -0.248797108785    -0.277532367619    -1.756893843912
    H           -1.373394203830     0.719884167707    -0.848760508774

  Mulliken Charges: (a.u.)
   Center  Symbol    Alpha    Beta     Spin     Total
       1     H     0.45694  0.45694  0.00000  0.08613
       2     C     3.08084  3.08084  0.00000 -0.16167
       3     N     3.62885  3.62885  0.00000 -0.25770
       4     H     0.45241  0.45241  0.00000  0.09517
       5     H     0.47519  0.47519  0.00000  0.04963
       6     C     3.08129  3.08129  0.00000 -0.16259
       7     H     0.44053  0.44053  0.00000  0.11894
       8     H     0.45220  0.45220  0.00000  0.09560
       9     H     0.47450  0.47450  0.00000  0.05100
      10     H     0.45725  0.45725  0.00000  0.08549

   Total alpha = 13.00000, Total beta = 13.00000, Total charge =  0.00000

*** Psi4 exiting successfully. Buy a developer a beer!
