  ==> Input File <==

--------------------------------------------------------------------------
set {
	reference rhf
	basis 6-31G*
}

set_num_threads( 1 )
memory 2 gb

molecule MOL {
0 1

O	 0.074228	 1.262779	 -0.000085
C	 0.028650	 0.075053	 -0.000277
C	 -1.233602	 -0.752807	 0.000328
O	 1.109162	 -0.694619	 -0.000298
C	 -2.501530	 0.091881	 0.000126
H	 -1.193807	 -1.406641	 -0.865785
H	 -1.193516	 -1.405779	 0.867015
H	 -2.545121	 0.729328	 -0.874513
H	 -3.377167	 -0.548497	 0.000561
H	 -2.544818	 0.730135	 0.874258
C	 1.882672	 -0.716285	 -1.186384
H	 1.293251	 -1.075532	 -2.017611
H	 2.703174	 -1.389007	 -0.991233
H	 2.254755	 0.271934	 -1.415401

	symmetry c1
}
set optking {
	frozen_dihedral = ("
		4 2 3 6
	")
}

ee = energy('scf')
oeprop('DIPOLE', 'QUADRUPOLE', 'MULLIKEN_CHARGES')
f=open( 'psi4out.xyz', 'w' )
f.write( "14  " )
f.write( str(ee) + "\n" )
f.write( MOL.save_string_xyz() )
f.close()
--------------------------------------------------------------------------

    Molecular point group: c1

    Geometry (in Angstrom), charge = 0, multiplicity = 1:

       Center              X                  Y                   Z               Mass
    ------------   -----------------  -----------------  -----------------  -----------------
           O          0.160503502027     1.383892301630     0.212264926051    15.994914619560
           C          0.114925502027     0.196166301630     0.212072926051    12.000000000000
           C         -1.147326497973    -0.631693698370     0.212677926051    12.000000000000
           O          1.195437502027    -0.573505698370     0.212051926051    15.994914619560
           C         -2.415254497973     0.212994301630     0.212475926051    12.000000000000
           H         -1.107531497973    -1.285527698370    -0.653435073949     1.007825032070
           H         -1.107240497973    -1.284665698370     1.079364926051     1.007825032070
           H         -2.458845497973     0.850441301630    -0.662163073949     1.007825032070
           H         -3.290891497973    -0.427383698370     0.212910926051     1.007825032070
           H         -2.458542497973     0.851248301630     1.086607926051     1.007825032070
           C          1.968947502027    -0.595171698370    -0.974034073949    12.000000000000
           H          1.379526502027    -0.954418698370    -1.805261073949     1.007825032070
           H          2.789449502027    -1.267893698370    -0.778883073949     1.007825032070
           H          2.341030502027     0.393047301630    -1.203051073949     1.007825032070

  Charge       = 0
  Multiplicity = 1
  Basis Set: 6-31G*
  Basis Set:

    Orbital Energies (a.u.)
    -----------------------

    Doubly Occupied:

       1A    -20.589213     2A    -20.554215     3A    -11.374058
       4A    -11.292619     5A    -11.239661     6A    -11.216817
       7A     -1.465573     8A     -1.366639     9A     -1.062373
      10A     -0.982314    11A     -0.886827    12A     -0.769692
      13A     -0.699600    14A     -0.680816    15A     -0.673575
      16A     -0.618150    17A     -0.616345    18A     -0.556603
      19A     -0.542597    20A     -0.522626    21A     -0.508446
      22A     -0.491409    23A     -0.456230    24A     -0.436525

  @DF-RHF Final Energy:  -305.85434348241205

   => Energetics <=

    Nuclear Repulsion Energy =            247.2818414134359841
    One-Electron Energy =                -907.0665472100405395
    Two-Electron Energy =                 353.9303623141923936
    DFT Exchange-Correlation Energy =       0.0000000000000000
    Empirical Dispersion Energy =           0.0000000000000000
    PCM Polarization Energy =               0.0000000000000000
    EFP Energy =                            0.0000000000000000
    Total Energy =                       -305.8543434824122187

  Mulliken Charges: (a.u.)
   Center  Symbol    Alpha    Beta     Spin     Total
       1     O     4.26371  4.26371  0.00000 -0.52742
       2     C     2.61442  2.61442  0.00000  0.77116
       3     C     3.20705  3.20705  0.00000 -0.41411
       4     O     4.31001  4.31001  0.00000 -0.62002
       5     C     3.24003  3.24003  0.00000 -0.48005
       6     H     0.40669  0.40669  0.00000  0.18661
       7     H     0.39838  0.39838  0.00000  0.20325
       8     H     0.41121  0.41121  0.00000  0.17759
       9     H     0.41849  0.41849  0.00000  0.16303
      10     H     0.40873  0.40873  0.00000  0.18255
      11     C     3.09378  3.09378  0.00000 -0.18757
      12     H     0.42022  0.42022  0.00000  0.15956
      13     H     0.40295  0.40295  0.00000  0.19410
      14     H     0.40434  0.40434  0.00000  0.19131

   Total alpha = 24.00000, Total beta = 24.00000, Total charge = -0.00000
