                              Psi4 1.0.54 Driver

  ==> Input File <==

--------------------------------------------------------------------------
set {
	reference rhf
	basis cc-pvtz
}

set_num_threads( 4 )
memory 2 gb

molecule MOL {
0 1

H	 -0.091756	 7.038412	 1.391004
C	 -1.066198	 6.572931	 1.297952
C	 -0.948043	 5.147747	 0.768600
H	 -1.533919	 6.586300	 2.276356
H	 -1.665671	 7.189821	 0.636228
C	 -2.304247	 4.463077	 0.613982
H	 -0.324673	 4.567696	 1.439338
H	 -0.442940	 5.163297	 -0.194443
C	 -2.217614	 3.036903	 0.079743
H	 -2.815235	 4.451483	 1.568752
H	 -2.919034	 5.045009	 -0.066587
C	 -1.664256	 2.022385	 1.066168
H	 -3.209367	 2.684095	 -0.191766
H	 -1.631841	 2.998846	 -0.834007
C	 -1.180025	 0.697761	 0.509157
O	 -1.628187	 2.242685	 2.233833
C	 -2.285431	 -0.137488	 -0.145671
H	 -0.737122	 0.151400	 1.330842
H	 -0.399192	 0.897138	 -0.220052
C	 -3.646545	 0.082747	 0.508954
H	 -2.348635	 0.118247	 -1.199806
H	 -2.034895	 -1.192387	 -0.096473
C	 -4.757412	 -0.737227	 -0.138149
H	 -3.900211	 1.137405	 0.459735
H	 -3.580878	 -0.166775	 1.564416
H	 -4.867876	 -0.486707	 -1.187777
H	 -4.549650	 -1.800049	 -0.072540
H	 -5.709585	 -0.556397	 0.346597

	symmetry c1
}
set optking {
	frozen_dihedral = ("
		12 15 17 21
	")
}

ee,wfn = optimize('scf', return_wfn=True)
oeprop( wfn, 'DIPOLE', 'QUADRUPOLE', 'MULLIKEN_CHARGES')
f=open( 'psi4out.xyz', 'w' )
f.write( "28  " )
f.write( str(ee) + "\n" )
f.write( MOL.save_string_xyz() )
f.close()
--------------------------------------------------------------------------

    Molecular point group: c1
  Charge       = 0
  Multiplicity = 1
  Basis Set: CC-PVTZ
  Basis Set:
  @DF-RHF Final Energy:  -426.31029451352231
    Total Energy =                       -426.3102945135219670
    Molecular point group: c1
  Basis Set: CC-PVTZ
  Basis Set:
  Basis Set: CC-PVTZ
  Basis Set:
  @DF-RHF Final Energy:  -426.31469645114828
    Total Energy =                       -426.3146964511477108
  Basis Set: CC-PVTZ
  Basis Set:
  Basis Set: CC-PVTZ
  Basis Set:
  @DF-RHF Final Energy:  -426.27390259362141
    Total Energy =                       -426.2739025936214148
  Basis Set: CC-PVTZ
  Basis Set:
  Basis Set: CC-PVTZ
  Basis Set:
  @DF-RHF Final Energy:  -426.31283884401876
    Total Energy =                       -426.3128388440190975
  Basis Set: CC-PVTZ
  Basis Set:
  @DF-RHF Final Energy:  -426.31560934131164
    Total Energy =                       -426.3156093413115286
  @DF-RHF Final Energy:  -426.31450490317070
    Total Energy =                       -426.3145049031707003
  @DF-RHF Final Energy:  -426.31586338654188
    Total Energy =                       -426.3158633865423326
  @DF-RHF Final Energy:  -426.31588764727883
    Total Energy =                       -426.3158876472790553
  @DF-RHF Final Energy:  -426.31608351838884
    Total Energy =                       -426.3160835183887230
  Basis Set: CC-PVTZ
  Basis Set:
  @DF-RHF Final Energy:  -426.31611356753535
    Total Energy =                       -426.3161135675347850
  Basis Set: CC-PVTZ
  Basis Set:
  Basis Set: CC-PVTZ
  Basis Set:
  @DF-RHF Final Energy:  -426.31612196143180
    Total Energy =                       -426.3161219614313495
  Basis Set: CC-PVTZ
  Basis Set:
  Basis Set: CC-PVTZ
  Basis Set:
  @DF-RHF Final Energy:  -426.31612298890252
    Total Energy =                       -426.3161229889026345
  Basis Set: CC-PVTZ
  Basis Set:
  Charge       = 0
  Multiplicity = 1
  Basis Set: CC-PVTZ
  Basis Set:

    Orbital Energies (a.u.)
    -----------------------

    Doubly Occupied:

       1A    -20.537106     2A    -11.316636     3A    -11.229203
       4A    -11.228715     5A    -11.226683     6A    -11.219563
       7A    -11.214708     8A    -11.211635     9A    -11.208805
      10A    -11.202885    11A     -1.397303    12A     -1.093028
      13A     -1.077352    14A     -1.021423    15A     -0.991264
      16A     -0.908057    17A     -0.873122    18A     -0.813347
      19A     -0.796066    20A     -0.721722    21A     -0.663975
      22A     -0.655240    23A     -0.629302    24A     -0.617071
      25A     -0.609132    26A     -0.584559    27A     -0.582632
      28A     -0.571742    29A     -0.551910    30A     -0.533550
      31A     -0.517372    32A     -0.508994    33A     -0.500072
      34A     -0.486918    35A     -0.475771    36A     -0.469147
      37A     -0.466760    38A     -0.463996    39A     -0.457742
      40A     -0.394078

  @DF-RHF Final Energy:  -426.31612366160687

   => Energetics <=

    Nuclear Repulsion Energy =            544.0012322414796699
    One-Electron Energy =               -1656.5775506247462090
    Two-Electron Energy =                 686.2601947216589906
    DFT Exchange-Correlation Energy =       0.0000000000000000
    Empirical Dispersion Energy =           0.0000000000000000
    PCM Polarization Energy =               0.0000000000000000
    EFP Energy =                            0.0000000000000000
    Total Energy =                       -426.3161236616074348
    Molecular point group: c1
  Basis Set: CC-PVTZ
  Basis Set:

  -Total Gradient:
     Atom            X                  Y                   Z
    ------   -----------------  -----------------  -----------------
       1       -0.000014283392     0.000005148605    -0.000012408457
       2       -0.000001152108     0.000006545343     0.000024908192
       3        0.000007002040     0.000033836014    -0.000004408645
       4        0.000016526368    -0.000005755778    -0.000014290522
       5        0.000005570154    -0.000009395174     0.000010923263
       6        0.000044847966     0.000022413351    -0.000011237853
       7        0.000006843670     0.000011707052    -0.000011865284
       8       -0.000017458788     0.000003556764     0.000010666847
       9       -0.000083721657    -0.000043567904    -0.000065594732
      10        0.000003845913    -0.000006287171    -0.000004177564
      11       -0.000004399765    -0.000012227404     0.000007248557
      12       -0.001555128127    -0.000466612062     0.003731405462
      13        0.000015601620     0.000018987499     0.000027004216
      14       -0.000003041188     0.000000322639     0.000034577806
      15        0.002585905405    -0.000644000018    -0.005142044823
      16        0.000004224923     0.000030702181     0.000018811149
      17       -0.002656177213     0.006330603688     0.001363290714
      18        0.000010026086    -0.000010043807    -0.000012844513
      19       -0.000001877913     0.000008803713    -0.000008025053
      20        0.000021833628     0.000005500328    -0.000003469818
      21        0.001597126129    -0.005246918944     0.000083924777
      22       -0.000039273561     0.000004933521     0.000003086190
      23        0.000010204074    -0.000024862252    -0.000024645493
      24        0.000014675478    -0.000008127701    -0.000008259317
      25        0.000021163498    -0.000002788834     0.000008853221
      26       -0.000010162968    -0.000000974102    -0.000006368961
      27       -0.000004005778     0.000001308936     0.000001178372
      28        0.000025285507    -0.000002808484     0.000003762268

  **** Optimization is complete! (in 13 steps) ****
    Final optimized geometry and variables:
    Molecular point group: c1

    Geometry (in Angstrom), charge = 0, multiplicity = 1:

    H            3.218397623398     4.037036512291     0.879817780745
    C            2.285546632524     3.786155207764     0.388225083117
    C            2.183339523254     2.286251000730     0.133407455928
    H            1.475327656590     4.128626251172     1.022707834083
    H            2.239250213273     4.347589353151    -0.539488258244
    C            0.886759164305     1.897633685071    -0.574131813064
    H            2.253594936483     1.755579917358     1.074726022606
    H            3.028513210335     1.967080394479    -0.472073780753
    C            0.750088706500     0.402435077775    -0.843419900115
    H            0.039923128537     2.230524394246     0.014661446523
    H            0.834039412267     2.421266202670    -1.524356688569
    C            0.414967532725    -0.448519031237     0.367289629173
    H           -0.027959378669     0.218106770509    -1.579939179536
    H            1.660869652290     0.004701113423    -1.284363285511
    C            0.281966321724    -1.943138166677     0.136142551332
    O            0.245743214930     0.018957973901     1.446661870985
    C           -1.062159253408    -2.370869201566    -0.491792208255
    H            0.384263526821    -2.403343621563     1.109705392654
    H            1.096507968745    -2.293129333975    -0.487511792046
    C           -2.290730749216    -1.594009968819    -0.027862286336
    H           -0.985115457012    -2.365459343405    -1.575000948279
    H           -1.203689556497    -3.416946069984    -0.237267906697
    C           -3.585908577588    -2.169631035402    -0.590591930371
    H           -2.209504411763    -0.551912104382    -0.319951132744
    H           -2.328578946008    -1.598175330106     1.056349882594
    H           -3.584466496106    -2.153858608509    -1.675611718789
    H           -3.726801480037    -3.198225816543    -0.276150518280
    H           -4.443809841322    -1.600348021988    -0.253037486532

  Mulliken Charges: (a.u.)
   Center  Symbol    Alpha    Beta     Spin     Total
       1     H     0.44869  0.44869  0.00000  0.10263
       2     C     3.15183  3.15183  0.00000 -0.30365
       3     C     3.08336  3.08336  0.00000 -0.16673
       4     H     0.45225  0.45225  0.00000  0.09550
       5     H     0.45742  0.45742  0.00000  0.08517
       6     C     3.08756  3.08756  0.00000 -0.17513
       7     H     0.44351  0.44351  0.00000  0.11297
       8     H     0.45893  0.45893  0.00000  0.08214
       9     C     3.12834  3.12834  0.00000 -0.25668
      10     H     0.44664  0.44664  0.00000  0.10673
      11     H     0.44808  0.44808  0.00000  0.10383
      12     C     2.86228  2.86228  0.00000  0.27544
      13     H     0.43360  0.43360  0.00000  0.13281
      14     H     0.44124  0.44124  0.00000  0.11751
      15     C     3.10288  3.10288  0.00000 -0.20576
      16     O     4.18314  4.18314  0.00000 -0.36628
      17     C     3.11401  3.11401  0.00000 -0.22801
      18     H     0.43728  0.43728  0.00000  0.12544
      19     H     0.44104  0.44104  0.00000  0.11793
      20     C     3.08410  3.08410  0.00000 -0.16819
      21     H     0.44819  0.44819  0.00000  0.10362
      22     H     0.44396  0.44396  0.00000  0.11207
      23     C     3.15125  3.15125  0.00000 -0.30250
      24     H     0.45241  0.45241  0.00000  0.09518
      25     H     0.44204  0.44204  0.00000  0.11592
      26     H     0.45608  0.45608  0.00000  0.08784
      27     H     0.45394  0.45394  0.00000  0.09213
      28     H     0.44597  0.44597  0.00000  0.10807

   Total alpha = 40.00000, Total beta = 40.00000, Total charge =  0.00000

*** Psi4 exiting successfully. Buy a developer a beer!
