                              Psi4 1.0.54 Driver

  ==> Input File <==

--------------------------------------------------------------------------
set {
	reference rhf
	basis cc-pvtz
}

set_num_threads( 4 )
memory 2 gb

molecule MOL {
0 1

O	 -2.081319	 -0.951530	 -0.502732
N	 -1.613558	 0.006676	 0.014756
C	 -0.329345	 -0.171618	 0.743966
O	 -2.068523	 1.100482	 -0.024385
C	 0.835904	 0.041968	 -0.213982
H	 -0.346048	 -1.174374	 1.137184
H	 -0.333613	 0.555559	 1.538590
C	 2.177039	 -0.130175	 0.494460
H	 0.754456	 -0.665923	 -1.030569
H	 0.765464	 1.037260	 -0.637266
C	 3.026235	 -1.233194	 -0.127388
H	 2.005199	 -0.354006	 1.543177
H	 2.724093	 0.807501	 0.464422
H	 2.518439	 -2.190132	 -0.081456
H	 3.240735	 -1.021044	 -1.168876
H	 3.971234	 -1.333678	 0.392268

	symmetry c1
}
set optking {
	frozen_dihedral = ("
		11 8 5 9
	")
}

ee,wfn = optimize('scf', return_wfn=True)
oeprop( wfn, 'DIPOLE', 'QUADRUPOLE', 'MULLIKEN_CHARGES')
f=open( 'psi4out.xyz', 'w' )
f.write( "16  " )
f.write( str(ee) + "\n" )
f.write( MOL.save_string_xyz() )
f.close()
--------------------------------------------------------------------------

    Molecular point group: c1
  Charge       = 0
  Multiplicity = 1
  Basis Set: CC-PVTZ
  Basis Set:
  @DF-RHF Final Energy:  -360.90374551204320
    Total Energy =                       -360.9037455120429740
    Molecular point group: c1
  Basis Set: CC-PVTZ
  Basis Set:
  Basis Set: CC-PVTZ
  Basis Set:
  @DF-RHF Final Energy:  -360.90399234358870
    Total Energy =                       -360.9039923435888113
  Basis Set: CC-PVTZ
  Basis Set:
  Basis Set: CC-PVTZ
  Basis Set:
  @DF-RHF Final Energy:  -360.90143818812186
    Total Energy =                       -360.9014381881218583
  Basis Set: CC-PVTZ
  Basis Set:
  Basis Set: CC-PVTZ
  Basis Set:
  @DF-RHF Final Energy:  -360.90396183286333
    Total Energy =                       -360.9039618328632741
  Basis Set: CC-PVTZ
  Basis Set:
  Basis Set: CC-PVTZ
  Basis Set:
  @DF-RHF Final Energy:  -360.90405455657441
    Total Energy =                       -360.9040545565744651
  Basis Set: CC-PVTZ
  Basis Set:
  Basis Set: CC-PVTZ
  Basis Set:
  @DF-RHF Final Energy:  -360.90406498784904
    Total Energy =                       -360.9040649878487557
  Basis Set: CC-PVTZ
  Basis Set:
  Charge       = 0
  Multiplicity = 1
  Basis Set: CC-PVTZ
  Basis Set:

    Orbital Energies (a.u.)
    -----------------------

    Doubly Occupied:

       1A    -20.589653     2A    -20.589596     3A    -15.835909
       4A    -11.296836     5A    -11.250497     6A    -11.241984
       7A    -11.226397     8A     -1.635065     9A     -1.419417
      10A     -1.135414    11A     -1.058068    12A     -0.948728
      13A     -0.845745    14A     -0.828701    15A     -0.759632
      16A     -0.737461    17A     -0.727817    18A     -0.669274
      19A     -0.626282    20A     -0.604949    21A     -0.561321
      22A     -0.552094    23A     -0.514874    24A     -0.503443
      25A     -0.493198    26A     -0.485285    27A     -0.468931
      28A     -0.451851

  @DF-RHF Final Energy:  -360.90406507823218

   => Energetics <=

    Nuclear Repulsion Energy =            313.6673865131790535
    One-Electron Energy =               -1113.0260558037587089
    Two-Electron Energy =                 438.4546042123473057
    DFT Exchange-Correlation Energy =       0.0000000000000000
    Empirical Dispersion Energy =           0.0000000000000000
    PCM Polarization Energy =               0.0000000000000000
    EFP Energy =                            0.0000000000000000
    Total Energy =                       -360.9040650782323496
    Molecular point group: c1
  Basis Set: CC-PVTZ
  Basis Set:

  -Total Gradient:
     Atom            X                  Y                   Z
    ------   -----------------  -----------------  -----------------
       1       -0.000009109404    -0.000007217159    -0.000023231342
       2        0.000017733012    -0.000000330791     0.000053254977
       3       -0.000001359882    -0.000004809286    -0.000005503651
       4       -0.000020618006     0.000021963537    -0.000019705485
       5       -0.000214790405    -0.000351908559     0.000313089660
       6       -0.000002018627    -0.000004669919    -0.000001237748
       7       -0.000002584375    -0.000005462745     0.000002727128
       8        0.000183550239     0.000304019169    -0.000267396054
       9        0.000134697363     0.000215033234    -0.000195229349
      10        0.000006147466    -0.000003533826    -0.000004787068
      11       -0.000097450142    -0.000166276096     0.000149856256
      12        0.000003610481     0.000003884244    -0.000003878063
      13        0.000002879980    -0.000001650009     0.000001258855
      14       -0.000006648406    -0.000001648773    -0.000011711288
      15        0.000007210724     0.000008143490     0.000002556962
      16       -0.000001250023    -0.000005536508     0.000009936211

  **** Optimization is complete! (in 7 steps) ****
    Final optimized geometry and variables:
    Molecular point group: c1

    Geometry (in Angstrom), charge = 0, multiplicity = 1:

    O           -2.038603307467    -0.764600938927    -0.541801402063
    N           -1.571499342592     0.196929355038    -0.029524534329
    C           -0.284055970834     0.024918666017     0.696153841500
    O           -2.029348488439     1.289450244133    -0.071324751006
    C            0.879351236488     0.241871779154    -0.264068348654
    H           -0.294733930966    -0.977567248512     1.090628812055
    H           -0.288562667332     0.753187576482     1.489818511469
    C            2.237788747904     0.060460541565     0.445167457428
    H            0.785782612981    -0.459253097510    -1.083682895105
    H            0.797659501148     1.235083974779    -0.685494974545
    C            3.095565804702    -1.039901091315    -0.171713762520
    H            2.079265931452    -0.165396753423     1.495155892535
    H            2.782814339473     0.996152609466     0.423710316996
    H            2.588897454552    -1.998248811358    -0.133674379842
    H            3.316692830374    -0.824577044208    -1.211137652819
    H            4.037075570042    -1.139923283459     0.354923336403

  Mulliken Charges: (a.u.)
   Center  Symbol    Alpha    Beta     Spin     Total
       1     O     4.17399  4.17399  0.00000 -0.34797
       2     N     3.27631  3.27631  0.00000  0.44738
       3     C     3.04238  3.04238  0.00000 -0.08476
       4     O     4.17416  4.17416  0.00000 -0.34831
       5     C     3.10709  3.10709  0.00000 -0.21418
       6     H     0.43366  0.43366  0.00000  0.13269
       7     H     0.43298  0.43298  0.00000  0.13403
       8     C     3.09577  3.09577  0.00000 -0.19154
       9     H     0.43780  0.43780  0.00000  0.12439
      10     H     0.43266  0.43266  0.00000  0.13469
      11     C     3.14603  3.14603  0.00000 -0.29207
      12     H     0.45344  0.45344  0.00000  0.09311
      13     H     0.44372  0.44372  0.00000  0.11257
      14     H     0.45267  0.45267  0.00000  0.09466
      15     H     0.45089  0.45089  0.00000  0.09822
      16     H     0.44645  0.44645  0.00000  0.10710

   Total alpha = 28.00000, Total beta = 28.00000, Total charge = -0.00000

*** Psi4 exiting successfully. Buy a developer a beer!
