                              Psi4 1.0.54 Driver

  ==> Input File <==

--------------------------------------------------------------------------
set {
	reference rhf
	basis cc-pvtz
}

set_num_threads( 4 )
memory 2 gb

molecule MOL {
0 1

H	 -2.789981	 0.396055	 0.027750
C	 -2.330230	 0.434590	 -0.950700
C	 -1.060465	 -0.401435	 -0.990366
H	 -2.118710	 1.472436	 -1.170585
H	 -3.043943	 0.068697	 -1.679150
C	 0.000000	 0.039916	 0.000014
H	 -0.614789	 -0.380228	 -1.981235
H	 -1.280205	 -1.447279	 -0.793349
C	 1.286532	 -0.763243	 0.000268
O	 -0.167122	 0.960042	 0.732009
C	 2.547023	 0.087626	 -0.000114
H	 1.264245	 -1.421103	 -0.864380
H	 1.264290	 -1.420353	 0.865489
H	 2.584452	 0.725630	 -0.872909
H	 3.427035	 -0.544422	 0.000125
H	 2.584484	 0.726356	 0.872143

	symmetry c1
}
set optking {
	frozen_dihedral = ("
		3 6 9 12
	")
}

ee,wfn = optimize('scf', return_wfn=True)
oeprop( wfn, 'DIPOLE', 'QUADRUPOLE', 'MULLIKEN_CHARGES')
f=open( 'psi4out.xyz', 'w' )
f.write( "16  " )
f.write( str(ee) + "\n" )
f.write( MOL.save_string_xyz() )
f.close()
--------------------------------------------------------------------------

    Molecular point group: c1
  Charge       = 0
  Multiplicity = 1
  Basis Set: CC-PVTZ
  Basis Set:
  @DF-RHF Final Energy:  -270.12991252147015
    Total Energy =                       -270.1299125214701462
    Molecular point group: c1
  Basis Set: CC-PVTZ
  Basis Set:
  Basis Set: CC-PVTZ
  Basis Set:
  @DF-RHF Final Energy:  -270.12817498827224
    Total Energy =                       -270.1281749882722920
  Basis Set: CC-PVTZ
  Basis Set:
  Basis Set: CC-PVTZ
  Basis Set:
  @DF-RHF Final Energy:  -270.13040656903172
    Total Energy =                       -270.1304065690320613
  Basis Set: CC-PVTZ
  Basis Set:
  Basis Set: CC-PVTZ
  Basis Set:
  @DF-RHF Final Energy:  -270.13042651952082
    Total Energy =                       -270.1304265195205971
  Basis Set: CC-PVTZ
  Basis Set:
  Basis Set: CC-PVTZ
  Basis Set:
  @DF-RHF Final Energy:  -270.13036006094717
    Total Energy =                       -270.1303600609469981
  Basis Set: CC-PVTZ
  Basis Set:
  Basis Set: CC-PVTZ
  Basis Set:
  @DF-RHF Final Energy:  -270.13042918844076
    Total Energy =                       -270.1304291884408713
  Basis Set: CC-PVTZ
  Basis Set:
  Charge       = 0
  Multiplicity = 1
  Basis Set: CC-PVTZ
  Basis Set:

    Orbital Energies (a.u.)
    -----------------------

    Doubly Occupied:

       1A    -20.537514     2A    -11.318002     3A    -11.233101
       4A    -11.231140     5A    -11.216782     6A    -11.211867
       7A     -1.398397     8A     -1.069643     9A     -1.037767
      10A     -0.915860    11A     -0.849937    12A     -0.726533
      13A     -0.668320    14A     -0.644142    15A     -0.624044
      16A     -0.604479    17A     -0.564500    18A     -0.535752
      19A     -0.528236    20A     -0.512475    21A     -0.503360
      22A     -0.496826    23A     -0.481053    24A     -0.399024

  @DF-RHF Final Energy:  -270.13042929819233

   => Energetics <=

    Nuclear Repulsion Energy =            240.3611262903102102
    One-Electron Energy =                -842.3655990215216889
    Two-Electron Energy =                 331.8740434330192102
    DFT Exchange-Correlation Energy =       0.0000000000000000
    Empirical Dispersion Energy =           0.0000000000000000
    PCM Polarization Energy =               0.0000000000000000
    EFP Energy =                            0.0000000000000000
    Total Energy =                       -270.1304292981923254
    Molecular point group: c1
  Basis Set: CC-PVTZ
  Basis Set:

  -Total Gradient:
     Atom            X                  Y                   Z
    ------   -----------------  -----------------  -----------------
       1        0.000005668485    -0.000001339989    -0.000003283329
       2       -0.000003989104    -0.000000302826     0.000001051697
       3        0.000267067945     0.000508460800    -0.000733834265
       4        0.000000854612     0.000001068837    -0.000000353046
       5       -0.000000962242     0.000000475004    -0.000001362796
       6       -0.000474045381    -0.000964178302     0.001230586874
       7       -0.000005547558     0.000000400206     0.000008611344
       8        0.000003020968    -0.000001387575     0.000005917311
       9        0.000648833428     0.001233984632    -0.001360540218
      10       -0.000002490122     0.000024089348     0.000018935674
      11       -0.000011344380    -0.000001297121     0.000010053544
      12       -0.000427193036    -0.000801341720     0.000822843466
      13       -0.000000164973     0.000002686942     0.000001245012
      14       -0.000001046167    -0.000002816213     0.000001499419
      15       -0.000001328398    -0.000002529184    -0.000000969553
      16        0.000002665924     0.000004027164    -0.000000401132

  **** Optimization is complete! (in 7 steps) ****
    Final optimized geometry and variables:
    Molecular point group: c1

    Geometry (in Angstrom), charge = 0, multiplicity = 1:

    H           -2.820534078033     0.074912543200     0.504707930788
    C           -2.471198555352     0.075841661113    -0.519405154483
    C           -1.132412804123    -0.633802190448    -0.638799027153
    H           -2.392267829673     1.107216994411    -0.835464684972
    H           -3.214943278339    -0.415979468178    -1.134901681943
    C           -0.023078557879    -0.011715753745     0.181017663891
    H           -0.790810532524    -0.651569153296    -1.671325651302
    H           -1.213681316435    -1.677663257598    -0.345370871607
    C            1.318055903334    -0.726309934676     0.173143676710
    O           -0.181881969236     0.985635680714     0.806543248210
    C            2.495463776691     0.226032103541    -0.010520645884
    H            1.322236850293    -1.506038334523    -0.579212503596
    H            1.398269701780    -1.227031123906     1.134449804999
    H            2.454503582199     0.715373540700    -0.977117625664
    H            3.432385903110    -0.313807387872     0.050792922986
    H            2.486889860753     0.991592473318     0.751883607934

  Mulliken Charges: (a.u.)
   Center  Symbol    Alpha    Beta     Spin     Total
       1     H     0.44860  0.44860  0.00000  0.10281
       2     C     3.14119  3.14119  0.00000 -0.28237
       3     C     3.10184  3.10184  0.00000 -0.20368
       4     H     0.44689  0.44689  0.00000  0.10621
       5     H     0.45079  0.45079  0.00000  0.09842
       6     C     2.86818  2.86818  0.00000  0.26363
       7     H     0.44578  0.44578  0.00000  0.10844
       8     H     0.44524  0.44524  0.00000  0.10951
       9     C     3.09536  3.09536  0.00000 -0.19073
      10     O     4.17622  4.17622  0.00000 -0.35244
      11     C     3.14382  3.14382  0.00000 -0.28764
      12     H     0.44643  0.44643  0.00000  0.10713
      13     H     0.44506  0.44506  0.00000  0.10988
      14     H     0.45514  0.45514  0.00000  0.08972
      15     H     0.44939  0.44939  0.00000  0.10122
      16     H     0.44006  0.44006  0.00000  0.11988

   Total alpha = 24.00000, Total beta = 24.00000, Total charge =  0.00000

*** Psi4 exiting successfully. Buy a developer a beer!
