  ==> Input File <==

--------------------------------------------------------------------------
set {
	reference rhf
	basis 6-31G*
}

set_num_threads( 4 )
memory 2 gb

molecule MOL {
0 1

O	 2.178463	 0.692230	 -0.923915
C	 1.705091	 0.115954	 0.001797
C	 0.381791	 -0.609817	 0.001258
O	 2.298942	 0.031804	 1.185602
C	 -0.823008	 0.326187	 0.001381
H	 0.371250	 -1.265087	 -0.865474
H	 0.370908	 -1.265746	 0.867490
C	 -2.149452	 -0.435131	 -0.000098
H	 -0.770201	 0.977095	 -0.865636
H	 -0.771220	 0.975655	 0.869608
C	 -3.368779	 0.488503	 -0.000883
H	 -2.193746	 -1.087250	 -0.871175
H	 -2.195311	 -1.087803	 0.870418
C	 -4.693822	 -0.272754	 -0.001129
H	 -3.325798	 1.139422	 -0.871284
H	 -3.326423	 1.139959	 0.869145
H	 -4.781274	 -0.907928	 -0.878124
H	 -5.538651	 0.408946	 -0.001420
H	 -4.781694	 -0.907783	 0.875984
C	 3.554893	 0.671404	 1.321451
H	 4.271087	 0.253501	 0.628666
H	 3.869065	 0.491947	 2.337800
H	 3.462655	 1.732539	 1.139817

	symmetry c1
}
set optking {
	frozen_dihedral = ("
		1 2 3 6
	")
}

ee = optimize('scf')
oeprop('DIPOLE', 'QUADRUPOLE', 'MULLIKEN_CHARGES')
f=open( 'psi4out.xyz', 'w' )
f.write( "23  " )
f.write( str(ee) + "\n" )
f.write( MOL.save_string_xyz() )
f.close()
--------------------------------------------------------------------------

    Molecular point group: c1
  Charge       = 0
  Multiplicity = 1
  Basis Set: 6-31G*
  Basis Set:
  @DF-RHF Final Energy:  -422.97397286888071
    Total Energy =                       -422.9739728688806508
    Molecular point group: c1
  Basis Set: 6-31G*
  Basis Set:
  Basis Set: 6-31G*
  Basis Set:
  @DF-RHF Final Energy:  -422.97411479773285
    Total Energy =                       -422.9741147977334776
  Basis Set: 6-31G*
  Basis Set:
  Basis Set: 6-31G*
  Basis Set:
  @DF-RHF Final Energy:  -422.97466537485008
    Total Energy =                       -422.9746653748508152
  Basis Set: 6-31G*
  Basis Set:
  Basis Set: 6-31G*
  Basis Set:
  @DF-RHF Final Energy:  -422.97474926010335
    Total Energy =                       -422.9747492601040904
  Basis Set: 6-31G*
  Basis Set:
  Basis Set: 6-31G*
  Basis Set:
  @DF-RHF Final Energy:  -422.97475277167121
    Total Energy =                       -422.9747527716714330
  Basis Set: 6-31G*
  Basis Set:
  Basis Set: 6-31G*
  Basis Set:
  @DF-RHF Final Energy:  -422.97475405021902
    Total Energy =                       -422.9747540502194170
  Basis Set: 6-31G*
  Basis Set:
  Charge       = 0
  Multiplicity = 1
  Basis Set: 6-31G*
  Basis Set:

    Orbital Energies (a.u.)
    -----------------------

    Doubly Occupied:

       1A    -20.605512     2A    -20.541797     3A    -11.370906
       4A    -11.280573     5A    -11.233448     6A    -11.227849
       7A    -11.221000     8A    -11.219186     9A    -11.211477
      10A     -1.469074    11A     -1.360894    12A     -1.095973
      13A     -1.044503    14A     -0.986070    15A     -0.934082
      16A     -0.845386    17A     -0.797747    18A     -0.772163
      19A     -0.694705    20A     -0.680121    21A     -0.672405
      22A     -0.653242    23A     -0.606881    24A     -0.597519
      25A     -0.577213    26A     -0.570880    27A     -0.542562
      28A     -0.532947    29A     -0.523877    30A     -0.506359
      31A     -0.489594    32A     -0.474733    33A     -0.469423
      34A     -0.464769    35A     -0.452839    36A     -0.429548

  @DF-RHF Final Energy:  -422.97475432954906

   => Energetics <=

    Nuclear Repulsion Energy =            453.4936414676791969
    One-Electron Energy =               -1474.6222816824983965
    Two-Electron Energy =                 598.1538858852701424
    DFT Exchange-Correlation Energy =       0.0000000000000000
    Empirical Dispersion Energy =           0.0000000000000000
    PCM Polarization Energy =               0.0000000000000000
    EFP Energy =                            0.0000000000000000
    Total Energy =                       -422.9747543295490004
    Molecular point group: c1
  Basis Set: 6-31G*
  Basis Set:

  -Total Gradient:
     Atom            X                  Y                   Z
    ------   -----------------  -----------------  -----------------
       1        0.000035719085    -0.000038985346    -0.000004106232
       2       -0.000049750690     0.000065441725    -0.000003940618
       3        0.000031743865    -0.000080648254     0.000036423548
       4        0.000017359881     0.000012802895     0.000006123124
       5       -0.000006502105     0.000012372104     0.000004954814
       6       -0.000021877005     0.000036725074    -0.000017013032
       7       -0.000005313740    -0.000002709671    -0.000014668009
       8        0.000010043657    -0.000007045163     0.000015058576
       9        0.000005678226    -0.000003287862    -0.000008958124
      10       -0.000006430274     0.000005853440    -0.000003229262
      11        0.000003533165     0.000003267196     0.000007948547
      12        0.000000861418     0.000009215964    -0.000003214841
      13        0.000000602598    -0.000011537906    -0.000005988580
      14       -0.000001356932     0.000000674649    -0.000001244734
      15       -0.000005045247    -0.000001804936    -0.000002262861
      16        0.000002315978     0.000002917961    -0.000002696188
      17       -0.000001139428    -0.000000497247    -0.000000138161
      18       -0.000000650500    -0.000000340988    -0.000000183598
      19        0.000001895639     0.000001265968    -0.000000609119
      20       -0.000015132898     0.000000357632     0.000000691893
      21        0.000002678882    -0.000001911938    -0.000002986478
      22        0.000001292287    -0.000001609846    -0.000000557338
      23       -0.000000525860    -0.000000515453     0.000000596672

  **** Optimization is complete! (in 7 steps) ****
    Final optimized geometry and variables:
    Molecular point group: c1

    Geometry (in Angstrom), charge = 0, multiplicity = 1:

    O            2.159620753240     0.594779783074    -1.090978076713
    C            1.758464800657    -0.028113312638    -0.159911702064
    C            0.454601349603    -0.787794138597    -0.147006599544
    O            2.406080331995    -0.106581081913     0.993812396850
    C           -0.741655591299     0.174695778949    -0.152303896891
    H            0.431821698117    -1.401194544450    -1.041249952566
    H            0.419301531404    -1.438447157230     0.717389904872
    C           -2.080928271817    -0.562006622762    -0.188017122575
    H           -0.657325820874     0.832189441547    -1.011670012555
    H           -0.698211287717     0.805589510340     0.732765699320
    C           -3.283438719237     0.383507662610    -0.191899952687
    H           -2.119012993919    -1.195498107872    -1.072482762843
    H           -2.150701962286    -1.229036529690     0.669462596651
    C           -4.620975720523    -0.354662399778    -0.230779067279
    H           -3.213604325618     1.050114851918    -1.048478711837
    H           -3.246155449805     1.016704331044     0.691860815267
    H           -4.703189776449    -0.970617379071    -1.121787333460
    H           -5.453738432307     0.341594982631    -0.232424690439
    H           -4.735365261434    -1.005117195812     0.631775903176
    C            3.630782580602     0.598243500711     1.090444722722
    H            4.335470857774     0.236398289505     0.355767381797
    H            4.000077237635     0.412753405600     2.086997608118
    H            3.472469906000     1.656374068299     0.939759295140

  Mulliken Charges: (a.u.)
   Center  Symbol    Alpha    Beta     Spin     Total
       1     O     4.28713  4.28713  0.00000 -0.57426
       2     C     2.61291  2.61291  0.00000  0.77417
       3     C     3.19840  3.19840  0.00000 -0.39681
       4     O     4.30268  4.30268  0.00000 -0.60536
       5     C     3.16456  3.16456  0.00000 -0.32913
       6     H     0.40119  0.40119  0.00000  0.19762
       7     H     0.40185  0.40185  0.00000  0.19631
       8     C     3.15216  3.15216  0.00000 -0.30431
       9     H     0.40507  0.40507  0.00000  0.18986
      10     H     0.41576  0.41576  0.00000  0.16848
      11     C     3.15243  3.15243  0.00000 -0.30486
      12     H     0.42133  0.42133  0.00000  0.15733
      13     H     0.42232  0.42232  0.00000  0.15537
      14     C     3.23982  3.23982  0.00000 -0.47965
      15     H     0.42060  0.42060  0.00000  0.15880
      16     H     0.42200  0.42200  0.00000  0.15601
      17     H     0.42101  0.42101  0.00000  0.15799
      18     H     0.41815  0.41815  0.00000  0.16370
      19     H     0.42149  0.42149  0.00000  0.15702
      20     C     3.09339  3.09339  0.00000 -0.18679
      21     H     0.40838  0.40838  0.00000  0.18325
      22     H     0.40857  0.40857  0.00000  0.18287
      23     H     0.40881  0.40881  0.00000  0.18238

   Total alpha = 36.00000, Total beta = 36.00000, Total charge = -0.00000
