  ==> Input File <==

--------------------------------------------------------------------------
set {
	reference rhf
	basis cc-pvtz
}

set_num_threads( 4 )
memory 2 gb

molecule MOL {
0 1

H	 -2.266619	 1.169943	 0.000098
O	 -1.438073	 1.611259	 0.000041
C	 -0.408657	 0.734701	 0.000005
C	 -0.684605	 -0.552675	 -0.421808
C	 0.871898	 1.096019	 0.402174
H	 -1.685198	 -0.792086	 -0.724176
C	 0.317985	 -1.498784	 -0.447463
C	 1.859620	 0.125125	 0.366143
C	 1.171415	 2.501317	 0.862205
H	 0.096348	 -2.496204	 -0.776115
C	 1.598871	 -1.164312	 -0.052637
H	 2.854564	 0.388539	 0.673825
H	 0.582027	 2.774644	 1.732971
H	 2.212230	 2.599893	 1.135017
H	 0.971136	 3.231737	 0.083296
H	 2.383791	 -1.895045	 -0.069954

	symmetry c1
}
set optking {
	frozen_dihedral = ("
		4 3 2 1
	")
}

ee = optimize('scf')
oeprop('DIPOLE', 'QUADRUPOLE', 'MULLIKEN_CHARGES')
f=open( 'psi4out.xyz', 'w' )
f.write( "16  " )
f.write( str(ee) + "\n" )
f.write( MOL.save_string_xyz() )
f.close()
--------------------------------------------------------------------------

    Molecular point group: c1
  Charge       = 0
  Multiplicity = 1
  Basis Set: CC-PVTZ
  Basis Set:
  @DF-RHF Final Energy:  -344.71754307020456
    Total Energy =                       -344.7175430702045560
    Molecular point group: c1
  Basis Set: CC-PVTZ
  Basis Set:
  Basis Set: CC-PVTZ
  Basis Set:
  @DF-RHF Final Energy:  -344.71965938688186
    Total Energy =                       -344.7196593868819718
  Basis Set: CC-PVTZ
  Basis Set:
  Basis Set: CC-PVTZ
  Basis Set:
  @DF-RHF Final Energy:  -344.71985134787906
    Total Energy =                       -344.7198513478790574
  Basis Set: CC-PVTZ
  Basis Set:
  Basis Set: CC-PVTZ
  Basis Set:
  @DF-RHF Final Energy:  -344.71986848780978
    Total Energy =                       -344.7198684878097765
  Basis Set: CC-PVTZ
  Basis Set:
  Basis Set: CC-PVTZ
  Basis Set:
  @DF-RHF Final Energy:  -344.71987289893264
    Total Energy =                       -344.7198728989324081
  Basis Set: CC-PVTZ
  Basis Set:
  Charge       = 0
  Multiplicity = 1
  Basis Set: CC-PVTZ
  Basis Set:

    Orbital Energies (a.u.)
    -----------------------

    Doubly Occupied:

       1A    -20.581872     2A    -11.290698     3A    -11.229024
       4A    -11.228814     5A    -11.225911     6A    -11.223638
       7A    -11.217291     8A    -11.212975     9A     -1.411628
      10A     -1.152907    11A     -1.047467    12A     -1.006286
      13A     -0.932072    14A     -0.847647    15A     -0.802633
      16A     -0.735471    17A     -0.675302    18A     -0.654020
      19A     -0.611425    20A     -0.599423    21A     -0.579019
      22A     -0.561620    23A     -0.549065    24A     -0.541597
      25A     -0.502327    26A     -0.484263    27A     -0.477095
      28A     -0.333721    29A     -0.309644

  @DF-RHF Final Energy:  -344.71987298994156

   => Energetics <=

    Nuclear Repulsion Energy =            350.9634767632104513
    One-Electron Energy =               -1163.3169908667600794
    Two-Electron Energy =                 467.6336411136081210
    DFT Exchange-Correlation Energy =       0.0000000000000000
    Empirical Dispersion Energy =           0.0000000000000000
    PCM Polarization Energy =               0.0000000000000000
    EFP Energy =                            0.0000000000000000
    Total Energy =                       -344.7198729899415071
    Molecular point group: c1
  Basis Set: CC-PVTZ
  Basis Set:

  -Total Gradient:
     Atom            X                  Y                   Z
    ------   -----------------  -----------------  -----------------
       1        0.000008557938    -0.000040448200     0.001775499960
       2        0.000142422259     0.000253111260    -0.002840639143
       3       -0.000445305482    -0.000559245592     0.002249460011
       4        0.000298536623     0.000355398145    -0.001228265542
       5       -0.000016355384    -0.000006502078     0.000036906470
       6        0.000001187194    -0.000003232208     0.000002345237
       7       -0.000009406861    -0.000014685443     0.000005277474
       8       -0.000000724861    -0.000004629021     0.000004033020
       9        0.000013488748     0.000004994666    -0.000005383701
      10        0.000005754513     0.000000687330     0.000000736158
      11        0.000010567474     0.000019334523     0.000002894870
      12        0.000000578206     0.000005161880    -0.000001716268
      13       -0.000001934148    -0.000002218321     0.000000065531
      14       -0.000001822274     0.000000380817    -0.000000170177
      15       -0.000002049492    -0.000002509596     0.000001191477
      16       -0.000003494453    -0.000005598159    -0.000002235380

  **** Optimization is complete! (in 6 steps) ****
    Final optimized geometry and variables:
    Molecular point group: c1

    Geometry (in Angstrom), charge = 0, multiplicity = 1:

    H           -2.595543671390     0.863720931469    -0.077215844555
    O           -1.738338788241     1.248975125800    -0.070123679124
    C           -0.780186533429     0.291387957725    -0.092607259408
    C           -1.048910391477    -0.992014989005    -0.522082202917
    C            0.501856246190     0.662980156706     0.302027187504
    H           -2.043755700976    -1.250565371605    -0.837165389443
    C           -0.040682222665    -1.939226769401    -0.549065824017
    C            1.490898765093    -0.300363813609     0.257871825741
    C            0.778867010274     2.072039048366     0.755990747523
    H           -0.258977786246    -2.936568454579    -0.879899589397
    C            1.234490886488    -1.596310176995    -0.159664573177
    H            2.486296789198    -0.032894170526     0.560217290600
    H            0.162161797041     2.336407017146     1.606459366704
    H            1.816952716286     2.183664831105     1.038615812428
    H            0.560348901015     2.786221377435    -0.028878068743
    H            2.024254908696    -2.321873657576    -0.179560306609

  Mulliken Charges: (a.u.)
   Center  Symbol    Alpha    Beta     Spin     Total
       1     H     0.38823  0.38823  0.00000  0.22353
       2     O     4.17483  4.17483  0.00000 -0.34967
       3     C     2.86602  2.86602  0.00000  0.26795
       4     C     3.13121  3.13121  0.00000 -0.26242
       5     C     2.99606  2.99606  0.00000  0.00787
       6     H     0.43513  0.43513  0.00000  0.12975
       7     C     3.07239  3.07239  0.00000 -0.14478
       8     C     3.08302  3.08302  0.00000 -0.16604
       9     C     3.14276  3.14276  0.00000 -0.28552
      10     H     0.42262  0.42262  0.00000  0.15476
      11     C     3.08989  3.08989  0.00000 -0.17979
      12     H     0.42513  0.42513  0.00000  0.14974
      13     H     0.44751  0.44751  0.00000  0.10498
      14     H     0.45416  0.45416  0.00000  0.09168
      15     H     0.44617  0.44617  0.00000  0.10765
      16     H     0.42486  0.42486  0.00000  0.15028

   Total alpha = 29.00000, Total beta = 29.00000, Total charge =  0.00000
