  ==> Input File <==

--------------------------------------------------------------------------
set {
	reference rhf
	basis 6-31G*
}

set_num_threads( 1 )
memory 2 gb

molecule MOL {
0 1

H	 -3.161837	 0.500524	 -0.000234
C	 -2.367097	 -0.232926	 -0.000000
O	 -1.158440	 0.455814	 -0.000122
H	 -2.468853	 -0.861886	 -0.882833
H	 -2.468942	 -0.861421	 0.883154
C	 -0.029776	 -0.365156	 0.000148
C	 1.212217	 0.508981	 0.000007
H	 -0.036772	 -1.013236	 -0.877259
H	 -0.036869	 -1.012778	 0.877897
C	 1.134867	 1.634431	 1.030668
H	 2.075574	 -0.119598	 0.195364
H	 1.343365	 0.920688	 -0.995983
H	 1.027826	 1.242528	 2.038328
H	 2.033192	 2.242185	 1.008491
H	 0.289892	 2.289916	 0.838940

	symmetry c1
}
set optking {
	frozen_dihedral = ("
		6 3 2 4,
		8 6 3 2
	")
}

ee = energy('scf')
oeprop('DIPOLE', 'QUADRUPOLE', 'MULLIKEN_CHARGES')
f=open( 'psi4out.xyz', 'w' )
f.write( "15  " )
f.write( str(ee) + "\n" )
f.write( MOL.save_string_xyz() )
f.close()
--------------------------------------------------------------------------

    Molecular point group: c1

    Geometry (in Angstrom), charge = 0, multiplicity = 1:

       Center              X                  Y                   Z               Mass
    ------------   -----------------  -----------------  -----------------  -----------------
           H         -2.884529789673     0.106486276524    -0.209188708841     1.007825032070
           C         -2.089789789673    -0.626963723476    -0.208954708841    12.000000000000
           O         -0.881132789673     0.061776276524    -0.209076708841    15.994914619560
           H         -2.191545789673    -1.255923723476    -1.091787708841     1.007825032070
           H         -2.191634789673    -1.255458723476     0.674199291159     1.007825032070
           C          0.247531210327    -0.759193723476    -0.208806708841    12.000000000000
           C          1.489524210327     0.114943276524    -0.208947708841    12.000000000000
           H          0.240535210327    -1.407273723476    -1.086213708841     1.007825032070
           H          0.240438210327    -1.406815723476     0.668942291159     1.007825032070
           C          1.412174210327     1.240393276524     0.821713291159    12.000000000000
           H          2.352881210327    -0.513635723476    -0.013590708841     1.007825032070
           H          1.620672210327     0.526650276524    -1.204937708841     1.007825032070
           H          1.305133210327     0.848490276524     1.829373291159     1.007825032070
           H          2.310499210327     1.848147276524     0.799536291159     1.007825032070
           H          0.567199210327     1.895878276524     0.629985291159     1.007825032070

  Charge       = 0
  Multiplicity = 1
  Basis Set: 6-31G*
  Basis Set:

    Orbital Energies (a.u.)
    -----------------------

    Doubly Occupied:

       1A    -20.554599     2A    -11.266471     3A    -11.264868
       4A    -11.214363     5A    -11.200934     6A     -1.379968
       7A     -1.053179     8A     -0.948242     9A     -0.888428
      10A     -0.796259    11A     -0.671371    12A     -0.661481
      13A     -0.634212    14A     -0.596095    15A     -0.555860
      16A     -0.544130    17A     -0.503544    18A     -0.483294
      19A     -0.474644    20A     -0.458608    21A     -0.413397

  @DF-RHF Final Energy:  -232.13815365035020

   => Energetics <=

    Nuclear Repulsion Energy =            193.8960742894615805
    One-Electron Energy =                -698.9407838311082060
    Two-Electron Energy =                 272.9065558912959659
    DFT Exchange-Correlation Energy =       0.0000000000000000
    Empirical Dispersion Energy =           0.0000000000000000
    PCM Polarization Energy =               0.0000000000000000
    EFP Energy =                            0.0000000000000000
    Total Energy =                       -232.1381536503506595

  Mulliken Charges: (a.u.)
   Center  Symbol    Alpha    Beta     Spin     Total
       1     H     0.41229  0.41229  0.00000  0.17541
       2     C     3.07880  3.07880  0.00000 -0.15760
       3     O     4.30342  4.30342  0.00000 -0.60683
       4     H     0.43030  0.43030  0.00000  0.13939
       5     H     0.42997  0.42997  0.00000  0.14006
       6     C     2.98831  2.98831  0.00000  0.02338
       7     C     3.16251  3.16251  0.00000 -0.32502
       8     H     0.43010  0.43010  0.00000  0.13980
       9     H     0.43291  0.43291  0.00000  0.13419
      10     C     3.23934  3.23934  0.00000 -0.47868
      11     H     0.42218  0.42218  0.00000  0.15564
      12     H     0.41719  0.41719  0.00000  0.16562
      13     H     0.42453  0.42453  0.00000  0.15094
      14     H     0.42279  0.42279  0.00000  0.15441
      15     H     0.40535  0.40535  0.00000  0.18930

   Total alpha = 21.00000, Total beta = 21.00000, Total charge = -0.00000
