  ==> Input File <==

--------------------------------------------------------------------------
set {
	reference rhf
	basis 6-31G*
}

set_num_threads( 4 )
memory 2 gb

molecule MOL {
0 1

H	 -1.943384	 0.915435	 2.421015
O	 -1.010198	 0.762870	 2.482187
C	 -0.388592	 1.276144	 1.340207
C	 -0.793441	 0.596080	 0.058728
H	 0.677377	 1.154863	 1.495785
H	 -0.569695	 2.346621	 1.249067
C	 -1.530462	 -0.493172	 -0.025500
H	 -0.428466	 1.066636	 -0.841190
H	 -1.092586	 -1.461565	 -0.186463
H	 -2.602122	 -0.450675	 0.050101

	symmetry c1
}
set optking {
	frozen_dihedral = ("
		3 4 7 9
	")
}

ee = optimize('scf')
oeprop('DIPOLE', 'QUADRUPOLE', 'MULLIKEN_CHARGES')
f=open( 'psi4out.xyz', 'w' )
f.write( "10  " )
f.write( str(ee) + "\n" )
f.write( MOL.save_string_xyz() )
f.close()
--------------------------------------------------------------------------

    Molecular point group: c1
  Charge       = 0
  Multiplicity = 1
  Basis Set: 6-31G*
  Basis Set:
  @DF-RHF Final Energy:  -191.77123112019700
    Total Energy =                       -191.7712311201970010
    Molecular point group: c1
  Basis Set: 6-31G*
  Basis Set:
  Basis Set: 6-31G*
  Basis Set:
  @DF-RHF Final Energy:  -191.80834514693993
    Total Energy =                       -191.8083451469399279
  Basis Set: 6-31G*
  Basis Set:
  Basis Set: 6-31G*
  Basis Set:
  @DF-RHF Final Energy:  -191.84504208333203
    Total Energy =                       -191.8450420833320038
  Basis Set: 6-31G*
  Basis Set:
  Basis Set: 6-31G*
  Basis Set:
  @DF-RHF Final Energy:  -191.85756334709870
    Total Energy =                       -191.8575633470986759
  Basis Set: 6-31G*
  Basis Set:
  @DF-RHF Final Energy:  -191.85825936785366
    Total Energy =                       -191.8582593678535773
  @DF-RHF Final Energy:  -191.85853064826875
    Total Energy =                       -191.8585306482687542
  @DF-RHF Final Energy:  -191.85854916152880
    Total Energy =                       -191.8585491615287708
  @DF-RHF Final Energy:  -191.85855335041475
    Total Energy =                       -191.8585533504146667
  @DF-RHF Final Energy:  -191.85855080069038
    Total Energy =                       -191.8585508006902955
  @DF-RHF Final Energy:  -191.85854367415362
    Total Energy =                       -191.8585436741535943
  @DF-RHF Final Energy:  -191.85855245761155
    Total Energy =                       -191.8585524576115802
  @DF-RHF Final Energy:  -191.85855442532315
    Total Energy =                       -191.8585544253231774
  @DF-RHF Final Energy:  -191.85855254453037
    Total Energy =                       -191.8585525445303688
  @DF-RHF Final Energy:  -191.85855403281818
    Total Energy =                       -191.8585540328181764
  @DF-RHF Final Energy:  -191.85855284952379
    Total Energy =                       -191.8585528495236758
  @DF-RHF Final Energy:  -191.85855123851996
    Total Energy =                       -191.8585512385199934
  @DF-RHF Final Energy:  -191.85855399078065
    Total Energy =                       -191.8585539907806776
  @DF-RHF Final Energy:  -191.85854469795572
    Total Energy =                       -191.8585446979557503
  @DF-RHF Final Energy:  -191.85855434828909
    Total Energy =                       -191.8585543482891467
  @DF-RHF Final Energy:  -191.85855444178048
    Total Energy =                       -191.8585544417804840
  @DF-RHF Final Energy:  -191.85855222056057
    Total Energy =                       -191.8585522205605116
  @DF-RHF Final Energy:  -191.85855154664745
    Total Energy =                       -191.8585515466474476
  @DF-RHF Final Energy:  -191.85855193404652
    Total Energy =                       -191.8585519340465169
  @DF-RHF Final Energy:  -191.85855330992405
    Total Energy =                       -191.8585533099241047
  @DF-RHF Final Energy:  -191.85855286159358
    Total Energy =                       -191.8585528615935516
  @DF-RHF Final Energy:  -191.85855356375845
    Total Energy =                       -191.8585535637583916
  @DF-RHF Final Energy:  -191.85855431319584
    Total Energy =                       -191.8585543131959241
  @DF-RHF Final Energy:  -191.85855419119588
    Total Energy =                       -191.8585541911959069
  @DF-RHF Final Energy:  -191.85855363310876
    Total Energy =                       -191.8585536331087837
  @DF-RHF Final Energy:  -191.85855318968478
    Total Energy =                       -191.8585531896847556
  @DF-RHF Final Energy:  -191.85855402864252
    Total Energy =                       -191.8585540286425726
  @DF-RHF Final Energy:  -191.85855359580864
    Total Energy =                       -191.8585535958086723
  @DF-RHF Final Energy:  -191.85855355128982
    Total Energy =                       -191.8585535512898446
  @DF-RHF Final Energy:  -191.85855359630443
    Total Energy =                       -191.8585535963044038
  @DF-RHF Final Energy:  -191.85855291549092
    Total Energy =                       -191.8585529154908329
  @DF-RHF Final Energy:  -191.85855356731821
    Total Energy =                       -191.8585535673181539
  Basis Set: 6-31G*
  Basis Set:
  @DF-RHF Final Energy:  -191.85855335309958
    Total Energy =                       -191.8585533530995235
  Basis Set: 6-31G*
  Basis Set:
  Basis Set: 6-31G*
  Basis Set:
  @DF-RHF Final Energy:  -191.85855355375054
    Total Energy =                       -191.8585535537505962
  Basis Set: 6-31G*
  Basis Set:
  Basis Set: 6-31G*
  Basis Set:
  @DF-RHF Final Energy:  -191.85855343335993
    Total Energy =                       -191.8585534333599867
  Basis Set: 6-31G*
  Basis Set:
  Charge       = 0
  Multiplicity = 1
  Basis Set: 6-31G*
  Basis Set:

    Orbital Energies (a.u.)
    -----------------------

    Doubly Occupied:

       1A    -20.564500     2A    -11.290872     3A    -11.238481
       4A    -11.218074     5A     -1.373374     6A     -1.059983
       7A     -0.931703     8A     -0.770710     9A     -0.692891
      10A     -0.646607    11A     -0.621134    12A     -0.580056
      13A     -0.532426    14A     -0.480156    15A     -0.452310
      16A     -0.341876

  @DF-RHF Final Energy:  -191.85855360412734

   => Energetics <=

    Nuclear Repulsion Energy =            118.3412349307542257
    One-Electron Energy =                -494.8092685438679723
    Two-Electron Energy =                 184.6094800089864520
    DFT Exchange-Correlation Energy =       0.0000000000000000
    Empirical Dispersion Energy =           0.0000000000000000
    PCM Polarization Energy =               0.0000000000000000
    EFP Energy =                            0.0000000000000000
    Total Energy =                       -191.8585536041272803
    Molecular point group: c1
  Basis Set: 6-31G*
  Basis Set:

  -Total Gradient:
     Atom            X                  Y                   Z
    ------   -----------------  -----------------  -----------------
       1       -0.000089203773     0.000129502385     0.000057290640
       2        0.000197703281     0.000031647836    -0.000051740692
       3        0.031021736370    -0.014078337547    -0.005222887244
       4       -0.048473215027     0.016249496430     0.031130799517
       5       -0.000198671564    -0.000133730295     0.000181383124
       6       -0.000004925031    -0.000199262684     0.000004005579
       7        0.007771162820     0.011206533319    -0.071358971374
       8       -0.000053899888     0.000620299101    -0.000409548422
       9        0.009644151174    -0.013610918323     0.045210855903
      10        0.000185161638    -0.000215230222     0.000458812967

    Molecular point group: c1

    Geometry (in Angstrom), charge = 0, multiplicity = 1:

    H           -0.996080631723     0.676840787220     1.490379515570
    O           -0.144281466192     0.262858281335     1.480939783905
    C            0.555343825033     0.663442846868     0.341613639681
    C            0.072977416369     0.089917868118    -0.974155839634
    H            1.554965367848     0.262288219132     0.438175721299
    H            0.644518764626     1.747478628129     0.301276302433
    C           -0.502506978895    -1.081051633940    -1.214057630677
    H            0.767873645864     0.429268011676    -1.740610660773
    H           -0.035737743853    -1.969102191647    -1.603308131770
    H           -1.143736701455    -1.416765497646    -0.402353978192

  Mulliken Charges: (a.u.)
   Center  Symbol    Alpha    Beta     Spin     Total
       1     H     0.27880  0.27880  0.00000  0.44240
       2     O     4.36478  4.36478  0.00000 -0.72957
       3     C     2.99840  2.99840  0.00000  0.00321
       4     C     3.09272  3.09272  0.00000 -0.18543
       5     H     0.40175  0.40175  0.00000  0.19649
       6     H     0.42511  0.42511  0.00000  0.14978
       7     C     3.19218  3.19218  0.00000 -0.38436
       8     H     0.42394  0.42394  0.00000  0.15212
       9     H     0.39923  0.39923  0.00000  0.20153
      10     H     0.42309  0.42309  0.00000  0.15383

   Total alpha = 16.00000, Total beta = 16.00000, Total charge =  0.00000
