  ==> Input File <==

--------------------------------------------------------------------------
set {
	reference rhf
	basis 6-31G*
}

set_num_threads( 4 )
memory 2 gb

molecule MOL {
0 1

H	 -3.420663	 1.227371	 -1.044276
O	 -3.452007	 0.283848	 -0.965577
C	 -3.181085	 -0.079926	 0.364119
C	 -1.765924	 0.277073	 0.805136
H	 -3.327791	 -1.152017	 0.410903
H	 -3.905698	 0.375695	 1.036898
C	 -0.677594	 -0.417312	 -0.014550
H	 -1.637766	 1.358238	 0.744969
H	 -1.659588	 0.017670	 1.857098
C	 0.738335	 -0.034840	 0.421385
H	 -0.814977	 -0.178223	 -1.064632
H	 -0.802730	 -1.495410	 0.071702
C	 1.811729	 -0.940680	 -0.188010
H	 0.925630	 1.000296	 0.146008
H	 0.807190	 -0.079022	 1.507622
C	 3.240124	 -0.653098	 0.288584
H	 1.773716	 -0.863251	 -1.273484
H	 1.570435	 -1.974579	 0.049996
C	 3.790698	 0.709002	 -0.137979
H	 3.895082	 -1.429918	 -0.098548
H	 3.280877	 -0.735573	 1.372899
H	 3.750729	 0.824977	 -1.217836
H	 4.826981	 0.818563	 0.166902
H	 3.234037	 1.528908	 0.303662

	symmetry c1
}
set optking {
	frozen_dihedral = ("
		13 10 7 11
	")
}

ee = optimize('scf')
oeprop('DIPOLE', 'QUADRUPOLE', 'MULLIKEN_CHARGES')
f=open( 'psi4out.xyz', 'w' )
f.write( "24  " )
f.write( str(ee) + "\n" )
f.write( MOL.save_string_xyz() )
f.close()
--------------------------------------------------------------------------

    Molecular point group: c1
  Charge       = 0
  Multiplicity = 1
  Basis Set: 6-31G*
  Basis Set:
  @DF-RHF Final Energy:  -349.24708746002881
    Total Energy =                       -349.2470874600285811
    Molecular point group: c1
  Basis Set: 6-31G*
  Basis Set:
  Basis Set: 6-31G*
  Basis Set:
  @DF-RHF Final Energy:  -349.24711570335381
    Total Energy =                       -349.2471157033539839
  Basis Set: 6-31G*
  Basis Set:
  Basis Set: 6-31G*
  Basis Set:
  @DF-RHF Final Energy:  -349.24716165931625
    Total Energy =                       -349.2471616593164754
  Basis Set: 6-31G*
  Basis Set:
  Charge       = 0
  Multiplicity = 1
  Basis Set: 6-31G*
  Basis Set:

    Orbital Energies (a.u.)
    -----------------------

    Doubly Occupied:

       1A    -20.553605     2A    -11.267634     3A    -11.217336
       4A    -11.214105     5A    -11.212440     6A    -11.211658
       7A    -11.211070     8A    -11.207324     9A     -1.360183
      10A     -1.088409    11A     -1.048250    12A     -0.985423
      13A     -0.915062    14A     -0.850381    15A     -0.800625
      16A     -0.776191    17A     -0.678979    18A     -0.654775
      19A     -0.624287    20A     -0.620541    21A     -0.596058
      22A     -0.582677    23A     -0.561433    24A     -0.537783
      25A     -0.515915    26A     -0.511142    27A     -0.496861
      28A     -0.474773    29A     -0.466879    30A     -0.459762
      31A     -0.453701    32A     -0.451190    33A     -0.418959

  @DF-RHF Final Energy:  -349.24716090958418

   => Energetics <=

    Nuclear Repulsion Energy =            384.3435254924147557
    One-Electron Energy =               -1235.1305512113760869
    Two-Electron Energy =                 501.5398648093769225
    DFT Exchange-Correlation Energy =       0.0000000000000000
    Empirical Dispersion Energy =           0.0000000000000000
    PCM Polarization Energy =               0.0000000000000000
    EFP Energy =                            0.0000000000000000
    Total Energy =                       -349.2471609095844087
    Molecular point group: c1
  Basis Set: 6-31G*
  Basis Set:

  -Total Gradient:
     Atom            X                  Y                   Z
    ------   -----------------  -----------------  -----------------
       1       -0.000000974249     0.000001254533     0.000003833389
       2       -0.000037618173     0.000017272739     0.000030593515
       3       -0.000012929980    -0.000035345624    -0.000009408555
       4        0.000025605262     0.000068060027    -0.000028728205
       5       -0.000000920438    -0.000001331190    -0.000014909842
       6        0.000013585541    -0.000013085179    -0.000008858827
       7        0.000984615926    -0.003361636296    -0.000502927378
       8       -0.000007774317     0.000019840388    -0.000002121422
       9       -0.000023352052     0.000051145947     0.000021385271
      10        0.000054402717     0.002176942554    -0.001859656331
      11       -0.000781573586     0.002257205757     0.000633254809
      12       -0.000036113813     0.000053419862     0.000158097964
      13       -0.000159977154    -0.001130494015     0.001452276415
      14       -0.000099971073     0.000023756415     0.000139043583
      15        0.000159173482    -0.000109680541    -0.000002061352
      16        0.000074010376    -0.000063389072    -0.000094098080
      17        0.000044532935    -0.000096171496    -0.000035876936
      18       -0.000137133811     0.000081214574     0.000080231853
      19       -0.000074275837     0.000034729750     0.000051238721
      20       -0.000004738888     0.000050422903    -0.000066131197
      21        0.000074653353    -0.000081941612     0.000008541578
      22        0.000051622855    -0.000033745835     0.000034116799
      23       -0.000024591601     0.000030026392     0.000058964530
      24       -0.000080257463     0.000061529018    -0.000046800302

  **** Optimization is complete! (in 4 steps) ****
    Final optimized geometry and variables:
    Molecular point group: c1

    Geometry (in Angstrom), charge = 0, multiplicity = 1:

    H           -3.384454734940     1.364284676754    -1.092764935373
    O           -3.432190181618     0.419971742628    -1.035139576096
    C           -3.190025400440     0.023629860486     0.290875986189
    C           -1.775357189352     0.342951378860     0.761626035946
    H           -3.358599522084    -1.045990041671     0.312952251985
    H           -3.916423396015     0.479682705803     0.961305183991
    C           -0.687403886299    -0.366648259728    -0.047536932174
    H           -1.622118041206     1.421743702788     0.716579497299
    H           -1.693933855633     0.069432460276     1.812156206256
    C            0.727288645214     0.018691617470     0.393989247533
    H           -0.823154294015    -0.118798320670    -1.095595550868
    H           -0.822399974623    -1.442386378135     0.044909310459
    C            1.807729658663    -0.875566134101    -0.220154248208
    H            0.905012982125     1.060662699830     0.141715814541
    H            0.798389135291    -0.048518847559     1.479238197081
    C            3.237455801245    -0.557735780658     0.232706394345
    H            1.754745546078    -0.816433700321    -1.306431145676
    H            1.585086509960    -1.908674512620     0.037495540726
    C            3.757418571040     0.809686784563    -0.214684456297
    H            3.900736998264    -1.326183927917    -0.156820831365
    H            3.295492346477    -0.629279873026     1.317105017613
    H            3.713455292747     0.908582439083    -1.295999133475
    H            4.791534759563     0.946081885104     0.086749324596
    H            3.183939796599     1.624057343764     0.215466662797

  Mulliken Charges: (a.u.)
   Center  Symbol    Alpha    Beta     Spin     Total
       1     H     0.28338  0.28338  0.00000  0.43324
       2     O     4.36834  4.36834  0.00000 -0.73668
       3     C     2.99627  2.99627  0.00000  0.00746
       4     C     3.16907  3.16907  0.00000 -0.33815
       5     H     0.41637  0.41637  0.00000  0.16727
       6     H     0.42818  0.42818  0.00000  0.14363
       7     C     3.15224  3.15224  0.00000 -0.30447
       8     H     0.42848  0.42848  0.00000  0.14304
       9     H     0.42242  0.42242  0.00000  0.15515
      10     C     3.15389  3.15389  0.00000 -0.30777
      11     H     0.41127  0.41127  0.00000  0.17746
      12     H     0.42343  0.42343  0.00000  0.15314
      13     C     3.15228  3.15228  0.00000 -0.30456
      14     H     0.42196  0.42196  0.00000  0.15609
      15     H     0.42602  0.42602  0.00000  0.14796
      16     C     3.15239  3.15239  0.00000 -0.30478
      17     H     0.42359  0.42359  0.00000  0.15283
      18     H     0.42217  0.42217  0.00000  0.15567
      19     C     3.24095  3.24095  0.00000 -0.48190
      20     H     0.42105  0.42105  0.00000  0.15790
      21     H     0.42391  0.42391  0.00000  0.15217
      22     H     0.42211  0.42211  0.00000  0.15579
      23     H     0.41957  0.41957  0.00000  0.16085
      24     H     0.42067  0.42067  0.00000  0.15866

   Total alpha = 33.00000, Total beta = 33.00000, Total charge =  0.00000
