                              Psi4 1.0.54 Driver

  ==> Input File <==

--------------------------------------------------------------------------
set {
	reference rhf
	basis cc-pvtz
}

set_num_threads( 4 )
memory 2 gb

molecule MOL {
0 1

O	 -0.843861	 -2.769416	 -1.141767
C	 -0.681259	 -1.678452	 -1.583117
C	 -0.881910	 -0.448129	 -0.720509
C	 -0.249751	 -1.459185	 -3.013673
C	 0.376695	 -0.140025	 0.100361
H	 -1.710956	 -0.647358	 -0.053350
H	 -1.138129	 0.406452	 -1.337687
C	 1.630207	 -0.772146	 -0.501001
H	 0.486632	 0.935267	 0.162725
H	 0.248225	 -0.501310	 1.117842
C	 2.907848	 -0.545876	 0.309149
H	 1.772784	 -0.391628	 -1.509394
H	 1.468529	 -1.842059	 -0.599744
C	 3.373802	 0.906639	 0.372125
H	 3.699140	 -1.146831	 -0.127906
H	 2.764321	 -0.923458	 1.318191
H	 3.519798	 1.311927	 -0.623875
H	 4.316899	 0.983758	 0.900700
H	 2.661122	 1.540651	 0.885346
H	 -1.061262	 -0.993394	 -3.563662
H	 0.003354	 -2.401589	 -3.474521
H	 0.596954	 -0.783441	 -3.058955

	symmetry c1
}
set optking {
	frozen_dihedral = ("
		6 3 5 8
	")
}

ee,wfn = optimize('scf', return_wfn=True)
oeprop( wfn, 'DIPOLE', 'QUADRUPOLE', 'MULLIKEN_CHARGES')
f=open( 'psi4out.xyz', 'w' )
f.write( "22  " )
f.write( str(ee) + "\n" )
f.write( MOL.save_string_xyz() )
f.close()
--------------------------------------------------------------------------

    Molecular point group: c1
  Charge       = 0
  Multiplicity = 1
  Basis Set: CC-PVTZ
  Basis Set:
  @DF-RHF Final Energy:  -348.21077808777312
    Total Energy =                       -348.2107780877732353
    Molecular point group: c1
  Basis Set: CC-PVTZ
  Basis Set:
  Basis Set: CC-PVTZ
  Basis Set:
  @DF-RHF Final Energy:  -348.21492531742319
    Total Energy =                       -348.2149253174231376
  Basis Set: CC-PVTZ
  Basis Set:
  Basis Set: CC-PVTZ
  Basis Set:
  @DF-RHF Final Energy:  -348.21383298075017
    Total Energy =                       -348.2138329807498849
  Basis Set: CC-PVTZ
  Basis Set:
  Basis Set: CC-PVTZ
  Basis Set:
  @DF-RHF Final Energy:  -348.21562023540446
    Total Energy =                       -348.2156202354040033
  Basis Set: CC-PVTZ
  Basis Set:
  @DF-RHF Final Energy:  -348.21573484030392
    Total Energy =                       -348.2157348403040942
  @DF-RHF Final Energy:  -348.21573076521952
    Total Energy =                       -348.2157307652195186
  @DF-RHF Final Energy:  -348.21578377485758
    Total Energy =                       -348.2157837748576412
  Basis Set: CC-PVTZ
  Basis Set:
  @DF-RHF Final Energy:  -348.21581523496758
    Total Energy =                       -348.2158152349671809
  Basis Set: CC-PVTZ
  Basis Set:
  Basis Set: CC-PVTZ
  Basis Set:
  @DF-RHF Final Energy:  -348.21583284433297
    Total Energy =                       -348.2158328443332493
  Basis Set: CC-PVTZ
  Basis Set:
  Basis Set: CC-PVTZ
  Basis Set:
  @DF-RHF Final Energy:  -348.21583709687877
    Total Energy =                       -348.2158370968785448
  Basis Set: CC-PVTZ
  Basis Set:
  Charge       = 0
  Multiplicity = 1
  Basis Set: CC-PVTZ
  Basis Set:

    Orbital Energies (a.u.)
    -----------------------

    Doubly Occupied:

       1A    -20.535677     2A    -11.319778     3A    -11.228453
       4A    -11.226399     5A    -11.226172     6A    -11.216852
       7A    -11.216094     8A    -11.209594     9A     -1.396768
      10A     -1.092208    11A     -1.042238    12A     -0.999380
      13A     -0.939792    14A     -0.859392    15A     -0.790253
      16A     -0.724433    17A     -0.662519    18A     -0.637487
      19A     -0.628333    20A     -0.622359    21A     -0.601574
      22A     -0.583959    23A     -0.563116    24A     -0.547130
      25A     -0.532139    26A     -0.529305    27A     -0.494795
      28A     -0.484996    29A     -0.466381    30A     -0.463528
      31A     -0.454933    32A     -0.398140

  @DF-RHF Final Energy:  -348.21583738239184

   => Energetics <=

    Nuclear Repulsion Energy =            381.9297460371812463
    One-Electron Energy =               -1228.9028127164713169
    Two-Electron Energy =                 498.7572292968984584
    DFT Exchange-Correlation Energy =       0.0000000000000000
    Empirical Dispersion Energy =           0.0000000000000000
    PCM Polarization Energy =               0.0000000000000000
    EFP Energy =                            0.0000000000000000
    Total Energy =                       -348.2158373823915554
    Molecular point group: c1
  Basis Set: CC-PVTZ
  Basis Set:

  -Total Gradient:
     Atom            X                  Y                   Z
    ------   -----------------  -----------------  -----------------
       1        0.000002917203     0.000016194864    -0.000003703780
       2        0.000018139195    -0.000032020355    -0.000005481419
       3       -0.001653581626     0.005049107153     0.000943487960
       4       -0.000065566672     0.000000510112    -0.000001647660
       5        0.001481266380     0.003618656620    -0.003065134009
       6        0.001034636500    -0.005315198543    -0.000004456449
       7        0.000003553945    -0.000001987885     0.000002165818
       8       -0.000880039468    -0.003336252731     0.002129840949
       9        0.000001065880    -0.000003233557    -0.000002057159
      10        0.000002467989    -0.000001867892    -0.000001090169
      11        0.000004480932     0.000000982955     0.000002189105
      12       -0.000002387523    -0.000000244990    -0.000006533994
      13        0.000002537329    -0.000002957215    -0.000000511196
      14        0.000000903182     0.000009371114     0.000002031368
      15       -0.000002567647    -0.000002693821    -0.000001938323
      16       -0.000000694676     0.000003097627    -0.000002711293
      17       -0.000001527045    -0.000002349769     0.000006584735
      18       -0.000001466621    -0.000002214983    -0.000001702449
      19        0.000003323043    -0.000001632658    -0.000002251184
      20        0.000031347623    -0.000001546066    -0.000001169015
      21        0.000008367049     0.000008724825     0.000003494670
      22        0.000012825028    -0.000002444805     0.000010593495

  **** Optimization is complete! (in 11 steps) ****
    Final optimized geometry and variables:
    Molecular point group: c1

    Geometry (in Angstrom), charge = 0, multiplicity = 1:

    O           -1.530961949690    -1.879975346223    -0.420798094604
    C           -1.447778840095    -0.800308670848    -0.910152827827
    C           -1.515695240879     0.452785895118    -0.050823735463
    C           -1.302520984054    -0.619941900931    -2.401635111138
    C           -0.266542183026     0.693683847601     0.836915388245
    H           -2.371611526695     0.286206358353     0.590752768122
    H           -1.708939032926     1.315542182938    -0.675267066943
    C            1.039563168443     0.050663406123     0.366135479799
    H           -0.140952812622     1.763157267391     0.944731146720
    H           -0.477866990082     0.310591423186     1.828680329752
    C            2.227779531653     0.323645886412     1.291086352581
    H            1.289333666556     0.397990784165    -0.634923662227
    H            0.899016187310    -1.020280663559     0.297788747150
    C            2.702080715508     1.774655145352     1.319552803317
    H            3.054223305264    -0.304745198227     0.974813662251
    H            1.975575289173     0.005242633624     2.298918664097
    H            2.957600592335     2.120330747942     0.322865889069
    H            3.585630321256     1.876686988078     1.939036385680
    H            1.948841907426     2.443223675711     1.718607517534
    H           -2.177668123847    -0.107913936988    -2.788897746094
    H           -1.200740988191    -1.579770098821    -2.884414744601
    H           -0.443722096655     0.002820864485    -2.625233394096

  Mulliken Charges: (a.u.)
   Center  Symbol    Alpha    Beta     Spin     Total
       1     O     4.18309  4.18309  0.00000 -0.36618
       2     C     2.84906  2.84906  0.00000  0.30188
       3     C     3.10999  3.10999  0.00000 -0.21998
       4     C     3.15435  3.15435  0.00000 -0.30869
       5     C     3.08830  3.08830  0.00000 -0.17660
       6     H     0.43758  0.43758  0.00000  0.12485
       7     H     0.44621  0.44621  0.00000  0.10758
       8     C     3.11503  3.11503  0.00000 -0.23006
       9     H     0.44726  0.44726  0.00000  0.10548
      10     H     0.44775  0.44775  0.00000  0.10449
      11     C     3.09198  3.09198  0.00000 -0.18395
      12     H     0.45383  0.45383  0.00000  0.09234
      13     H     0.43309  0.43309  0.00000  0.13382
      14     C     3.15203  3.15203  0.00000 -0.30405
      15     H     0.44663  0.44663  0.00000  0.10674
      16     H     0.45245  0.45245  0.00000  0.09510
      17     H     0.45557  0.45557  0.00000  0.08887
      18     H     0.44543  0.44543  0.00000  0.10914
      19     H     0.45456  0.45456  0.00000  0.09087
      20     H     0.44817  0.44817  0.00000  0.10366
      21     H     0.43695  0.43695  0.00000  0.12611
      22     H     0.45069  0.45069  0.00000  0.09861

   Total alpha = 32.00000, Total beta = 32.00000, Total charge = -0.00000

*** Psi4 exiting successfully. Buy a developer a beer!
