  ==> Input File <==

--------------------------------------------------------------------------
set {
	reference rhf
	basis cc-pvtz
}

set_num_threads( 4 )
memory 2 gb

molecule MOL {
0 1

H	 2.241989	 -0.548030	 0.314260
C	 1.819890	 -0.553734	 -0.699374
C	 0.536386	 0.212686	 -0.860672
O	 2.371217	 -1.138793	 -1.566195
C	 -0.554654	 -0.292621	 0.086567
H	 0.223679	 0.144336	 -1.894296
H	 0.750662	 1.256419	 -0.640254
C	 -1.846385	 0.513195	 -0.016346
H	 -0.761913	 -1.336241	 -0.132157
H	 -0.191096	 -0.258692	 1.110455
C	 -3.089953	 -0.365049	 -0.098564
H	 -1.798267	 1.154820	 -0.891143
H	 -1.925398	 1.173265	 0.842889
H	 -3.055079	 -1.012299	 -0.968245
H	 -3.988403	 0.236438	 -0.170014
H	 -3.183055	 -0.995885	 0.779079

	symmetry c1
}
set optking {
	frozen_dihedral = ("
		9 5 8 12
	")
}

ee = optimize('scf')
oeprop('DIPOLE', 'QUADRUPOLE', 'MULLIKEN_CHARGES')
f=open( 'psi4out.xyz', 'w' )
f.write( "16  " )
f.write( str(ee) + "\n" )
f.write( MOL.save_string_xyz() )
f.close()
--------------------------------------------------------------------------

    Molecular point group: c1
  Charge       = 0
  Multiplicity = 1
  Basis Set: CC-PVTZ
  Basis Set:
  @DF-RHF Final Energy:  -270.11400485418505
    Total Energy =                       -270.1140048541849978
    Molecular point group: c1
  Basis Set: CC-PVTZ
  Basis Set:
  Basis Set: CC-PVTZ
  Basis Set:
  @DF-RHF Final Energy:  -270.11429352223695
    Total Energy =                       -270.1142935222369488
  Basis Set: CC-PVTZ
  Basis Set:
  Basis Set: CC-PVTZ
  Basis Set:
  @DF-RHF Final Energy:  -270.11409690406992
    Total Energy =                       -270.1140969040701520
  Basis Set: CC-PVTZ
  Basis Set:
  Basis Set: CC-PVTZ
  Basis Set:
  @DF-RHF Final Energy:  -270.11435446816881
    Total Energy =                       -270.1143544681685853
  Basis Set: CC-PVTZ
  Basis Set:
  Basis Set: CC-PVTZ
  Basis Set:
  @DF-RHF Final Energy:  -270.11435986424965
    Total Energy =                       -270.1143598642498773
  Basis Set: CC-PVTZ
  Basis Set:
  Charge       = 0
  Multiplicity = 1
  Basis Set: CC-PVTZ
  Basis Set:

    Orbital Energies (a.u.)
    -----------------------

    Doubly Occupied:

       1A    -20.552214     2A    -11.321232     3A    -11.234893
       4A    -11.234028     5A    -11.227183     6A    -11.216732
       7A     -1.406909     8A     -1.095600     9A     -1.019822
      10A     -0.906640    11A     -0.813520    12A     -0.794811
      13A     -0.678015    14A     -0.651187    15A     -0.628060
      16A     -0.603455    17A     -0.589078    18A     -0.552563
      19A     -0.521757    20A     -0.520117    21A     -0.488778
      22A     -0.481028    23A     -0.473833    24A     -0.411284

  @DF-RHF Final Energy:  -270.11436011068815

   => Energetics <=

    Nuclear Repulsion Energy =            229.4971539548434976
    One-Electron Energy =                -820.3775471948579252
    Two-Electron Energy =                 320.7660331293262743
    DFT Exchange-Correlation Energy =       0.0000000000000000
    Empirical Dispersion Energy =           0.0000000000000000
    PCM Polarization Energy =               0.0000000000000000
    EFP Energy =                            0.0000000000000000
    Total Energy =                       -270.1143601106881533
    Molecular point group: c1
  Basis Set: CC-PVTZ
  Basis Set:

  -Total Gradient:
     Atom            X                  Y                   Z
    ------   -----------------  -----------------  -----------------
       1       -0.000015056802    -0.000006065394    -0.000003227241
       2        0.000000408165     0.000013271020    -0.000038324159
       3       -0.000046323344    -0.000035432476     0.000020522799
       4        0.000018250532    -0.000015329645     0.000001747571
       5        0.001190216925     0.001374536672    -0.003763893955
       6        0.000002275563     0.000028313291     0.000000097195
       7        0.000009251417    -0.000007123670     0.000024472781
       8       -0.002047410645    -0.003294418997    -0.001600098494
       9       -0.000600070478    -0.000575984669     0.003402544619
      10       -0.000037933895    -0.000008548543     0.000024808472
      11       -0.000003030203    -0.000023647865    -0.000000215172
      12        0.001457734004     0.002512366421     0.001938154728
      13        0.000036648516     0.000014392825    -0.000012909417
      14        0.000005743490    -0.000003350844     0.000006736282
      15        0.000015763154     0.000019257142     0.000004276563
      16        0.000013533595     0.000007764730    -0.000004692573

  **** Optimization is complete! (in 6 steps) ****
    Final optimized geometry and variables:
    Molecular point group: c1

    Geometry (in Angstrom), charge = 0, multiplicity = 1:

    H            2.370470889984    -0.253822902913     0.869186333071
    C            1.966210799805    -0.263629705844    -0.151630122114
    C            0.679133246231     0.491501974247    -0.336020765100
    O            2.537253868589    -0.844481175792    -1.008527550962
    C           -0.427765686015    -0.029513741398     0.582530635569
    H            0.388532499536     0.428578893174    -1.376436197421
    H            0.877326773133     1.535739361792    -0.102558914247
    C           -1.731887017984     0.785128570765     0.490926288484
    H           -0.627826123359    -1.073066637721     0.361781442288
    H           -0.071514861290    -0.020109566731     1.608642330095
    C           -2.987702357250    -0.077160715707     0.451808794992
    H           -1.698835738230     1.434037214160    -0.378145425684
    H           -1.789445735787     1.457187340160     1.341285052441
    H           -2.991375748747    -0.721690413973    -0.420513916955
    H           -3.881422405741     0.534819701015     0.417960893994
    H           -3.052953160913    -0.710616866998     1.330160464332

  Mulliken Charges: (a.u.)
   Center  Symbol    Alpha    Beta     Spin     Total
       1     H     0.46558  0.46558  0.00000  0.06884
       2     C     2.90947  2.90947  0.00000  0.18106
       3     C     3.07918  3.07918  0.00000 -0.15837
       4     O     4.16358  4.16358  0.00000 -0.32715
       5     C     3.10577  3.10577  0.00000 -0.21154
       6     H     0.44222  0.44222  0.00000  0.11555
       7     H     0.44881  0.44881  0.00000  0.10237
       8     C     3.08665  3.08665  0.00000 -0.17330
       9     H     0.44556  0.44556  0.00000  0.10888
      10     H     0.44941  0.44941  0.00000  0.10117
      11     C     3.14671  3.14671  0.00000 -0.29342
      12     H     0.45186  0.45186  0.00000  0.09628
      13     H     0.45079  0.45079  0.00000  0.09842
      14     H     0.45305  0.45305  0.00000  0.09391
      15     H     0.44796  0.44796  0.00000  0.10408
      16     H     0.45339  0.45339  0.00000  0.09321

   Total alpha = 24.00000, Total beta = 24.00000, Total charge = -0.00000
