                              Psi4 1.0.54 Driver

  ==> Input File <==

--------------------------------------------------------------------------
set {
	reference rhf
	basis cc-pvtz
}

set_num_threads( 4 )
memory 2 gb

molecule MOL {
0 1

H	 1.346022	 -0.279460	 -1.279432
O	 1.675515	 -0.612943	 -0.465627
C	 1.135873	 0.113391	 0.608264
C	 0.027642	 1.012027	 0.090274
H	 1.902972	 0.727968	 1.072615
H	 0.756163	 -0.561896	 1.370018
C	 -1.138737	 0.285728	 -0.581921
H	 0.464661	 1.708096	 -0.618252
H	 -0.340737	 1.603071	 0.925246
C	 -1.933983	 -0.631436	 0.343653
H	 -0.763151	 -0.285569	 -1.422081
H	 -1.808359	 1.035291	 -0.992333
H	 -2.789188	 -1.049673	 -0.174718
H	 -1.335629	 -1.461368	 0.700418
H	 -2.305435	 -0.092167	 1.209725

	symmetry c1
}
set optking {
	frozen_dihedral = ("
		1 2 3 4
	")
}

ee,wfn = optimize('scf', return_wfn=True)
oeprop( wfn, 'DIPOLE', 'QUADRUPOLE', 'MULLIKEN_CHARGES')
f=open( 'psi4out.xyz', 'w' )
f.write( "15  " )
f.write( str(ee) + "\n" )
f.write( MOL.save_string_xyz() )
f.close()
--------------------------------------------------------------------------

    Molecular point group: c1
  Charge       = 0
  Multiplicity = 1
  Basis Set: CC-PVTZ
  Basis Set:
  @DF-RHF Final Energy:  -232.23300389717406
    Total Energy =                       -232.2330038971740578
    Molecular point group: c1
  Basis Set: CC-PVTZ
  Basis Set:
  Basis Set: CC-PVTZ
  Basis Set:
  @DF-RHF Final Energy:  -232.18857467946955
    Total Energy =                       -232.1885746794695251
  Basis Set: CC-PVTZ
  Basis Set:
  Basis Set: CC-PVTZ
  Basis Set:
  @DF-RHF Final Energy:  -232.23262253672266
    Total Energy =                       -232.2326225367225447
  Basis Set: CC-PVTZ
  Basis Set:
  Basis Set: CC-PVTZ
  Basis Set:
  @DF-RHF Final Energy:  -232.23478630886652
    Total Energy =                       -232.2347863088664894
  Basis Set: CC-PVTZ
  Basis Set:
  Basis Set: CC-PVTZ
  Basis Set:
  @DF-RHF Final Energy:  -232.23482042095969
    Total Energy =                       -232.2348204209596929
  Basis Set: CC-PVTZ
  Basis Set:
  Basis Set: CC-PVTZ
  Basis Set:
  @DF-RHF Final Energy:  -232.23484503809254
    Total Energy =                       -232.2348450380924874
  Basis Set: CC-PVTZ
  Basis Set:
  Basis Set: CC-PVTZ
  Basis Set:
  @DF-RHF Final Energy:  -232.23485646834698
    Total Energy =                       -232.2348564683471182
  Basis Set: CC-PVTZ
  Basis Set:
  Charge       = 0
  Multiplicity = 1
  Basis Set: CC-PVTZ
  Basis Set:

    Orbital Energies (a.u.)
    -----------------------

    Doubly Occupied:

       1A    -20.543414     2A    -11.264384     3A    -11.222798
       4A    -11.222185     5A    -11.210973     6A     -1.361695
       7A     -1.074138     8A     -0.976475     9A     -0.882857
      10A     -0.794315    11A     -0.668359    12A     -0.652049
      13A     -0.636890    14A     -0.587303    15A     -0.575986
      16A     -0.547449    17A     -0.507487    18A     -0.484697
      19A     -0.479777    20A     -0.457924    21A     -0.432333

  @DF-RHF Final Energy:  -232.23485655503566

   => Energetics <=

    Nuclear Repulsion Energy =            191.6744017825077435
    One-Electron Energy =                -694.6515426414937338
    Two-Electron Energy =                 270.7422843039503277
    DFT Exchange-Correlation Energy =       0.0000000000000000
    Empirical Dispersion Energy =           0.0000000000000000
    PCM Polarization Energy =               0.0000000000000000
    EFP Energy =                            0.0000000000000000
    Total Energy =                       -232.2348565550356625
    Molecular point group: c1
  Basis Set: CC-PVTZ
  Basis Set:

  -Total Gradient:
     Atom            X                  Y                   Z
    ------   -----------------  -----------------  -----------------
       1       -0.001117749322    -0.001048135690    -0.000116103832
       2        0.001633012075     0.001594084276     0.000184011942
       3       -0.001148617577    -0.001261835461    -0.000046869128
       4        0.000615575913     0.000729104232    -0.000023303978
       5       -0.000010124367    -0.000000941053     0.000012658078
       6        0.000017281402    -0.000013835280    -0.000017168937
       7       -0.000000892654     0.000011602480    -0.000022521261
       8        0.000004446282    -0.000007920057     0.000010432766
       9       -0.000006601363    -0.000006162554    -0.000022995477
      10        0.000004194878    -0.000009568950     0.000017863350
      11       -0.000011452461     0.000015267961     0.000015204395
      12        0.000017325558    -0.000001483402     0.000014974752
      13        0.000003755036    -0.000001545961    -0.000000347841
      14       -0.000003752331     0.000007646066     0.000004443741
      15        0.000003598932    -0.000006276607    -0.000010278570

  **** Optimization is complete! (in 8 steps) ****
    Final optimized geometry and variables:
    Molecular point group: c1

    Geometry (in Angstrom), charge = 0, multiplicity = 1:

    H            1.815700629338    -0.483916424593    -0.638634727483
    O            1.801838353325    -0.612415034404     0.290725845927
    C            0.885846894020     0.262403990974     0.899705137752
    C           -0.005690199386     1.003289393491    -0.086182286432
    H            1.437603101092     0.991068133126     1.485177775264
    H            0.290493142337    -0.318794179339     1.592928061675
    C           -0.913705448094     0.124802769217    -0.951686845212
    H            0.626426961944     1.608226948895    -0.732618620140
    H           -0.616598344849     1.701819060963     0.478665407510
    C           -1.959028366410    -0.666043193671    -0.170091319070
    H           -0.315050731571    -0.564621568207    -1.539893655569
    H           -1.417449521182     0.765853852181    -1.667967884729
    H           -2.615043584232    -1.203361047265    -0.844879653089
    H           -1.502585031100    -1.394429703756     0.488587133009
    H           -2.574704445575    -0.008311341618     0.434949216427

  Mulliken Charges: (a.u.)
   Center  Symbol    Alpha    Beta     Spin     Total
       1     H     0.39145  0.39145  0.00000  0.21710
       2     O     4.20923  4.20923  0.00000 -0.41847
       3     C     2.95804  2.95804  0.00000  0.08391
       4     C     3.12036  3.12036  0.00000 -0.24072
       5     H     0.46273  0.46273  0.00000  0.07454
       6     H     0.46801  0.46801  0.00000  0.06397
       7     C     3.08470  3.08470  0.00000 -0.16939
       8     H     0.44611  0.44611  0.00000  0.10778
       9     H     0.45052  0.45052  0.00000  0.09896
      10     C     3.15333  3.15333  0.00000 -0.30666
      11     H     0.45828  0.45828  0.00000  0.08344
      12     H     0.44730  0.44730  0.00000  0.10540
      13     H     0.44588  0.44588  0.00000  0.10825
      14     H     0.44930  0.44930  0.00000  0.10140
      15     H     0.45476  0.45476  0.00000  0.09049

   Total alpha = 21.00000, Total beta = 21.00000, Total charge = -0.00000

*** Psi4 exiting successfully. Buy a developer a beer!
