  ==> Input File <==

--------------------------------------------------------------------------
set {
	reference rhf
	basis cc-pvtz
}

set_num_threads( 4 )
memory 2 gb

molecule MOL {
0 1

O	 2.434597	 2.023958	 0.343123
C	 1.503761	 2.233550	 1.050035
C	 0.250776	 1.382341	 1.013915
C	 1.508811	 3.374769	 2.041912
C	 0.288398	 0.247429	 0.000314
H	 0.087664	 0.997168	 2.017958
H	 -0.589630	 2.044904	 0.819663
C	 -0.993089	 -0.581367	 -0.000217
H	 1.139353	 -0.389971	 0.211767
H	 0.461599	 0.658735	 -0.987594
C	 -2.258482	 0.271340	 0.000669
H	 -1.002280	 -1.233920	 -0.870484
H	 -1.002061	 -1.235367	 0.868958
C	 -3.544441	 -0.550271	 -0.000253
H	 -2.250545	 0.925250	 -0.867923
H	 -2.250598	 0.923423	 0.870642
C	 -4.804551	 0.308747	 0.000556
H	 -3.553737	 -1.201524	 -0.870151
H	 -3.553831	 -1.203282	 0.868313
H	 -4.842050	 0.949078	 -0.874436
H	 -5.698404	 -0.304480	 -0.000254
H	 -4.842277	 0.947103	 0.876982
H	 1.368631	 2.996216	 3.048438
H	 2.444783	 3.908330	 1.981407
H	 0.688048	 4.052900	 1.835690

	symmetry c1
}
set optking {
	frozen_dihedral = ("
		9 5 8 12
	")
}

ee = optimize('scf')
oeprop('DIPOLE', 'QUADRUPOLE', 'MULLIKEN_CHARGES')
f=open( 'psi4out.xyz', 'w' )
f.write( "25  " )
f.write( str(ee) + "\n" )
f.write( MOL.save_string_xyz() )
f.close()
--------------------------------------------------------------------------

    Molecular point group: c1
  Charge       = 0
  Multiplicity = 1
  Basis Set: CC-PVTZ
  Basis Set:
  @DF-RHF Final Energy:  -387.26938447943934
    Total Energy =                       -387.2693844794389406
    Molecular point group: c1
  Basis Set: CC-PVTZ
  Basis Set:
  Basis Set: CC-PVTZ
  Basis Set:
  @DF-RHF Final Energy:  -387.27027509537692
    Total Energy =                       -387.2702750953774284
  Basis Set: CC-PVTZ
  Basis Set:
  Basis Set: CC-PVTZ
  Basis Set:
  @DF-RHF Final Energy:  -387.27146734042628
    Total Energy =                       -387.2714673404265113
  Basis Set: CC-PVTZ
  Basis Set:
  Basis Set: CC-PVTZ
  Basis Set:
  @DF-RHF Final Energy:  -387.27145967471699
    Total Energy =                       -387.2714596747168798
  Basis Set: CC-PVTZ
  Basis Set:
  @DF-RHF Final Energy:  -387.27097202135894
    Total Energy =                       -387.2709720213586024
  Basis Set: CC-PVTZ
  Basis Set:
  @DF-RHF Final Energy:  -387.27157358374222
    Total Energy =                       -387.2715735837421107
  Basis Set: CC-PVTZ
  Basis Set:
  Basis Set: CC-PVTZ
  Basis Set:
  @DF-RHF Final Energy:  -387.27157464333692
    Total Energy =                       -387.2715746433373170
  Basis Set: CC-PVTZ
  Basis Set:
  Basis Set: CC-PVTZ
  Basis Set:
  @DF-RHF Final Energy:  -387.27157868226510
    Total Energy =                       -387.2715786822650443
  Basis Set: CC-PVTZ
  Basis Set:
  Charge       = 0
  Multiplicity = 1
  Basis Set: CC-PVTZ
  Basis Set:

    Orbital Energies (a.u.)
    -----------------------

    Doubly Occupied:

       1A    -20.538662     2A    -11.320235     3A    -11.229327
       4A    -11.226369     5A    -11.215729     6A    -11.215606
       7A    -11.215109     8A    -11.214432     9A    -11.208975
      10A     -1.398743    11A     -1.096121    12A     -1.056851
      13A     -1.015367    14A     -0.968642    15A     -0.899667
      16A     -0.817168    17A     -0.787287    18A     -0.730443
      19A     -0.660768    20A     -0.655347    21A     -0.636788
      22A     -0.623500    23A     -0.598261    24A     -0.582850
      25A     -0.568682    26A     -0.565018    27A     -0.544160
      28A     -0.528705    29A     -0.518725    30A     -0.495378
      31A     -0.491439    32A     -0.477697    33A     -0.462436
      34A     -0.459358    35A     -0.447669    36A     -0.402693

  @DF-RHF Final Energy:  -387.27157874469935

   => Energetics <=

    Nuclear Repulsion Energy =            446.2737222650765716
    One-Electron Energy =               -1409.3421863827120433
    Two-Electron Energy =                 575.7968853729360035
    DFT Exchange-Correlation Energy =       0.0000000000000000
    Empirical Dispersion Energy =           0.0000000000000000
    PCM Polarization Energy =               0.0000000000000000
    EFP Energy =                            0.0000000000000000
    Total Energy =                       -387.2715787446994682
    Molecular point group: c1
  Basis Set: CC-PVTZ
  Basis Set:

  -Total Gradient:
     Atom            X                  Y                   Z
    ------   -----------------  -----------------  -----------------
       1        0.000000253888    -0.000000837358     0.000000734378
       2       -0.000000085839    -0.000002691757     0.000001310069
       3        0.000002275095     0.000001107875     0.000001921150
       4       -0.000004363944     0.000008390208    -0.000008069019
       5       -0.000002322666    -0.000394591879    -0.005365275363
       6       -0.000001135635    -0.000000097836     0.000000190994
       7        0.000001477782     0.000000050080    -0.000001639547
       8        0.002303630334    -0.003227464159     0.003528854078
       9       -0.000346330282     0.000817019833     0.003989672740
      10        0.000003585226     0.000000137515     0.000000479752
      11       -0.000000521874     0.000003354224     0.000006346539
      12       -0.001959673679     0.002805849637    -0.002161860030
      13       -0.000004871134     0.000000160440    -0.000000510506
      14       -0.000000576676    -0.000003568945     0.000012933561
      15        0.000005121090    -0.000000489617    -0.000000236741
      16       -0.000003309253    -0.000002661624    -0.000002479794
      17        0.000003138246     0.000001815320    -0.000009671993
      18       -0.000003147534     0.000001198808     0.000000248774
      19        0.000003072465    -0.000001369697     0.000001195605
      20       -0.000002007419     0.000003693761     0.000001248389
      21        0.000001302199    -0.000000545274    -0.000002039525
      22        0.000001284714    -0.000003383313     0.000000846298
      23        0.000002720653    -0.000003348332     0.000000387243
      24        0.000000508205    -0.000000668914     0.000001081381
      25       -0.000000023965    -0.000001058996     0.000004331568

  **** Optimization is complete! (in 9 steps) ****
    Final optimized geometry and variables:
    Molecular point group: c1

    Geometry (in Angstrom), charge = 0, multiplicity = 1:

    O            3.140549147604     0.954914677457    -0.146529910469
    C            2.230337467230     1.248791170870     0.557104011588
    C            0.905260237992     0.513179558133     0.524031549036
    C            2.333990347739     2.391859942102     1.541867956717
    C            0.857282733653    -0.632985612567    -0.481213852549
    H            0.708299840833     0.151318957390     1.531235811922
    H            0.135187216134     1.252352555319     0.326362438012
    C           -0.420233202860    -1.476602524611    -0.418302313211
    H            1.707006132238    -1.272440660841    -0.277100035186
    H            0.994360617912    -0.235847866085    -1.479866628162
    C           -1.730875097696    -0.689282466381    -0.453564589948
    H           -0.420261407438    -2.139362224965    -1.278576331314
    H           -0.403238913342    -2.104238729703     0.468538478345
    C           -2.959936379473    -1.587965894958    -0.563556016328
    H           -1.715827351777    -0.001640497408    -1.296941331214
    H           -1.826556586348    -0.076919820404     0.438153365554
    C           -4.272154812869    -0.811172427316    -0.581291971883
    H           -2.885362395938    -2.188867989790    -1.465496094523
    H           -2.967218664156    -2.287878289535     0.267769132614
    H           -4.308958709474    -0.124143184021    -1.420269631553
    H           -5.122537148726    -1.478237803663    -0.663531766786
    H           -4.395593692938    -0.229327960061     0.326222856574
    H            2.155887067099     2.034436502532     2.550107373275
    H            3.314483437229     2.838644696433     1.482636069014
    H            1.578718852627     3.139815013332     1.327048406950

  Mulliken Charges: (a.u.)
   Center  Symbol    Alpha    Beta     Spin     Total
       1     O     4.17015  4.17015  0.00000 -0.34031
       2     C     2.86231  2.86231  0.00000  0.27539
       3     C     3.11694  3.11694  0.00000 -0.23388
       4     C     3.15102  3.15102  0.00000 -0.30204
       5     C     3.09187  3.09187  0.00000 -0.18374
       6     H     0.44473  0.44473  0.00000  0.11055
       7     H     0.44228  0.44228  0.00000  0.11544
       8     C     3.09969  3.09969  0.00000 -0.19939
       9     H     0.44047  0.44047  0.00000  0.11906
      10     H     0.44473  0.44473  0.00000  0.11055
      11     C     3.09215  3.09215  0.00000 -0.18430
      12     H     0.44751  0.44751  0.00000  0.10499
      13     H     0.45158  0.45158  0.00000  0.09685
      14     C     3.08469  3.08469  0.00000 -0.16939
      15     H     0.45350  0.45350  0.00000  0.09300
      16     H     0.45420  0.45420  0.00000  0.09160
      17     C     3.14979  3.14979  0.00000 -0.29959
      18     H     0.45270  0.45270  0.00000  0.09460
      19     H     0.45453  0.45453  0.00000  0.09093
      20     H     0.45492  0.45492  0.00000  0.09015
      21     H     0.44779  0.44779  0.00000  0.10441
      22     H     0.45602  0.45602  0.00000  0.08796
      23     H     0.45067  0.45067  0.00000  0.09865
      24     H     0.43516  0.43516  0.00000  0.12968
      25     H     0.45059  0.45059  0.00000  0.09881

   Total alpha = 36.00000, Total beta = 36.00000, Total charge = -0.00000
