                              Psi4 1.0.54 Driver

  ==> Input File <==

--------------------------------------------------------------------------
set {
	reference rhf
	basis cc-pvtz
}

set_num_threads( 4 )
memory 2 gb

molecule MOL {
0 1

H	 -3.062982	 0.149778	 -0.339742
O	 -2.346257	 -0.289210	 0.080372
C	 -1.183935	 0.486039	 -0.009831
C	 0.062853	 -0.375310	 0.027457
H	 -1.178881	 1.094526	 -0.908634
H	 -1.184406	 1.155156	 0.838676
O	 1.172093	 0.457955	 -0.054438
H	 0.052476	 -1.081302	 -0.804627
H	 0.076323	 -0.955658	 0.947560
C	 2.395478	 -0.199028	 -0.000366
H	 2.505946	 -0.901710	 -0.823354
H	 3.174616	 0.545641	 -0.071768
H	 2.513730	 -0.742241	 0.934223

	symmetry c1
}
set optking {
	frozen_dihedral = ("
		1 2 3 5
	")
}

ee,wfn = optimize('scf', return_wfn=True)
oeprop( wfn, 'DIPOLE', 'QUADRUPOLE', 'MULLIKEN_CHARGES')
f=open( 'psi4out.xyz', 'w' )
f.write( "13  " )
f.write( str(ee) + "\n" )
f.write( MOL.save_string_xyz() )
f.close()
--------------------------------------------------------------------------

    Molecular point group: c1
  Charge       = 0
  Multiplicity = 1
  Basis Set: CC-PVTZ
  Basis Set:
  @DF-RHF Final Energy:  -268.06097968094605
    Total Energy =                       -268.0609796809460477
    Molecular point group: c1
  Basis Set: CC-PVTZ
  Basis Set:
  Basis Set: CC-PVTZ
  Basis Set:
  @DF-RHF Final Energy:  -268.06190520052286
    Total Energy =                       -268.0619052005226877
  Basis Set: CC-PVTZ
  Basis Set:
  Basis Set: CC-PVTZ
  Basis Set:
  @DF-RHF Final Energy:  -268.06216004669045
    Total Energy =                       -268.0621600466905079
  Basis Set: CC-PVTZ
  Basis Set:
  Basis Set: CC-PVTZ
  Basis Set:
  @DF-RHF Final Energy:  -268.06216909141415
    Total Energy =                       -268.0621690914139208
  Basis Set: CC-PVTZ
  Basis Set:
  Charge       = 0
  Multiplicity = 1
  Basis Set: CC-PVTZ
  Basis Set:

    Orbital Energies (a.u.)
    -----------------------

    Doubly Occupied:

       1A    -20.552606     2A    -20.551536     3A    -11.267560
       4A    -11.265091     5A    -11.264861     6A     -1.388734
       7A     -1.367820     8A     -1.019592     9A     -0.911962
      10A     -0.832644    11A     -0.713912    12A     -0.683806
      13A     -0.644081    14A     -0.640445    15A     -0.615210
      16A     -0.554436    17A     -0.541747    18A     -0.496413
      19A     -0.473993    20A     -0.443049    21A     -0.421136

  @DF-RHF Final Energy:  -268.06217004718997

   => Energetics <=

    Nuclear Repulsion Energy =            190.6309731342189480
    One-Electron Energy =                -744.0850181183682253
    Two-Electron Energy =                 285.3918749369594252
    DFT Exchange-Correlation Energy =       0.0000000000000000
    Empirical Dispersion Energy =           0.0000000000000000
    PCM Polarization Energy =               0.0000000000000000
    EFP Energy =                            0.0000000000000000
    Total Energy =                       -268.0621700471898521
    Molecular point group: c1
  Basis Set: CC-PVTZ
  Basis Set:

  -Total Gradient:
     Atom            X                  Y                   Z
    ------   -----------------  -----------------  -----------------
       1        0.000312628173    -0.000586303511    -0.001000091287
       2       -0.000563843039     0.000941967521     0.001359661347
       3        0.000789682720    -0.001129648094    -0.000820178394
       4       -0.000044538567    -0.000021348444     0.000015223039
       5       -0.000511768689     0.000748037610     0.000491709450
       6       -0.000002784529    -0.000024108516    -0.000015874864
       7        0.000050628466     0.000025210853    -0.000015471658
       8       -0.000007866585     0.000011874069    -0.000005509766
       9       -0.000017031017     0.000026814306    -0.000013684331
      10        0.000001376525     0.000008233838     0.000009725442
      11       -0.000005244246     0.000003846603     0.000003627962
      12        0.000002644369    -0.000004864636    -0.000003419231
      13       -0.000003883580     0.000000288400    -0.000005717708

  **** Optimization is complete! (in 5 steps) ****
    Final optimized geometry and variables:
    Molecular point group: c1

    Geometry (in Angstrom), charge = 0, multiplicity = 1:

    H           -3.037701961483     0.052107671143    -0.349176505234
    O           -2.302373321190    -0.328608281488     0.091480218078
    C           -1.178366034187     0.502166451864    -0.024041109708
    C            0.054301062857    -0.372159339718     0.006700886474
    H           -1.197977795514     1.071774257471    -0.947154906307
    H           -1.136872953276     1.209518408331     0.797941924181
    O            1.173190160689     0.452646316281    -0.044765339713
    H            0.037666847147    -1.058642784157    -0.837178851154
    H            0.051411277009    -0.968020728745     0.917060359812
    C            2.387296471226    -0.221852502651    -0.009596330470
    H            2.490602152601    -0.899125395608    -0.854377476805
    H            3.176709479350     0.514149984879    -0.054956512994
    H            2.496038082237    -0.796747707523     0.907171878988

  Mulliken Charges: (a.u.)
   Center  Symbol    Alpha    Beta     Spin     Total
       1     H     0.39087  0.39087  0.00000  0.21827
       2     O     4.20266  4.20266  0.00000 -0.40533
       3     C     2.96623  2.96623  0.00000  0.06754
       4     C     2.96214  2.96214  0.00000  0.07573
       5     H     0.47082  0.47082  0.00000  0.05836
       6     H     0.46886  0.46886  0.00000  0.06229
       7     O     4.17641  4.17641  0.00000 -0.35283
       8     H     0.47252  0.47252  0.00000  0.05497
       9     H     0.47035  0.47035  0.00000  0.05930
      10     C     3.03097  3.03097  0.00000 -0.06194
      11     H     0.47086  0.47086  0.00000  0.05828
      12     H     0.44703  0.44703  0.00000  0.10595
      13     H     0.47029  0.47029  0.00000  0.05941

   Total alpha = 21.00000, Total beta = 21.00000, Total charge =  0.00000

*** Psi4 exiting successfully. Buy a developer a beer!
