                              Psi4 1.0.54 Driver

  ==> Input File <==

--------------------------------------------------------------------------
set {
	reference rhf
	basis cc-pvtz
}

set_num_threads( 4 )
memory 2 gb

molecule MOL {
0 1

H	 1.199958	 -1.507899	 0.584503
C	 0.591985	 -0.612442	 0.725836
N	 -0.537714	 -0.645117	 0.000000
O	 0.931765	 0.267873	 1.451310
C	 -1.522613	 0.412524	 0.000000
H	 -0.693735	 -1.444172	 -0.563162
H	 -2.150256	 0.356137	 -0.880771
H	 -1.005621	 1.357208	 0.000000
H	 -2.150256	 0.356137	 0.880771

	symmetry c1
}
set optking {
	frozen_dihedral = ("
		6 3 5 7
	")
}

ee,wfn = optimize('scf', return_wfn=True)
oeprop( wfn, 'DIPOLE', 'QUADRUPOLE', 'MULLIKEN_CHARGES')
f=open( 'psi4out.xyz', 'w' )
f.write( "9  " )
f.write( str(ee) + "\n" )
f.write( MOL.save_string_xyz() )
f.close()
--------------------------------------------------------------------------

    Molecular point group: c1
  Charge       = 0
  Multiplicity = 1
  Basis Set: CC-PVTZ
  Basis Set:
  @DF-RHF Final Energy:  -208.04327574143554
    Total Energy =                       -208.0432757414354512
    Molecular point group: c1
  Basis Set: CC-PVTZ
  Basis Set:
  Basis Set: CC-PVTZ
  Basis Set:
  @DF-RHF Final Energy:  -208.04358217638918
    Total Energy =                       -208.0435821763892079
  Basis Set: CC-PVTZ
  Basis Set:
  Basis Set: CC-PVTZ
  Basis Set:
  @DF-RHF Final Energy:  -208.04361406366274
    Total Energy =                       -208.0436140636627442
  Basis Set: CC-PVTZ
  Basis Set:
  Basis Set: CC-PVTZ
  Basis Set:
  @DF-RHF Final Energy:  -208.04364909377347
    Total Energy =                       -208.0436490937732970
  Basis Set: CC-PVTZ
  Basis Set:
  Basis Set: CC-PVTZ
  Basis Set:
  @DF-RHF Final Energy:  -208.04367120472546
    Total Energy =                       -208.0436712047253991
  Basis Set: CC-PVTZ
  Basis Set:
  Basis Set: CC-PVTZ
  Basis Set:
  @DF-RHF Final Energy:  -208.04367738917148
    Total Energy =                       -208.0436773891713642
  Basis Set: CC-PVTZ
  Basis Set:
  Basis Set: CC-PVTZ
  Basis Set:
  @DF-RHF Final Energy:  -208.04367989898083
    Total Energy =                       -208.0436798989809404
  Basis Set: CC-PVTZ
  Basis Set:
  Charge       = 0
  Multiplicity = 1
  Basis Set: CC-PVTZ
  Basis Set:

    Orbital Energies (a.u.)
    -----------------------

    Doubly Occupied:

       1A    -20.516780     2A    -15.584450     3A    -11.336246
       4A    -11.260328     5A     -1.394081     6A     -1.239423
       7A     -0.969778     8A     -0.809032     9A     -0.749027
      10A     -0.645981    11A     -0.629942    12A     -0.596182
      13A     -0.558967    14A     -0.537637    15A     -0.428456
      16A     -0.396773

  @DF-RHF Final Energy:  -208.04368044182274

   => Energetics <=

    Nuclear Repulsion Energy =            122.9061703375090389
    One-Electron Energy =                -526.5935353217803367
    Two-Electron Energy =                 195.6436845424486819
    DFT Exchange-Correlation Energy =       0.0000000000000000
    Empirical Dispersion Energy =           0.0000000000000000
    PCM Polarization Energy =               0.0000000000000000
    EFP Energy =                            0.0000000000000000
    Total Energy =                       -208.0436804418226302
    Molecular point group: c1
  Basis Set: CC-PVTZ
  Basis Set:

  -Total Gradient:
     Atom            X                  Y                   Z
    ------   -----------------  -----------------  -----------------
       1        0.000001085264     0.000001687246    -0.000000113947
       2       -0.000023451021    -0.000021492506    -0.000023241819
       3       -0.000001162693    -0.000027576849     0.000031913582
       4        0.000009754670     0.000022145666     0.000019048374
       5        0.000024115619     0.000024306599    -0.000019450145
       6        0.000009855550     0.000010350292    -0.000017531993
       7       -0.000020085592    -0.000011889206     0.000004361111
       8        0.000001543278     0.000006591979    -0.000000276667
       9       -0.000001655074    -0.000004123220     0.000005291503

  **** Optimization is complete! (in 8 steps) ****
    Final optimized geometry and variables:
    Molecular point group: c1

    Geometry (in Angstrom), charge = 0, multiplicity = 1:

    H            1.357561564601    -1.369874997128     0.052900696223
    C            0.735373715724    -0.483139861928     0.188030821730
    N           -0.361969182462    -0.494878950504    -0.584593239373
    O            1.031907673415     0.388749482574     0.942172049294
    C           -1.352191965434     0.557762731013    -0.537415610463
    H           -0.541097160667    -1.304333804756    -1.124437091249
    H           -2.011633359073     0.455362820720    -1.387247390718
    H           -0.868108712942     1.521594079869    -0.582816857446
    H           -1.940170110234     0.515015264940     0.371254559977

  Mulliken Charges: (a.u.)
   Center  Symbol    Alpha    Beta     Spin     Total
       1     H     0.46422  0.46422  0.00000  0.07157
       2     C     2.87985  2.87985  0.00000  0.24030
       3     N     3.60581  3.60581  0.00000 -0.21163
       4     O     4.21413  4.21413  0.00000 -0.42827
       5     C     3.07597  3.07597  0.00000 -0.15193
       6     H     0.41029  0.41029  0.00000  0.17942
       7     H     0.45428  0.45428  0.00000  0.09144
       8     H     0.44226  0.44226  0.00000  0.11548
       9     H     0.45319  0.45319  0.00000  0.09362

   Total alpha = 16.00000, Total beta = 16.00000, Total charge =  0.00000

*** Psi4 exiting successfully. Buy a developer a beer!
