  ==> Input File <==

--------------------------------------------------------------------------
set {
	reference rhf
	basis 6-31G*
}

set_num_threads( 4 )
memory 2 gb

molecule MOL {
0 1

H	 -0.840373	 0.150075	 2.667105
O	 0.027892	 0.074926	 2.295191
C	 0.130242	 0.936018	 1.198829
C	 -0.793441	 0.596080	 0.058728
H	 1.159470	 0.877560	 0.863455
H	 -0.040204	 1.968890	 1.500737
C	 -1.530462	 -0.493172	 -0.025500
H	 -0.824180	 1.326199	 -0.735289
H	 -1.092586	 -1.461565	 -0.186463
H	 -2.602122	 -0.450675	 0.050101

	symmetry c1
}
set optking {
	frozen_dihedral = ("
		3 4 7 9
	")
}

ee = optimize('scf')
oeprop('DIPOLE', 'QUADRUPOLE', 'MULLIKEN_CHARGES')
f=open( 'psi4out.xyz', 'w' )
f.write( "10  " )
f.write( str(ee) + "\n" )
f.write( MOL.save_string_xyz() )
f.close()
--------------------------------------------------------------------------

    Molecular point group: c1
  Charge       = 0
  Multiplicity = 1
  Basis Set: 6-31G*
  Basis Set:
  @DF-RHF Final Energy:  -191.80604740158333
    Total Energy =                       -191.8060474015833279
    Molecular point group: c1
  Basis Set: 6-31G*
  Basis Set:
  Basis Set: 6-31G*
  Basis Set:
  @DF-RHF Final Energy:  -191.83811257959951
    Total Energy =                       -191.8381125795995104
  Basis Set: 6-31G*
  Basis Set:
  Basis Set: 6-31G*
  Basis Set:
  @DF-RHF Final Energy:  -191.86063786859305
    Total Energy =                       -191.8606378685929599
  Basis Set: 6-31G*
  Basis Set:
  Basis Set: 6-31G*
  Basis Set:
  @DF-RHF Final Energy:  -191.87634062697038
    Total Energy =                       -191.8763406269703466
  Basis Set: 6-31G*
  Basis Set:
  @DF-RHF Final Energy:  -191.87838762319836
    Total Energy =                       -191.8783876231983356
  Basis Set: 6-31G*
  Basis Set:
  @DF-RHF Final Energy:  -191.87866779619469
    Total Energy =                       -191.8786677961947476
  Basis Set: 6-31G*
  Basis Set:
  Basis Set: 6-31G*
  Basis Set:
  @DF-RHF Final Energy:  -191.87889772443683
    Total Energy =                       -191.8788977244367402
  Basis Set: 6-31G*
  Basis Set:
  Basis Set: 6-31G*
  Basis Set:
  @DF-RHF Final Energy:  -191.87890512227949
    Total Energy =                       -191.8789051222794342
  Basis Set: 6-31G*
  Basis Set:
  Charge       = 0
  Multiplicity = 1
  Basis Set: 6-31G*
  Basis Set:

    Orbital Energies (a.u.)
    -----------------------

    Doubly Occupied:

       1A    -20.558958     2A    -11.284011     3A    -11.246557
       4A    -11.225904     5A     -1.369187     6A     -1.062552
       7A     -0.934790     8A     -0.774062     9A     -0.684701
      10A     -0.654430    11A     -0.623236    12A     -0.567518
      13A     -0.535512    14A     -0.498063    15A     -0.443220
      16A     -0.358335

  @DF-RHF Final Energy:  -191.87890537374966

   => Energetics <=

    Nuclear Repulsion Energy =            118.4390556640693859
    One-Electron Energy =                -494.9938521287115236
    Two-Electron Energy =                 184.6758910908924918
    DFT Exchange-Correlation Energy =       0.0000000000000000
    Empirical Dispersion Energy =           0.0000000000000000
    PCM Polarization Energy =               0.0000000000000000
    EFP Energy =                            0.0000000000000000
    Total Energy =                       -191.8789053737496602
    Molecular point group: c1
  Basis Set: 6-31G*
  Basis Set:

  -Total Gradient:
     Atom            X                  Y                   Z
    ------   -----------------  -----------------  -----------------
       1       -0.000005921746     0.000003617962    -0.000008742998
       2        0.000048737592    -0.000009474686    -0.000046111821
       3       -0.017764584214     0.020064946946     0.004147921963
       4        0.031617289676    -0.037121909281    -0.024264319185
       5        0.000013701214    -0.000015265709     0.000029089324
       6        0.000008158771     0.000012154367     0.000010473967
       7       -0.017539434596     0.023414964469     0.056067006518
       8       -0.000021776598     0.000108480356     0.000124814073
       9        0.003568137771    -0.006431030757    -0.035985067816
      10        0.000075692131    -0.000026483667    -0.000075064026

  **** Optimization is complete! (in 9 steps) ****
    Final optimized geometry and variables:
    Molecular point group: c1

    Geometry (in Angstrom), charge = 0, multiplicity = 1:

    H           -0.127793140740    -0.427446100302     1.583602135892
    O            0.740403949699    -0.176419531838     1.296343863474
    C            0.620121555761     0.696075440077     0.215417566656
    C           -0.229284788196     0.181328279057    -0.921168872690
    H            1.629426242097     0.932136825308    -0.101583803186
    H            0.154161679778     1.633720278157     0.513084851855
    C           -1.224627063174    -0.707214227681    -0.860407755133
    H           -0.391175707956     0.988893243733    -1.625788421595
    H           -1.116008880493    -1.762682982659    -0.660956748671
    H           -1.971559964371    -0.591132387971    -1.634288228474

  Mulliken Charges: (a.u.)
   Center  Symbol    Alpha    Beta     Spin     Total
       1     H     0.27853  0.27853  0.00000  0.44293
       2     O     4.36579  4.36579  0.00000 -0.73159
       3     C     3.00396  3.00396  0.00000 -0.00792
       4     C     3.07159  3.07159  0.00000 -0.14317
       5     H     0.41060  0.41060  0.00000  0.17881
       6     H     0.41880  0.41880  0.00000  0.16241
       7     C     3.21274  3.21274  0.00000 -0.42548
       8     H     0.41738  0.41738  0.00000  0.16524
       9     H     0.40271  0.40271  0.00000  0.19458
      10     H     0.41790  0.41790  0.00000  0.16420

   Total alpha = 16.00000, Total beta = 16.00000, Total charge =  0.00000
