  ==> Input File <==

--------------------------------------------------------------------------
set {
	reference rhf
	basis cc-pvtz
}

set_num_threads( 4 )
memory 2 gb

molecule MOL {
0 1

O	 1.614899	 -0.388702	 0.216882
C	 0.576499	 0.134701	 -0.003900
C	 -0.765656	 -0.550508	 -0.002152
O	 0.459615	 1.419447	 -0.296711
C	 -1.945526	 0.411052	 0.000603
H	 -0.794329	 -1.203792	 -0.868145
H	 -0.791555	 -1.205429	 0.862701
C	 -3.282915	 -0.321280	 0.002596
H	 -1.880300	 1.059126	 -0.864925
H	 -1.877207	 1.057892	 0.866807
H	 -3.388495	 -0.952755	 -0.873419
H	 -4.107811	 0.380864	 0.004116
H	 -3.385717	 -0.953283	 0.878571
C	 1.646382	 2.186181	 -0.338129
H	 2.140953	 2.174951	 0.621729
H	 1.343097	 3.189541	 -0.589083
H	 2.322255	 1.802222	 -1.087671

	symmetry c1
}
set optking {
	frozen_dihedral = ("
		1 2 3 6
	")
}

ee = optimize('scf')
oeprop('DIPOLE', 'QUADRUPOLE', 'MULLIKEN_CHARGES')
f=open( 'psi4out.xyz', 'w' )
f.write( "17  " )
f.write( str(ee) + "\n" )
f.write( MOL.save_string_xyz() )
f.close()
--------------------------------------------------------------------------

    Molecular point group: c1
  Charge       = 0
  Multiplicity = 1
  Basis Set: CC-PVTZ
  Basis Set:
  @DF-RHF Final Energy:  -345.03161672789349
    Total Energy =                       -345.0316167278938337
    Molecular point group: c1
  Basis Set: CC-PVTZ
  Basis Set:
  Basis Set: CC-PVTZ
  Basis Set:
  @DF-RHF Final Energy:  -345.03245861545491
    Total Energy =                       -345.0324586154551412
  Basis Set: CC-PVTZ
  Basis Set:
  Basis Set: CC-PVTZ
  Basis Set:
  @DF-RHF Final Energy:  -345.03245297195087
    Total Energy =                       -345.0324529719508746
  Basis Set: CC-PVTZ
  Basis Set:
  Basis Set: CC-PVTZ
  Basis Set:
  @DF-RHF Final Energy:  -345.03292437857510
    Total Energy =                       -345.0329243785751601
  Basis Set: CC-PVTZ
  Basis Set:
  Basis Set: CC-PVTZ
  Basis Set:
  @DF-RHF Final Energy:  -345.03293709565702
    Total Energy =                       -345.0329370956566777
  Basis Set: CC-PVTZ
  Basis Set:
  Charge       = 0
  Multiplicity = 1
  Basis Set: CC-PVTZ
  Basis Set:

    Orbital Energies (a.u.)
    -----------------------

    Doubly Occupied:

       1A    -20.599525     2A    -20.530003     3A    -11.365216
       4A    -11.279665     5A    -11.234530     6A    -11.224776
       7A    -11.215196     8A     -1.473659     9A     -1.364511
      10A     -1.084179    11A     -0.998544    12A     -0.944124
      13A     -0.832375    14A     -0.777181    15A     -0.698882
      16A     -0.686914    17A     -0.674555    18A     -0.639021
      19A     -0.597375    20A     -0.573277    21A     -0.559445
      22A     -0.532538    23A     -0.524232    24A     -0.518412
      25A     -0.490606    26A     -0.484513    27A     -0.456364
      28A     -0.434062

  @DF-RHF Final Energy:  -345.03294323279556

   => Energetics <=

    Nuclear Repulsion Energy =            314.8070155311788767
    One-Electron Energy =               -1094.0925595445903582
    Two-Electron Energy =                 434.2526007806158077
    DFT Exchange-Correlation Energy =       0.0000000000000000
    Empirical Dispersion Energy =           0.0000000000000000
    PCM Polarization Energy =               0.0000000000000000
    EFP Energy =                            0.0000000000000000
    Total Energy =                       -345.0329432327956738
    Molecular point group: c1
  Basis Set: CC-PVTZ
  Basis Set:

  -Total Gradient:
     Atom            X                  Y                   Z
    ------   -----------------  -----------------  -----------------
       1       -0.000036600551    -0.000030064531    -0.000571894395
       2        0.000069148018    -0.000195420567     0.000901831979
       3       -0.000196695638     0.000451142526    -0.000585194311
       4        0.000032984385     0.000193043506    -0.000034147913
       5        0.000004192313     0.000002772698    -0.000004025410
       6        0.000197649168    -0.000400131093     0.000293452878
       7       -0.000005182494    -0.000002023035     0.000000152879
       8       -0.000009694151     0.000004245882     0.000014198880
       9        0.000000008775     0.000003827638     0.000000867103
      10       -0.000013085625    -0.000005989102    -0.000010747718
      11        0.000006153135     0.000008263520    -0.000000035333
      12       -0.000012498327    -0.000005090251     0.000001100054
      13       -0.000000103565    -0.000001841632    -0.000002367408
      14       -0.000064832443    -0.000047480038    -0.000000645715
      15        0.000009589748     0.000007958891     0.000003304167
      16        0.000005163706     0.000007811211    -0.000000983324
      17        0.000013803543     0.000008974376    -0.000004866411

  **** Optimization is complete! (in 6 steps) ****
    Final optimized geometry and variables:
    Molecular point group: c1

    Geometry (in Angstrom), charge = 0, multiplicity = 1:

    O            1.796046638057    -0.830148723159     0.287069458940
    C            0.785725320541    -0.255402399868     0.058830280520
    C           -0.565441761377    -0.931665523164     0.049191281127
    O            0.739176942110     1.030240904635    -0.237381900829
    C           -1.794678959317    -0.029779317614     0.058386559483
    H           -0.568432538317    -1.570861867398    -0.828799647918
    H           -0.568969857038    -1.601850401921     0.900017942535
    C           -3.088261244522    -0.837296953289     0.080065258441
    H           -1.780550730118     0.615378273153    -0.810945684479
    H           -1.758963946778     0.623082784175     0.923486255447
    H           -3.166027888585    -1.478107454309    -0.791973245031
    H           -3.952367539631    -0.183866050559     0.087692517361
    H           -3.143747975632    -1.469664396039     0.959736506054
    C            1.967008410785     1.730174950497    -0.276637391975
    H            2.457413001008     1.691756641653     0.684479846211
    H            1.720384226617     2.748563671366    -0.529473148270
    H            2.622046977236     1.307406956944    -1.023641218388

  Mulliken Charges: (a.u.)
   Center  Symbol    Alpha    Beta     Spin     Total
       1     O     4.20406  4.20406  0.00000 -0.40812
       2     C     2.81289  2.81289  0.00000  0.37421
       3     C     3.08759  3.08759  0.00000 -0.17519
       4     O     4.14131  4.14131  0.00000 -0.28261
       5     C     3.08011  3.08011  0.00000 -0.16021
       6     H     0.44211  0.44211  0.00000  0.11578
       7     H     0.43722  0.43722  0.00000  0.12556
       8     C     3.15248  3.15248  0.00000 -0.30496
       9     H     0.44702  0.44702  0.00000  0.10595
      10     H     0.44981  0.44981  0.00000  0.10038
      11     H     0.45478  0.45478  0.00000  0.09044
      12     H     0.44605  0.44605  0.00000  0.10791
      13     H     0.45436  0.45436  0.00000  0.09128
      14     C     3.03664  3.03664  0.00000 -0.07328
      15     H     0.45330  0.45330  0.00000  0.09339
      16     H     0.44686  0.44686  0.00000  0.10627
      17     H     0.45341  0.45341  0.00000  0.09318

   Total alpha = 28.00000, Total beta = 28.00000, Total charge = -0.00000
