  ==> Input File <==

--------------------------------------------------------------------------
set {
	reference rhf
	basis 6-31G*
}

set_num_threads( 4 )
memory 2 gb

molecule MOL {
0 1

H	 -3.042581	 -0.665861	 0.004336
O	 -2.245037	 -1.176175	 0.000806
C	 -1.162163	 -0.365336	 0.001020
C	 -0.446783	 -0.080692	 -1.148127
C	 -0.780381	 0.182596	 1.219561
H	 -0.739891	 -0.506810	 -2.092841
C	 0.655289	 0.758669	 -1.065531
H	 -1.357500	 -0.061703	 2.092698
C	 0.317977	 1.020538	 1.300653
H	 1.215306	 0.980257	 -1.956777
C	 1.039841	 1.306207	 0.141654
C	 0.719832	 1.636075	 2.620777
H	 1.898029	 1.953134	 0.189892
H	 1.795034	 1.596965	 2.759344
H	 0.254300	 1.123736	 3.454233
H	 0.422410	 2.680064	 2.665201

	symmetry c1
}
set optking {
	frozen_dihedral = ("
		5 3 2 1
	")
}

ee = optimize('scf')
oeprop('DIPOLE', 'QUADRUPOLE', 'MULLIKEN_CHARGES')
f=open( 'psi4out.xyz', 'w' )
f.write( "16  " )
f.write( str(ee) + "\n" )
f.write( MOL.save_string_xyz() )
f.close()
--------------------------------------------------------------------------

    Molecular point group: c1
  Charge       = 0
  Multiplicity = 1
  Basis Set: 6-31G*
  Basis Set:
  @DF-RHF Final Energy:  -344.58971699316339
    Total Energy =                       -344.5897169931633357
    Molecular point group: c1
  Basis Set: 6-31G*
  Basis Set:
  Basis Set: 6-31G*
  Basis Set:
  @DF-RHF Final Energy:  -344.59072881866001
    Total Energy =                       -344.5907288186602386
  Basis Set: 6-31G*
  Basis Set:
  Basis Set: 6-31G*
  Basis Set:
  @DF-RHF Final Energy:  -344.59079624825944
    Total Energy =                       -344.5907962482592666
  Basis Set: 6-31G*
  Basis Set:
  Basis Set: 6-31G*
  Basis Set:
  @DF-RHF Final Energy:  -344.59080300855089
    Total Energy =                       -344.5908030085509495
  Basis Set: 6-31G*
  Basis Set:
  Basis Set: 6-31G*
  Basis Set:
  @DF-RHF Final Energy:  -344.59080416473023
    Total Energy =                       -344.5908041647305708
  Basis Set: 6-31G*
  Basis Set:
  Charge       = 0
  Multiplicity = 1
  Basis Set: 6-31G*
  Basis Set:

    Orbital Energies (a.u.)
    -----------------------

    Doubly Occupied:

       1A    -20.574860     2A    -11.286557     3A    -11.241504
       4A    -11.232380     5A    -11.222389     6A    -11.221862
       7A    -11.221459     8A    -11.220876     9A     -1.389642
      10A     -1.149967    11A     -1.043255    12A     -1.003090
      13A     -0.936678    14A     -0.828850    15A     -0.803648
      16A     -0.717305    17A     -0.676114    18A     -0.652610
      19A     -0.617501    20A     -0.588897    21A     -0.575989
      22A     -0.567149    23A     -0.550990    24A     -0.511653
      25A     -0.502160    26A     -0.479711    27A     -0.461751
      28A     -0.329351    29A     -0.317781

  @DF-RHF Final Energy:  -344.59080451983141

   => Energetics <=

    Nuclear Repulsion Energy =            344.9731880181108181
    One-Electron Energy =               -1151.2760318213906885
    Two-Electron Energy =                 461.7120392834483482
    DFT Exchange-Correlation Energy =       0.0000000000000000
    Empirical Dispersion Energy =           0.0000000000000000
    PCM Polarization Energy =               0.0000000000000000
    EFP Energy =                            0.0000000000000000
    Total Energy =                       -344.5908045198315222
    Molecular point group: c1
  Basis Set: 6-31G*
  Basis Set:

  -Total Gradient:
     Atom            X                  Y                   Z
    ------   -----------------  -----------------  -----------------
       1        0.000019681417     0.000036488505    -0.000864890028
       2        0.000114556465    -0.000331658857     0.001128372869
       3       -0.000512035327     0.000783482490    -0.000423664903
       4        0.000010049923     0.000003392185     0.000000302166
       5        0.000371028606    -0.000504032119     0.000160358283
       6       -0.000004080679    -0.000001872230     0.000004369429
       7       -0.000023180751    -0.000009477657     0.000012763100
       8        0.000012970825     0.000002958214    -0.000020625748
       9        0.000012560219     0.000002338003     0.000003060796
      10       -0.000000355960     0.000002248468    -0.000002378821
      11        0.000001359998     0.000006521544    -0.000000508039
      12       -0.000002040184     0.000010834210    -0.000005177846
      13       -0.000007239503     0.000001460682     0.000005734138
      14        0.000002114417    -0.000011579757    -0.000000334152
      15       -0.000005251004     0.000004516440     0.000006149612
      16        0.000009861543     0.000004379882    -0.000003530858

  **** Optimization is complete! (in 6 steps) ****
    Final optimized geometry and variables:
    Molecular point group: c1

    Geometry (in Angstrom), charge = 0, multiplicity = 1:

    H           -2.762341634872    -1.096063208088    -0.446822391844
    O           -1.952454984278    -1.588408428065    -0.453580339950
    C           -0.881050080592    -0.734944167721    -0.395793918902
    C           -0.164852008530    -0.463401026966    -1.545787021786
    C           -0.492871845161    -0.193877336639     0.820362918013
    H           -0.471765965366    -0.905140784084    -2.475774867076
    C            0.943284015901     0.366113509954    -1.468012103527
    H           -1.058628839238    -0.443385310327     1.700664231149
    C            0.611431569312     0.642211572470     0.903068580214
    H            1.509476235511     0.581166626628    -2.356881602120
    C            1.327646152504     0.916504312213    -0.258661181338
    C            1.023692926128     1.253552695178     2.222336132779
    H            2.191240444219     1.557178780838    -0.213779732314
    H            2.099269108014     1.208487767597     2.356106132251
    H            0.560854195430     0.740444775374     3.057189830903
    H            0.731967825356     2.299009920380     2.273642973054

  Mulliken Charges: (a.u.)
   Center  Symbol    Alpha    Beta     Spin     Total
       1     H     0.27162  0.27162  0.00000  0.45676
       2     O     4.38859  4.38859  0.00000 -0.77717
       3     C     2.81422  2.81422  0.00000  0.37156
       4     C     3.12216  3.12216  0.00000 -0.24431
       5     C     3.13757  3.13757  0.00000 -0.27514
       6     H     0.39446  0.39446  0.00000  0.21108
       7     C     3.09357  3.09357  0.00000 -0.18714
       8     H     0.39830  0.39830  0.00000  0.20339
       9     C     2.97395  2.97395  0.00000  0.05210
      10     H     0.39855  0.39855  0.00000  0.20290
      11     C     3.11714  3.11714  0.00000 -0.23428
      12     C     3.25421  3.25421  0.00000 -0.50841
      13     H     0.40239  0.40239  0.00000  0.19522
      14     H     0.41119  0.41119  0.00000  0.17762
      15     H     0.41213  0.41213  0.00000  0.17574
      16     H     0.40996  0.40996  0.00000  0.18008

   Total alpha = 29.00000, Total beta = 29.00000, Total charge = -0.00000
