  ==> Input File <==

--------------------------------------------------------------------------
set {
	reference rhf
	basis 6-31G*
}

set_num_threads( 4 )
memory 2 gb

molecule MOL {
0 1

O	 -2.439739	 -0.935931	 -0.423848
C	 -1.921153	 0.064240	 -0.045697
C	 -2.624470	 1.379923	 0.150949
O	 -0.632575	 0.154573	 0.251549
H	 -2.168117	 2.136577	 -0.476876
H	 -3.669540	 1.273223	 -0.098610
H	 -2.519365	 1.700893	 1.180846
C	 0.160891	 -1.019931	 0.106212
C	 1.589627	 -0.672828	 0.480843
H	 0.089836	 -1.367806	 -0.916050
H	 -0.238459	 -1.792301	 0.749618
C	 2.246377	 0.346236	 -0.452210
H	 2.163194	 -1.597435	 0.473358
H	 1.604769	 -0.303424	 1.502885
C	 3.763955	 0.182487	 -0.523927
H	 1.823959	 0.243101	 -1.449720
H	 2.004277	 1.349037	 -0.115851
H	 4.205759	 0.916427	 -1.190392
H	 4.037038	 -0.803286	 -0.889924
H	 4.218420	 0.308889	 0.454624

	symmetry c1
}
set optking {
	frozen_dihedral = ("
		16 12 9 8
	")
}

ee = optimize('scf')
oeprop('DIPOLE', 'QUADRUPOLE', 'MULLIKEN_CHARGES')
f=open( 'psi4out.xyz', 'w' )
f.write( "20  " )
f.write( str(ee) + "\n" )
f.write( MOL.save_string_xyz() )
f.close()
--------------------------------------------------------------------------

    Molecular point group: c1
  Charge       = 0
  Multiplicity = 1
  Basis Set: 6-31G*
  Basis Set:
  @DF-RHF Final Energy:  -383.94333778916155
    Total Energy =                       -383.9433377891614327
    Molecular point group: c1
  Basis Set: 6-31G*
  Basis Set:
  Basis Set: 6-31G*
  Basis Set:
  @DF-RHF Final Energy:  -383.94348099945734
    Total Energy =                       -383.9434809994575062
  Basis Set: 6-31G*
  Basis Set:
  Basis Set: 6-31G*
  Basis Set:
  @DF-RHF Final Energy:  -383.94246304489263
    Total Energy =                       -383.9424630448929747
  Basis Set: 6-31G*
  Basis Set:
  Basis Set: 6-31G*
  Basis Set:
  @DF-RHF Final Energy:  -383.94360984033494
    Total Energy =                       -383.9436098403347160
  Basis Set: 6-31G*
  Basis Set:
  Basis Set: 6-31G*
  Basis Set:
  @DF-RHF Final Energy:  -383.94362255448112
    Total Energy =                       -383.9436225544809531
  Basis Set: 6-31G*
  Basis Set:
  Basis Set: 6-31G*
  Basis Set:
  @DF-RHF Final Energy:  -383.94362686779692
    Total Energy =                       -383.9436268677973203
  Basis Set: 6-31G*
  Basis Set:
  Charge       = 0
  Multiplicity = 1
  Basis Set: 6-31G*
  Basis Set:

    Orbital Energies (a.u.)
    -----------------------

    Doubly Occupied:

       1A    -20.601421     2A    -20.543879     3A    -11.374255
       4A    -11.282389     5A    -11.233202     6A    -11.225489
       7A    -11.221002     8A    -11.214010     9A     -1.467664
      10A     -1.361875    11A     -1.085424    12A     -1.027948
      13A     -0.981713    14A     -0.880289    15A     -0.812917
      16A     -0.773393    17A     -0.689057    18A     -0.685598
      19A     -0.666693    20A     -0.629682    21A     -0.598086
      22A     -0.593230    23A     -0.572138    24A     -0.551823
      25A     -0.547392    26A     -0.530381    27A     -0.509935
      28A     -0.485555    29A     -0.473992    30A     -0.470555
      31A     -0.449221    32A     -0.438345

  @DF-RHF Final Energy:  -383.94362756462613

   => Energetics <=

    Nuclear Repulsion Energy =            385.0884376109888763
    One-Electron Energy =               -1286.1070221549439339
    Two-Electron Energy =                 517.0749569793283626
    DFT Exchange-Correlation Energy =       0.0000000000000000
    Empirical Dispersion Energy =           0.0000000000000000
    PCM Polarization Energy =               0.0000000000000000
    EFP Energy =                            0.0000000000000000
    Total Energy =                       -383.9436275646266949
    Molecular point group: c1
  Basis Set: 6-31G*
  Basis Set:

  -Total Gradient:
     Atom            X                  Y                   Z
    ------   -----------------  -----------------  -----------------
       1        0.000011896761     0.000003206957    -0.000009224994
       2       -0.000004130837    -0.000001206197     0.000002140847
       3       -0.000005302608     0.000000190262     0.000006532545
       4        0.000003315289     0.000002058415    -0.000031478178
       5       -0.000001862618     0.000000215933    -0.000001686482
       6       -0.000001009306     0.000003078979    -0.000000190944
       7        0.000001726768     0.000001448628    -0.000002098015
       8        0.000898360953    -0.002108276478    -0.001617635796
       9       -0.001916195195     0.003551004041     0.002556412459
      10       -0.000004826950     0.000006769960    -0.000012930575
      11        0.000013565741     0.000002177954    -0.000010835435
      12        0.003734493812    -0.004024922074    -0.001867119581
      13        0.000020462127    -0.000004789623    -0.000000181506
      14       -0.000013604641     0.000012396789    -0.000012576681
      15       -0.000007106099    -0.000012589780    -0.000006113826
      16       -0.002723937034     0.002554467582     0.000987263923
      17       -0.000001748056     0.000016361224     0.000019722016
      18       -0.000003561186    -0.000003617526    -0.000000629015
      19        0.000003920447    -0.000000042970     0.000002515038
      20       -0.000004457363     0.000002067926    -0.000001885801

  **** Optimization is complete! (in 7 steps) ****
    Final optimized geometry and variables:
    Molecular point group: c1

    Geometry (in Angstrom), charge = 0, multiplicity = 1:

    O           -2.455109754351    -0.871257392232    -0.342687293464
    C           -1.922443339892     0.130178806225     0.012207521318
    C           -2.608677025467     1.458362450373     0.184092406905
    O           -0.633083636175     0.208830465252     0.308384502577
    H           -2.142729417167     2.196827983664    -0.458115976751
    H           -3.655179282764     1.360409371462    -0.063101547452
    H           -2.498801473150     1.797345816949     1.207736045098
    C            0.144893262209    -0.979154836512     0.186974627348
    C            1.580136570106    -0.639846827071     0.538080950040
    H            0.064894390057    -1.349147499477    -0.826509776295
    H           -0.259035090682    -1.731472030462     0.851155014126
    C            2.221488785949     0.397443761616    -0.394820941161
    H            2.139136763403    -1.572550210924     0.486761453108
    H            1.634156818205    -0.303701947461     1.569232425935
    C            3.741788270101     0.276977981285    -0.469705355725
    H            1.784357847103     0.317544919525    -1.387372443344
    H            1.955744992278     1.392187190372    -0.049561330543
    H            4.166214437125     1.051884723995    -1.100083743052
    H            4.040809704634    -0.684249323186    -0.877940707271
    H            4.190221413449     0.370579742427     0.515555118221

  Mulliken Charges: (a.u.)
   Center  Symbol    Alpha    Beta     Spin     Total
       1     O     4.28349  4.28349  0.00000 -0.56698
       2     C     2.61941  2.61941  0.00000  0.76119
       3     C     3.28161  3.28161  0.00000 -0.56321
       4     O     4.30855  4.30855  0.00000 -0.61709
       5     H     0.40066  0.40066  0.00000  0.19867
       6     H     0.39696  0.39696  0.00000  0.20608
       7     H     0.40064  0.40064  0.00000  0.19873
       8     C     3.00396  3.00396  0.00000 -0.00793
       9     C     3.16577  3.16577  0.00000 -0.33155
      10     H     0.41019  0.41019  0.00000  0.17963
      11     H     0.40870  0.40870  0.00000  0.18260
      12     C     3.15330  3.15330  0.00000 -0.30659
      13     H     0.41820  0.41820  0.00000  0.16360
      14     H     0.41291  0.41291  0.00000  0.17418
      15     C     3.24098  3.24098  0.00000 -0.48195
      16     H     0.42056  0.42056  0.00000  0.15888
      17     H     0.41435  0.41435  0.00000  0.17130
      18     H     0.41781  0.41781  0.00000  0.16439
      19     H     0.42127  0.42127  0.00000  0.15747
      20     H     0.42071  0.42071  0.00000  0.15859

   Total alpha = 32.00000, Total beta = 32.00000, Total charge = -0.00000
