  ==> Input File <==

--------------------------------------------------------------------------
set {
	reference rhf
	basis cc-pvtz
}

set_num_threads( 4 )
memory 2 gb

molecule MOL {
0 1

H	 2.190573	 -0.629143	 -0.208718
O	 1.355408	 -0.529451	 0.208662
C	 0.700177	 0.619554	 -0.266242
C	 -0.713111	 0.588314	 0.266177
H	 0.678680	 0.627133	 -1.351786
H	 1.199747	 1.521489	 0.077736
O	 -1.421673	 -0.521378	 -0.196983
H	 -1.244794	 1.469161	 -0.069059
H	 -0.685100	 0.604721	 1.352683
H	 -1.176881	 -1.269507	 0.319160

	symmetry c1
}
set optking {
	frozen_dihedral = ("
		10 7 4 3
	")
}

ee = optimize('scf')
oeprop('DIPOLE', 'QUADRUPOLE', 'MULLIKEN_CHARGES')
f=open( 'psi4out.xyz', 'w' )
f.write( "10  " )
f.write( str(ee) + "\n" )
f.write( MOL.save_string_xyz() )
f.close()
--------------------------------------------------------------------------

    Molecular point group: c1
  Charge       = 0
  Multiplicity = 1
  Basis Set: CC-PVTZ
  Basis Set:
  @DF-RHF Final Energy:  -229.02748399412371
    Total Energy =                       -229.0274839941235712
    Molecular point group: c1
  Basis Set: CC-PVTZ
  Basis Set:
  Basis Set: CC-PVTZ
  Basis Set:
  @DF-RHF Final Energy:  -229.02765966020510
    Total Energy =                       -229.0276596602051029
  Basis Set: CC-PVTZ
  Basis Set:
  Basis Set: CC-PVTZ
  Basis Set:
  @DF-RHF Final Energy:  -229.02770502670558
    Total Energy =                       -229.0277050267056325
  Basis Set: CC-PVTZ
  Basis Set:
  Basis Set: CC-PVTZ
  Basis Set:
  @DF-RHF Final Energy:  -229.02770736300582
    Total Energy =                       -229.0277073630057885
  Basis Set: CC-PVTZ
  Basis Set:
  Charge       = 0
  Multiplicity = 1
  Basis Set: CC-PVTZ
  Basis Set:

    Orbital Energies (a.u.)
    -----------------------

    Doubly Occupied:

       1A    -20.554841     2A    -20.544399     3A    -11.269817
       4A    -11.267286     5A     -1.380166     6A     -1.356274
       7A     -1.003298     8A     -0.841087     9A     -0.727261
      10A     -0.690915    11A     -0.639387    12A     -0.606259
      13A     -0.579239    14A     -0.525478    15A     -0.495395
      16A     -0.452196    17A     -0.436668

  @DF-RHF Final Energy:  -229.02770752559312

   => Energetics <=

    Nuclear Repulsion Energy =            133.9851313722811881
    One-Electron Energy =                -579.2857500360390759
    Two-Electron Energy =                 216.2729111381646590
    DFT Exchange-Correlation Energy =       0.0000000000000000
    Empirical Dispersion Energy =           0.0000000000000000
    PCM Polarization Energy =               0.0000000000000000
    EFP Energy =                            0.0000000000000000
    Total Energy =                       -229.0277075255932004
    Molecular point group: c1
  Basis Set: CC-PVTZ
  Basis Set:

  -Total Gradient:
     Atom            X                  Y                   Z
    ------   -----------------  -----------------  -----------------
       1        0.000012871446     0.000002743962     0.000003092287
       2       -0.000009264246    -0.000005982167    -0.000001355510
       3       -0.000565401239     0.001015045267    -0.001372336327
       4        0.000308662325    -0.001272596511     0.002338979735
       5        0.000000071708    -0.000000594686    -0.000011271400
       6        0.000001864734    -0.000014544972     0.000004807462
       7        0.002285243714    -0.000266903718    -0.002826708813
       8        0.000009111971     0.000002227233    -0.000000876133
       9        0.000003137778     0.000004277778     0.000008744088
      10       -0.002046298190     0.000536327813     0.001856924609

  **** Optimization is complete! (in 5 steps) ****
    Final optimized geometry and variables:
    Molecular point group: c1

    Geometry (in Angstrom), charge = 0, multiplicity = 1:

    H            2.211243044697    -0.619024406515    -0.203629654913
    O            1.387495950821    -0.510667012699     0.233768555287
    C            0.699734400059     0.599482963161    -0.281427974950
    C           -0.706828274104     0.573325652189     0.267110233830
    H            0.658951862808     0.560918426789    -1.365511345330
    H            1.186018589267     1.526525088672     0.014370270282
    O           -1.441910066830    -0.509248235949    -0.223667960981
    H           -1.223050450930     1.473375012405    -0.042761628265
    H           -0.671390874579     0.565411146158     1.352421099550
    H           -1.213715119889    -1.284841398953     0.255286387866

  Mulliken Charges: (a.u.)
   Center  Symbol    Alpha    Beta     Spin     Total
       1     H     0.39220  0.39220  0.00000  0.21561
       2     O     4.20487  4.20487  0.00000 -0.40974
       3     C     2.96711  2.96711  0.00000  0.06578
       4     C     2.97105  2.97105  0.00000  0.05791
       5     H     0.47092  0.47092  0.00000  0.05817
       6     H     0.47504  0.47504  0.00000  0.04991
       7     O     4.20727  4.20727  0.00000 -0.41453
       8     H     0.45766  0.45766  0.00000  0.08469
       9     H     0.46683  0.46683  0.00000  0.06634
      10     H     0.38707  0.38707  0.00000  0.22587

   Total alpha = 17.00000, Total beta = 17.00000, Total charge = -0.00000
