                              Psi4 1.0.54 Driver

  ==> Input File <==

--------------------------------------------------------------------------
set {
	reference rhf
	basis cc-pvtz
}

set_num_threads( 4 )
memory 2 gb

molecule MOL {
0 1

H	 1.937806	 3.477273	 3.526103
C	 1.654555	 2.590948	 4.110127
C	 0.356765	 1.949804	 3.699558
O	 2.347834	 2.217139	 4.991569
C	 0.290538	 1.654121	 2.198271
H	 0.213463	 1.053808	 4.289463
H	 -0.432236	 2.651678	 3.960624
C	 1.267013	 0.571697	 1.743258
H	 -0.721894	 1.352527	 1.952583
H	 0.475644	 2.570169	 1.642588
C	 1.181757	 0.280428	 0.247371
H	 1.070843	 -0.340174	 2.301035
H	 2.283456	 0.863900	 1.994033
C	 2.151032	 -0.811012	 -0.202643
H	 0.162944	 -0.002484	 0.001759
H	 1.388195	 1.192681	 -0.308034
C	 3.580021	 -0.656538	 0.320835
H	 2.170545	 -0.847575	 -1.289412
H	 1.766632	 -1.772905	 0.124928
C	 4.327657	 0.562694	 -0.213579
H	 4.138806	 -1.549270	 0.057813
H	 3.561991	 -0.620783	 1.406976
H	 4.355973	 0.557257	 -1.298551
H	 3.867136	 1.491650	 0.100501
H	 5.351524	 0.571613	 0.142204

	symmetry c1
}
set optking {
	frozen_dihedral = ("
		8 11 14 18
	")
}

ee,wfn = optimize('scf', return_wfn=True)
oeprop( wfn, 'DIPOLE', 'QUADRUPOLE', 'MULLIKEN_CHARGES')
f=open( 'psi4out.xyz', 'w' )
f.write( "25  " )
f.write( str(ee) + "\n" )
f.write( MOL.save_string_xyz() )
f.close()
--------------------------------------------------------------------------

    Molecular point group: c1
  Charge       = 0
  Multiplicity = 1
  Basis Set: CC-PVTZ
  Basis Set:
  @DF-RHF Final Energy:  -387.25634937219672
    Total Energy =                       -387.2563493721964960
    Molecular point group: c1
  Basis Set: CC-PVTZ
  Basis Set:
  Basis Set: CC-PVTZ
  Basis Set:
  @DF-RHF Final Energy:  -387.23247353277014
    Total Energy =                       -387.2324735327706549
  Basis Set: CC-PVTZ
  Basis Set:
  Basis Set: CC-PVTZ
  Basis Set:
  @DF-RHF Final Energy:  -387.25696294670013
    Total Energy =                       -387.2569629467000141
  Basis Set: CC-PVTZ
  Basis Set:
  Basis Set: CC-PVTZ
  Basis Set:
  @DF-RHF Final Energy:  -387.25776055274321
    Total Energy =                       -387.2577605527435480
  Basis Set: CC-PVTZ
  Basis Set:
  Basis Set: CC-PVTZ
  Basis Set:
  @DF-RHF Final Energy:  -387.25677068099588
    Total Energy =                       -387.2567706809963965
  Basis Set: CC-PVTZ
  Basis Set:
  Basis Set: CC-PVTZ
  Basis Set:
  @DF-RHF Final Energy:  -387.25769895465783
    Total Energy =                       -387.2576989546575987
  Basis Set: CC-PVTZ
  Basis Set:
  Basis Set: CC-PVTZ
  Basis Set:
  @DF-RHF Final Energy:  -387.25786428482934
    Total Energy =                       -387.2578642848293384
  Basis Set: CC-PVTZ
  Basis Set:
  Charge       = 0
  Multiplicity = 1
  Basis Set: CC-PVTZ
  Basis Set:

    Orbital Energies (a.u.)
    -----------------------

    Doubly Occupied:

       1A    -20.551685     2A    -11.321238     3A    -11.233908
       4A    -11.232995     5A    -11.221377     6A    -11.218071
       7A    -11.215506     8A    -11.214237     9A    -11.208219
      10A     -1.406662    11A     -1.105455    12A     -1.069601
      13A     -1.011236    14A     -0.945777    15A     -0.875779
      16A     -0.831451    17A     -0.789408    18A     -0.766831
      19A     -0.669348    20A     -0.663113    21A     -0.633790
      22A     -0.628797    23A     -0.611843    24A     -0.590637
      25A     -0.564850    26A     -0.559822    27A     -0.538862
      28A     -0.522792    29A     -0.517543    30A     -0.500327
      31A     -0.487589    32A     -0.482890    33A     -0.457677
      34A     -0.452152    35A     -0.446947    36A     -0.412118

  @DF-RHF Final Energy:  -387.25786483426828

   => Energetics <=

    Nuclear Repulsion Energy =            451.8796860940419720
    One-Electron Energy =               -1420.3540365166688844
    Two-Electron Energy =                 581.2164855883590917
    DFT Exchange-Correlation Energy =       0.0000000000000000
    Empirical Dispersion Energy =           0.0000000000000000
    PCM Polarization Energy =               0.0000000000000000
    EFP Energy =                            0.0000000000000000
    Total Energy =                       -387.2578648342678207
    Molecular point group: c1
  Basis Set: CC-PVTZ
  Basis Set:

  -Total Gradient:
     Atom            X                  Y                   Z
    ------   -----------------  -----------------  -----------------
       1        0.000027521750    -0.000006829917     0.000029060870
       2       -0.000039702305    -0.000060781031     0.000011348823
       3        0.000011273360     0.000014128298    -0.000011085558
       4        0.000045923896     0.000050492934    -0.000006089978
       5       -0.000063304320    -0.000049910553     0.000002831159
       6       -0.000011977648     0.000011590834    -0.000001170174
       7       -0.000006944818     0.000000678084    -0.000005476931
       8        0.001496818737     0.002312733490    -0.000994060760
       9       -0.000008471862    -0.000011776196    -0.000022210079
      10       -0.000000824439     0.000001828358     0.000000190311
      11       -0.001631353607    -0.002625039462     0.001238166588
      12        0.000016315303    -0.000009039884     0.000000578265
      13        0.000029451944     0.000020497646    -0.000017595961
      14       -0.002074107098    -0.002770870999     0.000429793907
      15       -0.000022402234     0.000022905415     0.000028787049
      16        0.000029542910     0.000013192563    -0.000005608697
      17       -0.000025290379    -0.000010340537    -0.000021663755
      18        0.002239203953     0.003077278993    -0.000636833467
      19       -0.000011139954    -0.000004564620    -0.000006460339
      20        0.000028959633     0.000015506472    -0.000015175461
      21       -0.000020128998     0.000021151984     0.000010514197
      22       -0.000020309213    -0.000010227311    -0.000033645012
      23        0.000012028843     0.000013679542     0.000057306327
      24        0.000020787479    -0.000033902689    -0.000014296278
      25       -0.000021870932     0.000017618583    -0.000017205045

  **** Optimization is complete! (in 8 steps) ****
    Final optimized geometry and variables:
    Molecular point group: c1

    Geometry (in Angstrom), charge = 0, multiplicity = 1:

    H           -0.717770212451     2.739689244666     1.269075617231
    C           -0.666010338857     1.919659649838     1.998284853466
    C           -1.711104298622     0.851232909245     1.825535880763
    O            0.162836486290     1.929612948450     2.841113616408
    C           -1.758640731591     0.294450777860     0.399464004200
    H           -1.529041942313     0.070390264515     2.552497810909
    H           -2.668071966741     1.311468097738     2.061459004052
    C           -0.511122896346    -0.496057992447     0.008767051193
    H           -2.632285340785    -0.341539578802     0.308414672878
    H           -1.906878192148     1.112447599741    -0.301535855422
    C           -0.587004374280    -1.039121658045    -1.416784566442
    H           -0.380485291775    -1.318148580314     0.708564101568
    H            0.365156381573     0.133471783408     0.118449429718
    C            0.565766509326    -1.961945726384    -1.831668025151
    H           -1.518260069873    -1.584253628992    -1.540944013353
    H           -0.642149688880    -0.198905346258    -2.103628442735
    C            1.982310896928    -1.450407814450    -1.550888824716
    H            0.491033655702    -2.131519835347    -2.902385551604
    H            0.442829537396    -2.925480748946    -1.346483827172
    C            2.347349477239    -0.169888124474    -2.297748456053
    H            2.680279421820    -2.230594311654    -1.838377799451
    H            2.125130310176    -1.303129052552    -0.485839806711
    H            2.234042063681    -0.298754108516    -3.369357763763
    H            1.724887461821     0.666076776312    -2.000614006667
    H            3.377185373977     0.108164587320    -2.106310783780

  Mulliken Charges: (a.u.)
   Center  Symbol    Alpha    Beta     Spin     Total
       1     H     0.46389  0.46389  0.00000  0.07222
       2     C     2.90586  2.90586  0.00000  0.18827
       3     C     3.08755  3.08755  0.00000 -0.17510
       4     O     4.16623  4.16623  0.00000 -0.33245
       5     C     3.11732  3.11732  0.00000 -0.23464
       6     H     0.44314  0.44314  0.00000  0.11373
       7     H     0.44052  0.44052  0.00000  0.11896
       8     C     3.09441  3.09441  0.00000 -0.18882
       9     H     0.44217  0.44217  0.00000  0.11565
      10     H     0.44946  0.44946  0.00000  0.10109
      11     C     3.10901  3.10901  0.00000 -0.21802
      12     H     0.44820  0.44820  0.00000  0.10360
      13     H     0.44451  0.44451  0.00000  0.11098
      14     C     3.09933  3.09933  0.00000 -0.19866
      15     H     0.44304  0.44304  0.00000  0.11391
      16     H     0.44992  0.44992  0.00000  0.10015
      17     C     3.10083  3.10083  0.00000 -0.20166
      18     H     0.44913  0.44913  0.00000  0.10175
      19     H     0.44688  0.44688  0.00000  0.10624
      20     C     3.15138  3.15138  0.00000 -0.30275
      21     H     0.44357  0.44357  0.00000  0.11286
      22     H     0.44902  0.44902  0.00000  0.10196
      23     H     0.45374  0.45374  0.00000  0.09252
      24     H     0.45617  0.45617  0.00000  0.08766
      25     H     0.44472  0.44472  0.00000  0.11057

   Total alpha = 36.00000, Total beta = 36.00000, Total charge =  0.00000

*** Psi4 exiting successfully. Buy a developer a beer!
