  ==> Input File <==

--------------------------------------------------------------------------
set {
	reference rhf
	basis 6-31G*
}

set_num_threads( 4 )
memory 2 gb

molecule MOL {
0 1

H	 -3.261111	 -0.295142	 1.469456
C	 -3.306842	 -0.277400	 0.373456
C	 -2.660244	 0.921717	 -0.272021
O	 -3.838538	 -1.161155	 -0.216482
C	 -3.687693	 1.947915	 -0.769537
H	 -1.969370	 1.361428	 0.437948
H	 -2.080893	 0.555612	 -1.118765
C	 -4.466051	 2.628793	 0.359118
H	 -3.166741	 2.700700	 -1.353668
H	 -4.382083	 1.461689	 -1.453030
C	 -5.477957	 3.656902	 -0.150640
H	 -3.763540	 3.114089	 1.033516
H	 -4.985015	 1.879446	 0.953840
C	 -6.243172	 4.347438	 0.981418
H	 -4.955713	 4.396560	 -0.752219
H	 -6.186876	 3.165783	 -0.815937
C	 -7.326899	 5.326873	 0.516322
H	 -5.538445	 4.871407	 1.625242
H	 -6.710331	 3.584969	 1.601189
C	 -6.796572	 6.561771	 -0.214021
H	 -7.890843	 5.652971	 1.386710
H	 -8.034184	 4.803930	 -0.124147
H	 -6.073919	 7.096152	 0.397108
H	 -6.312101	 6.303796	 -1.149815
H	 -7.604876	 7.248882	 -0.445362

	symmetry c1
}
set optking {
	frozen_dihedral = ("
		6 3 2 4
	")
}

ee = optimize('scf')
oeprop('DIPOLE', 'QUADRUPOLE', 'MULLIKEN_CHARGES')
f=open( 'psi4out.xyz', 'w' )
f.write( "25  " )
f.write( str(ee) + "\n" )
f.write( MOL.save_string_xyz() )
f.close()
--------------------------------------------------------------------------

    Molecular point group: c1
  Charge       = 0
  Multiplicity = 1
  Basis Set: 6-31G*
  Basis Set:
  @DF-RHF Final Energy:  -387.11985664834845
    Total Energy =                       -387.1198566483485592
    Molecular point group: c1
  Basis Set: 6-31G*
  Basis Set:
  Basis Set: 6-31G*
  Basis Set:
  @DF-RHF Final Energy:  -387.12015237734596
    Total Energy =                       -387.1201523773456756
  Basis Set: 6-31G*
  Basis Set:
  Basis Set: 6-31G*
  Basis Set:
  @DF-RHF Final Energy:  -387.11925786209343
    Total Energy =                       -387.1192578620934910
  Basis Set: 6-31G*
  Basis Set:
  Basis Set: 6-31G*
  Basis Set:
  @DF-RHF Final Energy:  -387.12021812276470
    Total Energy =                       -387.1202181227649817
  Basis Set: 6-31G*
  Basis Set:
  Basis Set: 6-31G*
  Basis Set:
  @DF-RHF Final Energy:  -387.12000618338436
    Total Energy =                       -387.1200061833836799
  Basis Set: 6-31G*
  Basis Set:
  Basis Set: 6-31G*
  Basis Set:
  @DF-RHF Final Energy:  -387.12025084955752
    Total Energy =                       -387.1202508495582606
  Basis Set: 6-31G*
  Basis Set:
  Charge       = 0
  Multiplicity = 1
  Basis Set: 6-31G*
  Basis Set:

    Orbital Energies (a.u.)
    -----------------------

    Doubly Occupied:

       1A    -20.561657     2A    -11.325929     3A    -11.233889
       4A    -11.232115     5A    -11.225086     6A    -11.219497
       7A    -11.218156     8A    -11.217462     9A    -11.210680
      10A     -1.401725    11A     -1.102341    12A     -1.067842
      13A     -1.012104    14A     -0.942116    15A     -0.876742
      16A     -0.826054    17A     -0.782165    18A     -0.771831
      19A     -0.684782    20A     -0.653820    21A     -0.631732
      22A     -0.621412    23A     -0.596794    24A     -0.591686
      25A     -0.580175    26A     -0.549950    27A     -0.537642
      28A     -0.522002    29A     -0.507465    30A     -0.495474
      31A     -0.489304    32A     -0.478634    33A     -0.464797
      34A     -0.459108    35A     -0.440679    36A     -0.408278

  @DF-RHF Final Energy:  -387.12025077630466

   => Energetics <=

    Nuclear Repulsion Energy =            440.0292047617292042
    One-Electron Energy =               -1396.4166641547667496
    Two-Electron Energy =                 569.2672086167330008
    DFT Exchange-Correlation Energy =       0.0000000000000000
    Empirical Dispersion Energy =           0.0000000000000000
    PCM Polarization Energy =               0.0000000000000000
    EFP Energy =                            0.0000000000000000
    Total Energy =                       -387.1202507763044878
    Molecular point group: c1
  Basis Set: 6-31G*
  Basis Set:

  -Total Gradient:
     Atom            X                  Y                   Z
    ------   -----------------  -----------------  -----------------
       1        0.000030834193     0.000055188631     0.000000172878
       2        0.000046124696     0.000069089720    -0.000094167661
       3       -0.000101118833     0.000265522772     0.000294481995
       4        0.000006866078    -0.000041593476     0.000020149873
       5        0.000143080582     0.000023532679     0.000007805406
       6        0.000045045775    -0.000138908386    -0.000041037276
       7        0.000005114250    -0.000100985582    -0.000070648713
       8       -0.000098782200    -0.000143239282    -0.000009215856
       9       -0.000084475257     0.000021197276    -0.000033504615
      10       -0.000012943580     0.000022966616    -0.000087877647
      11        0.000055750289     0.000034225600    -0.000004313929
      12       -0.000037588232    -0.000130436288    -0.000030468124
      13       -0.000031152328     0.000013948835     0.000063347884
      14        0.000042473238     0.000029702852    -0.000000877350
      15        0.000011111994    -0.000007878645    -0.000029919786
      16       -0.000012025146     0.000014906974     0.000028730453
      17       -0.000006479507    -0.000010157213    -0.000009556865
      18       -0.000007671533     0.000014206948     0.000000341804
      19        0.000020193010    -0.000007728497    -0.000002348770
      20        0.000002596754     0.000001461891    -0.000006249746
      21        0.000000134683    -0.000006053069     0.000002393510
      22       -0.000007870232     0.000006114502    -0.000003275044
      23       -0.000000810560     0.000003748189     0.000002300111
      24       -0.000004153362     0.000011994592     0.000007710897
      25       -0.000004254771    -0.000000827627    -0.000003973429

  **** Optimization is complete! (in 7 steps) ****
    Final optimized geometry and variables:
    Molecular point group: c1

    Geometry (in Angstrom), charge = 0, multiplicity = 1:

    H            1.631494734111    -2.916753371702     1.436538271857
    C            1.592946396197    -2.918390286206     0.342276653597
    C            2.222207909939    -1.738664190677    -0.363881048659
    O            1.059159986980    -3.812141231243    -0.232568053979
    C            1.167051883554    -0.728079415712    -0.846070845794
    H            2.932637286480    -1.252520018972     0.298629177796
    H            2.766068405810    -2.125242237997    -1.219433538501
    C            0.383408123345    -0.056035933644     0.284633525378
    H            1.671715536333     0.032945455765    -1.434845415864
    H            0.482355743019    -1.239185057806    -1.516368157018
    C           -0.607350951280     0.993482107024    -0.223618121694
    H            1.080726217678     0.412478090382     0.977292691290
    H           -0.158789301260    -0.806932711680     0.856663719893
    C           -1.383870602234     1.674429521063     0.906547243508
    H           -0.066176594933     1.736050105034    -0.804394651341
    H           -1.309840042338     0.520614824575    -0.907774719287
    C           -2.455707905314     2.665815409800     0.439197116943
    H           -0.685146446270     2.187173106452     1.565959390998
    H           -1.863836873249     0.907272791526     1.510647286940
    C           -1.908806727104     3.905474554017    -0.271018590857
    H           -3.029085867403     2.985315499286     1.305849843873
    H           -3.157358982958     2.153730802265    -0.215987441162
    H           -1.194722573247     4.431795374911     0.356851348849
    H           -1.409920015893     3.654587375822    -1.201216921845
    H           -2.710547316160     4.597604145699    -0.509202232643

  Mulliken Charges: (a.u.)
   Center  Symbol    Alpha    Beta     Spin     Total
       1     H     0.42758  0.42758  0.00000  0.14484
       2     C     2.84247  2.84247  0.00000  0.31505
       3     C     3.20162  3.20162  0.00000 -0.40325
       4     O     4.23755  4.23755  0.00000 -0.47511
       5     C     3.15975  3.15975  0.00000 -0.31950
       6     H     0.41658  0.41658  0.00000  0.16683
       7     H     0.39892  0.39892  0.00000  0.20216
       8     C     3.15782  3.15782  0.00000 -0.31563
       9     H     0.41526  0.41526  0.00000  0.16949
      10     H     0.40720  0.40720  0.00000  0.18559
      11     C     3.15417  3.15417  0.00000 -0.30834
      12     H     0.42287  0.42287  0.00000  0.15425
      13     H     0.42011  0.42011  0.00000  0.15978
      14     C     3.15309  3.15309  0.00000 -0.30618
      15     H     0.42070  0.42070  0.00000  0.15861
      16     H     0.42083  0.42083  0.00000  0.15833
      17     C     3.15275  3.15275  0.00000 -0.30551
      18     H     0.42434  0.42434  0.00000  0.15133
      19     H     0.42127  0.42127  0.00000  0.15745
      20     C     3.24143  3.24143  0.00000 -0.48286
      21     H     0.42033  0.42033  0.00000  0.15935
      22     H     0.42230  0.42230  0.00000  0.15541
      23     H     0.42240  0.42240  0.00000  0.15520
      24     H     0.42015  0.42015  0.00000  0.15971
      25     H     0.41850  0.41850  0.00000  0.16300

   Total alpha = 36.00000, Total beta = 36.00000, Total charge = -0.00000
