  ==> Input File <==

--------------------------------------------------------------------------
set {
	reference rhf
	basis 6-31G*
}

set_num_threads( 1 )
memory 2 gb

molecule MOL {
0 1

H	 -3.420663	 1.227371	 -1.044276
O	 -3.452007	 0.283848	 -0.965577
C	 -3.181085	 -0.079926	 0.364119
C	 -1.765924	 0.277073	 0.805136
H	 -3.327791	 -1.152017	 0.410903
H	 -3.905698	 0.375695	 1.036898
C	 -0.677594	 -0.417312	 -0.014550
H	 -1.637766	 1.358238	 0.744969
H	 -1.659588	 0.017670	 1.857098
C	 0.738335	 -0.034840	 0.421385
H	 -0.814977	 -0.178223	 -1.064632
H	 -0.802730	 -1.495410	 0.071702
C	 0.830719	 1.401488	 0.943414
H	 1.072649	 -0.730688	 1.187184
H	 1.420854	 -0.154816	 -0.419077
C	 2.246580	 1.861182	 1.309712
H	 0.182580	 1.510959	 1.811531
H	 0.435580	 2.073500	 0.184414
C	 2.867547	 1.123077	 2.497149
H	 2.215109	 2.923744	 1.538320
H	 2.894231	 1.757544	 0.441375
H	 2.234889	 1.198930	 3.377564
H	 3.835535	 1.544965	 2.749829
H	 3.017594	 0.069210	 2.287356

	symmetry c1
}
set optking {
	frozen_dihedral = ("
		20 16 13 17,
		17 13 10 7,
		11 7 4 3,
		1 2 3 5,
		7 4 3 2
	")
}

ee = energy('scf')
oeprop('DIPOLE', 'QUADRUPOLE', 'MULLIKEN_CHARGES')
f=open( 'psi4out.xyz', 'w' )
f.write( "24  " )
f.write( str(ee) + "\n" )
f.write( MOL.save_string_xyz() )
f.close()
--------------------------------------------------------------------------

    Molecular point group: c1

    Geometry (in Angstrom), charge = 0, multiplicity = 1:

       Center              X                  Y                   Z               Mass
    ------------   -----------------  -----------------  -----------------  -----------------
           H         -3.069662666155     0.671595943358    -1.696720505741     1.007825032070
           O         -3.101006666155    -0.271927056642    -1.618021505741    15.994914619560
           C         -2.830084666155    -0.635701056642    -0.288325505741    12.000000000000
           C         -1.414923666155    -0.278702056642     0.152691494259    12.000000000000
           H         -2.976790666155    -1.707792056642    -0.241541505741     1.007825032070
           H         -3.554697666155    -0.180080056642     0.384453494259     1.007825032070
           C         -0.326593666155    -0.973087056642    -0.666994505741    12.000000000000
           H         -1.286765666155     0.802462943358     0.092524494259     1.007825032070
           H         -1.308587666155    -0.538105056642     1.204653494259     1.007825032070
           C          1.089335333845    -0.590615056642    -0.231059505741    12.000000000000
           H         -0.463976666155    -0.733998056642    -1.717076505741     1.007825032070
           H         -0.451729666155    -2.051185056642    -0.580742505741     1.007825032070
           C          1.181719333845     0.845712943358     0.290969494259    12.000000000000
           H          1.423649333845    -1.286463056642     0.534739494259     1.007825032070
           H          1.771854333845    -0.710591056642    -1.071521505741     1.007825032070
           C          2.597580333845     1.305406943358     0.657267494259    12.000000000000
           H          0.533580333845     0.955183943358     1.159086494259     1.007825032070
           H          0.786580333845     1.517724943358    -0.468030505741     1.007825032070
           C          3.218547333845     0.567301943358     1.844704494259    12.000000000000
           H          2.566109333845     2.367968943358     0.885875494259     1.007825032070
           H          3.245231333845     1.201768943358    -0.211069505741     1.007825032070
           H          2.585889333845     0.643154943358     2.725119494259     1.007825032070
           H          4.186535333845     0.989189943358     2.097384494259     1.007825032070
           H          3.368594333845    -0.486565056642     1.634911494259     1.007825032070

  Charge       = 0
  Multiplicity = 1
  Basis Set: 6-31G*
  Basis Set:

    Orbital Energies (a.u.)
    -----------------------

    Doubly Occupied:

       1A    -20.553021     2A    -11.266625     3A    -11.215712
       4A    -11.214901     5A    -11.213110     6A    -11.211853
       7A    -11.210514     8A    -11.208195     9A     -1.359533
      10A     -1.092672    11A     -1.045694    12A     -0.983427
      13A     -0.916633    14A     -0.854996    15A     -0.813055
      16A     -0.760893    17A     -0.676159    18A     -0.654042
      19A     -0.629537    20A     -0.618442    21A     -0.600610
      22A     -0.575692    23A     -0.568634    24A     -0.539770
      25A     -0.524606    26A     -0.508737    27A     -0.494186
      28A     -0.483638    29A     -0.475370    30A     -0.453122
      31A     -0.445402    32A     -0.438760    33A     -0.424519

  @DF-RHF Final Energy:  -349.23913245130308

   => Energetics <=

    Nuclear Repulsion Energy =            392.8033787096648553
    One-Electron Energy =               -1252.0209295746108182
    Two-Electron Energy =                 509.9784184136437375
    DFT Exchange-Correlation Energy =       0.0000000000000000
    Empirical Dispersion Energy =           0.0000000000000000
    PCM Polarization Energy =               0.0000000000000000
    EFP Energy =                            0.0000000000000000
    Total Energy =                       -349.2391324513021686

  Mulliken Charges: (a.u.)
   Center  Symbol    Alpha    Beta     Spin     Total
       1     H     0.28352  0.28352  0.00000  0.43296
       2     O     4.36838  4.36838  0.00000 -0.73675
       3     C     2.99465  2.99465  0.00000  0.01069
       4     C     3.17614  3.17614  0.00000 -0.35227
       5     H     0.41696  0.41696  0.00000  0.16607
       6     H     0.42861  0.42861  0.00000  0.14277
       7     C     3.15349  3.15349  0.00000 -0.30699
       8     H     0.42321  0.42321  0.00000  0.15357
       9     H     0.42248  0.42248  0.00000  0.15504
      10     C     3.15394  3.15394  0.00000 -0.30787
      11     H     0.41143  0.41143  0.00000  0.17715
      12     H     0.42119  0.42119  0.00000  0.15762
      13     C     3.16064  3.16064  0.00000 -0.32127
      14     H     0.42141  0.42141  0.00000  0.15719
      15     H     0.42091  0.42091  0.00000  0.15819
      16     C     3.15018  3.15018  0.00000 -0.30035
      17     H     0.42085  0.42085  0.00000  0.15830
      18     H     0.42340  0.42340  0.00000  0.15319
      19     C     3.24107  3.24107  0.00000 -0.48213
      20     H     0.42209  0.42209  0.00000  0.15582
      21     H     0.42345  0.42345  0.00000  0.15311
      22     H     0.42304  0.42304  0.00000  0.15391
      23     H     0.41934  0.41934  0.00000  0.16133
      24     H     0.41963  0.41963  0.00000  0.16073

   Total alpha = 33.00000, Total beta = 33.00000, Total charge =  0.00000
