  ==> Input File <==

--------------------------------------------------------------------------
set {
	reference rhf
	basis 6-31G*
}

set_num_threads( 1 )
memory 2 gb

molecule MOL {
0 1

H	 -2.499100	 -0.730091	 -0.745082
O	 -2.347518	 -0.290803	 0.079804
C	 -1.184022	 0.487508	 -0.006784
C	 0.062599	 -0.378592	 0.031606
H	 -1.176523	 1.099369	 -0.904519
H	 -1.187323	 1.153111	 0.844927
O	 1.171513	 0.459272	 -0.058250
H	 0.050699	 -1.089204	 -0.797170
H	 0.078739	 -0.954914	 0.954740
C	 2.140977	 0.240472	 0.917151
H	 2.541942	 -0.769774	 0.860037
H	 2.942297	 0.945639	 0.745314
H	 1.741016	 0.397074	 1.916800

	symmetry c1
}
set optking {
	frozen_dihedral = ("
		8 4 3 5,
		1 2 3 5,
		4 7 10 13
	")
}

ee = energy('scf')
oeprop('DIPOLE', 'QUADRUPOLE', 'MULLIKEN_CHARGES')
f=open( 'psi4out.xyz', 'w' )
f.write( "13  " )
f.write( str(ee) + "\n" )
f.write( MOL.save_string_xyz() )
f.close()
--------------------------------------------------------------------------

    Molecular point group: c1

    Geometry (in Angstrom), charge = 0, multiplicity = 1:

       Center              X                  Y                   Z               Mass
    ------------   -----------------  -----------------  -----------------  -----------------
           H         -2.445660463697    -0.821329557886    -0.936344459610     1.007825032070
           O         -2.294078463697    -0.382041557886    -0.111458459610    15.994914619560
           C         -1.130582463697     0.396269442114    -0.198046459610    12.000000000000
           C          0.116038536303    -0.469830557886    -0.159656459610    12.000000000000
           H         -1.123083463697     1.008130442114    -1.095781459610     1.007825032070
           H         -1.133883463697     1.061872442114     0.653664540390     1.007825032070
           O          1.224952536303     0.368033442114    -0.249512459610    15.994914619560
           H          0.104138536303    -1.180442557886    -0.988432459610     1.007825032070
           H          0.132178536303    -1.046152557886     0.763477540390     1.007825032070
           C          2.194416536303     0.149233442114     0.725888540390    12.000000000000
           H          2.595381536303    -0.861012557886     0.668774540390     1.007825032070
           H          2.995736536303     0.854400442114     0.554051540390     1.007825032070
           H          1.794455536303     0.305835442114     1.725537540390     1.007825032070

  Charge       = 0
  Multiplicity = 1
  Basis Set: 6-31G*
  Basis Set:

    Orbital Energies (a.u.)
    -----------------------

    Doubly Occupied:

       1A    -20.560496     2A    -20.559088     3A    -11.270640
       4A    -11.270168     5A    -11.267646     6A     -1.388533
       7A     -1.364377     8A     -1.016693     9A     -0.916526
      10A     -0.840699    11A     -0.708184    12A     -0.676283
      13A     -0.657394    14A     -0.634991    15A     -0.599029
      16A     -0.575647    17A     -0.531231    18A     -0.495150
      19A     -0.482354    20A     -0.450702    21A     -0.408638

  @DF-RHF Final Energy:  -267.94734378377029

   => Energetics <=

    Nuclear Repulsion Energy =            191.0572361547054072
    One-Electron Energy =                -744.6601381418446408
    Two-Electron Energy =                 285.6555582033691394
    DFT Exchange-Correlation Energy =       0.0000000000000000
    Empirical Dispersion Energy =           0.0000000000000000
    PCM Polarization Energy =               0.0000000000000000
    EFP Energy =                            0.0000000000000000
    Total Energy =                       -267.9473437837701226

  Mulliken Charges: (a.u.)
   Center  Symbol    Alpha    Beta     Spin     Total
       1     H     0.28120  0.28120  0.00000  0.43760
       2     O     4.37127  4.37127  0.00000 -0.74254
       3     C     3.00317  3.00317  0.00000 -0.00634
       4     C     3.00192  3.00192  0.00000 -0.00383
       5     H     0.42184  0.42184  0.00000  0.15631
       6     H     0.41276  0.41276  0.00000  0.17447
       7     O     4.30680  4.30680  0.00000 -0.61361
       8     H     0.42986  0.42986  0.00000  0.14028
       9     H     0.42230  0.42230  0.00000  0.15540
      10     C     3.08211  3.08211  0.00000 -0.16421
      11     H     0.42756  0.42756  0.00000  0.14489
      12     H     0.41169  0.41169  0.00000  0.17663
      13     H     0.42753  0.42753  0.00000  0.14495

   Total alpha = 21.00000, Total beta = 21.00000, Total charge = -0.00000
