  ==> Input File <==

--------------------------------------------------------------------------
set {
	reference rhf
	basis cc-pvtz
}

set_num_threads( 4 )
memory 2 gb

molecule MOL {
0 1

H	 -2.465033	 0.142296	 0.857195
O	 -2.313989	 -0.142475	 -0.025864
C	 -0.943808	 -0.065018	 -0.330000
H	 -0.812293	 -0.225641	 -1.398673
C	 -0.231030	 -1.182113	 0.407592
C	 -0.353797	 1.300461	 0.050970
H	 -0.312800	 -0.992012	 1.473041
H	 -0.738841	 -2.119564	 0.220514
C	 1.246176	 -1.268044	 -0.015480
H	 -0.539537	 2.008579	 -0.751815
H	 -0.889989	 1.662858	 0.920677
C	 1.153605	 1.231851	 0.356834
H	 1.823096	 -1.684665	 0.802361
H	 1.352335	 -1.958223	 -0.845114
C	 1.826409	 0.100723	 -0.416008
H	 1.622968	 2.181508	 0.128734
H	 1.301983	 1.066493	 1.419367
H	 2.897299	 0.112407	 -0.249665
H	 1.683458	 0.265621	 -1.480024

	symmetry c1
}
set optking {
	frozen_dihedral = ("
		1 2 3 4
	")
}

ee = optimize('scf')
oeprop('DIPOLE', 'QUADRUPOLE', 'MULLIKEN_CHARGES')
f=open( 'psi4out.xyz', 'w' )
f.write( "19  " )
f.write( str(ee) + "\n" )
f.write( MOL.save_string_xyz() )
f.close()
--------------------------------------------------------------------------

    Molecular point group: c1
  Charge       = 0
  Multiplicity = 1
  Basis Set: CC-PVTZ
  Basis Set:
  @DF-RHF Final Energy:  -309.16139090782434
    Total Energy =                       -309.1613909078243978
    Molecular point group: c1
  Basis Set: CC-PVTZ
  Basis Set:
  Basis Set: CC-PVTZ
  Basis Set:
  @DF-RHF Final Energy:  -309.16289680694535
    Total Energy =                       -309.1628968069454686
  Basis Set: CC-PVTZ
  Basis Set:
  Basis Set: CC-PVTZ
  Basis Set:
  @DF-RHF Final Energy:  -309.16318581651609
    Total Energy =                       -309.1631858165154654
  Basis Set: CC-PVTZ
  Basis Set:
  Basis Set: CC-PVTZ
  Basis Set:
  @DF-RHF Final Energy:  -309.16318998542044
    Total Energy =                       -309.1631899854206154
  Basis Set: CC-PVTZ
  Basis Set:
  Charge       = 0
  Multiplicity = 1
  Basis Set: CC-PVTZ
  Basis Set:

    Orbital Energies (a.u.)
    -----------------------

    Doubly Occupied:

       1A    -20.542805     2A    -11.267332     3A    -11.216853
       4A    -11.215940     5A    -11.215100     6A    -11.214703
       7A    -11.210263     8A     -1.363372     9A     -1.111522
      10A     -1.005273    11A     -0.989716    12A     -0.847594
      13A     -0.841889    14A     -0.753286    15A     -0.674971
      16A     -0.664862    17A     -0.617239    18A     -0.602056
      19A     -0.580436    20A     -0.563584    21A     -0.532154
      22A     -0.521490    23A     -0.502527    24A     -0.492581
      25A     -0.467342    26A     -0.450811    27A     -0.432194
      28A     -0.409555

  @DF-RHF Final Energy:  -309.16319042534292

   => Energetics <=

    Nuclear Repulsion Energy =            331.8313472054326212
    One-Electron Energy =               -1077.3741728702739238
    Two-Electron Energy =                 436.3796352394981568
    DFT Exchange-Correlation Energy =       0.0000000000000000
    Empirical Dispersion Energy =           0.0000000000000000
    PCM Polarization Energy =               0.0000000000000000
    EFP Energy =                            0.0000000000000000
    Total Energy =                       -309.1631904253431458
    Molecular point group: c1
  Basis Set: CC-PVTZ
  Basis Set:

  -Total Gradient:
     Atom            X                  Y                   Z
    ------   -----------------  -----------------  -----------------
       1       -0.000033554768     0.000761879041    -0.000269386705
       2        0.000048608513    -0.000838672307     0.000294726722
       3        0.000027406360    -0.000619162622     0.000098664691
       4       -0.000020520001     0.000664893549    -0.000093376716
       5       -0.000023890853    -0.000003855541    -0.000024323410
       6        0.000039553017    -0.000007440881     0.000015311479
       7        0.000003633575    -0.000003955023    -0.000017441287
       8        0.000002610080    -0.000011761824     0.000008059529
       9       -0.000022151565    -0.000013086257     0.000047888353
      10        0.000013191977     0.000023440333    -0.000006244616
      11        0.000011881908    -0.000005238218    -0.000008069506
      12       -0.000015661173     0.000033211499    -0.000027468859
      13        0.000010549074    -0.000023493284    -0.000000467270
      14       -0.000012178667     0.000004220709     0.000000612411
      15       -0.000013323761     0.000022562920    -0.000028160517
      16       -0.000000478598     0.000013462110     0.000014010309
      17       -0.000010450011     0.000000272217    -0.000000155604
      18       -0.000013530882    -0.000005050858     0.000002748012
      19        0.000008305779     0.000007774439    -0.000006927013

  **** Optimization is complete! (in 5 steps) ****
    Final optimized geometry and variables:
    Molecular point group: c1

    Geometry (in Angstrom), charge = 0, multiplicity = 1:

    H           -2.539536468102     0.167453623648     0.766471310003
    O           -2.336055342707    -0.106570825733    -0.109801606551
    C           -0.947129065900    -0.067906686844    -0.313313391016
    H           -0.827989631717    -0.218654836342    -1.379524767275
    C           -0.221764989320    -1.189301968966     0.415465277412
    C           -0.355720566949     1.296463792094     0.065276841982
    H           -0.288787335152    -1.009128681412     1.486326049255
    H           -0.727838412364    -2.127659623205     0.227290086768
    C            1.253816649957    -1.268929810992    -0.017819940239
    H           -0.567144482491     2.004814134080    -0.727473210502
    H           -0.871293818131     1.664586945336     0.948472487215
    C            1.156583196764     1.231403981736     0.347254145267
    H            1.842305858009    -1.674707984867     0.797325955525
    H            1.356113725067    -1.964965307976    -0.842831179063
    C            1.819140500975     0.100815362876    -0.435102859702
    H            1.619297665252     2.182025346437     0.110119369810
    H            1.325413960727     1.067585819749     1.407323543128
    H            2.892967789570     0.117759817904    -0.289836621139
    H            1.654297455704     0.261265270595    -1.496398463780

  Mulliken Charges: (a.u.)
   Center  Symbol    Alpha    Beta     Spin     Total
       1     H     0.39588  0.39588  0.00000  0.20824
       2     O     4.20682  4.20682  0.00000 -0.41363
       3     C     2.93659  2.93659  0.00000  0.12682
       4     H     0.44171  0.44171  0.00000  0.11658
       5     C     3.10325  3.10325  0.00000 -0.20651
       6     C     3.11365  3.11365  0.00000 -0.22729
       7     H     0.46104  0.46104  0.00000  0.07792
       8     H     0.43980  0.43980  0.00000  0.12039
       9     C     3.11271  3.11271  0.00000 -0.22542
      10     H     0.44506  0.44506  0.00000  0.10989
      11     H     0.45571  0.45571  0.00000  0.08859
      12     C     3.10015  3.10015  0.00000 -0.20031
      13     H     0.44770  0.44770  0.00000  0.10459
      14     H     0.44602  0.44602  0.00000  0.10797
      15     C     3.10225  3.10225  0.00000 -0.20449
      16     H     0.44170  0.44170  0.00000  0.11660
      17     H     0.45428  0.45428  0.00000  0.09144
      18     H     0.44264  0.44264  0.00000  0.11472
      19     H     0.45304  0.45304  0.00000  0.09391

   Total alpha = 28.00000, Total beta = 28.00000, Total charge = -0.00000
