                              Psi4 1.0.54 Driver

  ==> Input File <==

--------------------------------------------------------------------------
set {
	reference rhf
	basis cc-pvtz
}

set_num_threads( 4 )
memory 2 gb

molecule MOL {
0 1

O	 1.847685	 1.294399	 -0.000190
C	 1.704209	 0.119472	 -0.000093
C	 0.380337	 -0.600947	 -0.000234
O	 2.715427	 -0.733672	 0.000025
C	 -0.824290	 0.329213	 -0.000115
H	 0.371455	 -1.255476	 -0.865660
H	 0.371410	 -1.255787	 0.864952
C	 -2.146151	 -0.432825	 -0.000068
H	 -0.773936	 0.979158	 -0.866319
H	 -0.773838	 0.979034	 0.866186
C	 -3.366283	 0.483552	 0.000557
H	 -2.189286	 -1.084450	 -0.869996
H	 -2.188867	 -1.085083	 0.869399
C	 -3.908299	 0.760351	 -1.397661
H	 -3.107577	 1.423593	 0.479673
H	 -4.148293	 0.037832	 0.608796
H	 -3.159405	 1.238185	 -2.020610
H	 -4.772718	 1.413181	 -1.361234
H	 -4.208721	 -0.158489	 -1.890322
C	 4.020999	 -0.192556	 0.000019
H	 4.182809	 0.412891	 -0.879449
H	 4.692590	 -1.035653	 0.000152
H	 4.182726	 0.413087	 0.879368

	symmetry c1
}
set optking {
	frozen_dihedral = ("
		15 11 8 12
	")
}

ee,wfn = optimize('scf', return_wfn=True)
oeprop( wfn, 'DIPOLE', 'QUADRUPOLE', 'MULLIKEN_CHARGES')
f=open( 'psi4out.xyz', 'w' )
f.write( "23  " )
f.write( str(ee) + "\n" )
f.write( MOL.save_string_xyz() )
f.close()
--------------------------------------------------------------------------

    Molecular point group: c1
  Charge       = 0
  Multiplicity = 1
  Basis Set: CC-PVTZ
  Basis Set:
  @DF-RHF Final Energy:  -423.12715376380930
    Total Energy =                       -423.1271537638087921
    Molecular point group: c1
  Basis Set: CC-PVTZ
  Basis Set:
  Basis Set: CC-PVTZ
  Basis Set:
  @DF-RHF Final Energy:  -423.12739725512557
    Total Energy =                       -423.1273972551250608
  Basis Set: CC-PVTZ
  Basis Set:
  Basis Set: CC-PVTZ
  Basis Set:
  @DF-RHF Final Energy:  -423.12748522019433
    Total Energy =                       -423.1274852201942167
  Basis Set: CC-PVTZ
  Basis Set:
  Basis Set: CC-PVTZ
  Basis Set:
  @DF-RHF Final Energy:  -423.12717303931760
    Total Energy =                       -423.1271730393168582
  Basis Set: CC-PVTZ
  Basis Set:
  Basis Set: CC-PVTZ
  Basis Set:
  @DF-RHF Final Energy:  -423.12749531149689
    Total Energy =                       -423.1274953114964319
  Basis Set: CC-PVTZ
  Basis Set:
  Charge       = 0
  Multiplicity = 1
  Basis Set: CC-PVTZ
  Basis Set:

    Orbital Energies (a.u.)
    -----------------------

    Doubly Occupied:

       1A    -20.596344     2A    -20.534170     3A    -11.364615
       4A    -11.278502     5A    -11.233628     6A    -11.217248
       7A    -11.215799     8A    -11.214509     9A    -11.207264
      10A     -1.472206    11A     -1.365814    12A     -1.093955
      13A     -1.043253    14A     -0.986874    15A     -0.931787
      16A     -0.849842    17A     -0.790640    18A     -0.769572
      19A     -0.698876    20A     -0.686601    21A     -0.675989
      22A     -0.644127    23A     -0.617350    24A     -0.598157
      25A     -0.586475    26A     -0.564596    27A     -0.535870
      28A     -0.530531    29A     -0.522988    30A     -0.506379
      31A     -0.493858    32A     -0.468379    33A     -0.463216
      34A     -0.461916    35A     -0.456716    36A     -0.438353

  @DF-RHF Final Energy:  -423.12749578493720

   => Energetics <=

    Nuclear Repulsion Energy =            456.3687657701835860
    One-Electron Energy =               -1480.7597210724813976
    Two-Electron Energy =                 601.2634595173606158
    DFT Exchange-Correlation Energy =       0.0000000000000000
    Empirical Dispersion Energy =           0.0000000000000000
    PCM Polarization Energy =               0.0000000000000000
    EFP Energy =                            0.0000000000000000
    Total Energy =                       -423.1274957849370821
    Molecular point group: c1
  Basis Set: CC-PVTZ
  Basis Set:

  -Total Gradient:
     Atom            X                  Y                   Z
    ------   -----------------  -----------------  -----------------
       1       -0.000065858468     0.000058616832     0.000006495958
       2        0.000021137589     0.000000118827     0.000000715201
       3        0.000040711989    -0.000003391003    -0.000030966733
       4        0.000015814457    -0.000082007192    -0.000009277142
       5       -0.000031184134    -0.000013498623     0.000034415955
       6        0.000010705969     0.000000038613     0.000011991761
       7        0.000005708919     0.000004631223     0.000010223148
       8       -0.001842316332    -0.002443007624     0.001447054149
       9       -0.000003791780     0.000006265591    -0.000002590610
      10        0.000000710647     0.000006211917    -0.000008027642
      11       -0.000881625661    -0.000929326614     0.003133200028
      12        0.001707279437     0.002179529245    -0.001707720820
      13        0.000022042364     0.000005836121    -0.000010978718
      14       -0.000008758427     0.000006205092     0.000029260120
      15        0.001011361550     0.001182304907    -0.002871436176
      16        0.000010218013     0.000012799822    -0.000007722295
      17       -0.000000205487     0.000009182089    -0.000005742164
      18       -0.000013075272     0.000001577367    -0.000014838472
      19        0.000013038241    -0.000005588756    -0.000005916305
      20       -0.000009618348     0.000019057059     0.000003291858
      21        0.000004516851    -0.000003089629     0.000002352654
      22       -0.000010582115    -0.000009234055    -0.000000559241
      23        0.000003769995    -0.000003231206    -0.000003224513

  **** Optimization is complete! (in 6 steps) ****
    Final optimized geometry and variables:
    Molecular point group: c1

    Geometry (in Angstrom), charge = 0, multiplicity = 1:

    O            1.749579462374     1.174646853772     0.188053741369
    C            1.608308911021    -0.000454390871     0.168985497840
    C            0.285723239169    -0.723045839773     0.161592862836
    O            2.621019201937    -0.851710950424     0.150442317053
    C           -0.920237049590     0.204761511170     0.188788014526
    H            0.273196423009    -1.359149375236    -0.717416710017
    H            0.282744407800    -1.396196215327     1.012760528280
    C           -2.242803320150    -0.561637265684     0.191075507395
    H           -0.876591391473     0.870352397668    -0.665697621904
    H           -0.863753945834     0.838547330747     1.066230740627
    C           -3.470772308834     0.360159524012     0.140083636049
    H           -2.256310698812    -1.223407987995    -0.671178163921
    H           -2.285099849611    -1.191787548238     1.073804282453
    C           -3.946665391563     0.650127597431    -1.282405824118
    H           -3.228667472552     1.305433484878     0.615962567616
    H           -4.287470148629    -0.077819600176     0.702683819677
    H           -3.157713614152     1.092560360003    -1.881197615406
    H           -4.783341476699     1.339441521084    -1.282281615996
    H           -4.266931774492    -0.259623380736    -1.779071859859
    C            3.925623634564    -0.308487567308     0.153867871347
    H            4.082795713040     0.311835207808    -0.716037542593
    H            4.598540527748    -1.150381148979     0.136986751330
    H            4.090326178315     0.282612527422     1.042520777091

  Mulliken Charges: (a.u.)
   Center  Symbol    Alpha    Beta     Spin     Total
       1     O     4.19707  4.19707  0.00000 -0.39414
       2     C     2.80601  2.80601  0.00000  0.38797
       3     C     3.10289  3.10289  0.00000 -0.20577
       4     O     4.14645  4.14645  0.00000 -0.29290
       5     C     3.08453  3.08453  0.00000 -0.16905
       6     H     0.43971  0.43971  0.00000  0.12058
       7     H     0.43975  0.43975  0.00000  0.12049
       8     C     3.09725  3.09725  0.00000 -0.19451
       9     H     0.44565  0.44565  0.00000  0.10871
      10     H     0.44615  0.44615  0.00000  0.10771
      11     C     3.09090  3.09090  0.00000 -0.18181
      12     H     0.45688  0.45688  0.00000  0.08623
      13     H     0.44791  0.44791  0.00000  0.10419
      14     C     3.14816  3.14816  0.00000 -0.29631
      15     H     0.45347  0.45347  0.00000  0.09306
      16     H     0.44731  0.44731  0.00000  0.10538
      17     H     0.45427  0.45427  0.00000  0.09147
      18     H     0.44816  0.44816  0.00000  0.10368
      19     H     0.45569  0.45569  0.00000  0.08862
      20     C     3.03775  3.03775  0.00000 -0.07550
      21     H     0.45436  0.45436  0.00000  0.09129
      22     H     0.44534  0.44534  0.00000  0.10933
      23     H     0.45435  0.45435  0.00000  0.09130

   Total alpha = 36.00000, Total beta = 36.00000, Total charge = -0.00000

*** Psi4 exiting successfully. Buy a developer a beer!
