  ==> Input File <==

--------------------------------------------------------------------------
set {
	reference rhf
	basis 6-31G*
}

set_num_threads( 1 )
memory 2 gb

molecule MOL {
0 1

H	 1.690057	 -1.636218	 0.452907
O	 2.016064	 -0.864478	 0.000222
C	 1.050492	 0.053836	 0.000068
C	 -0.318135	 -0.576402	 0.000164
O	 1.285279	 1.218255	 -0.000078
C	 -1.454360	 0.441875	 -0.000474
H	 -0.374042	 -1.230163	 -0.866135
H	 -0.374274	 -1.229227	 0.867154
C	 -2.826123	 -0.230780	 0.000056
H	 -1.357605	 1.085198	 -0.868380
H	 -1.357504	 1.086451	 0.866496
H	 -2.959731	 -0.858053	 -0.876869
H	 -3.619374	 0.509403	 -0.000080
H	 -2.959371	 -0.857318	 0.877556

	symmetry c1
}
set optking {
	frozen_dihedral = ("
		7 4 6 10,
		2 3 4 7
	")
}

ee = energy('scf')
oeprop('DIPOLE', 'QUADRUPOLE', 'MULLIKEN_CHARGES')
f=open( 'psi4out.xyz', 'w' )
f.write( "14  " )
f.write( str(ee) + "\n" )
f.write( MOL.save_string_xyz() )
f.close()
--------------------------------------------------------------------------

    Molecular point group: c1

    Geometry (in Angstrom), charge = 0, multiplicity = 1:

       Center              X                  Y                   Z               Mass
    ------------   -----------------  -----------------  -----------------  -----------------
           H          1.703380563403    -1.622210006389     0.447725288794     1.007825032070
           O          2.029387563403    -0.850470006389    -0.004959711206    15.994914619560
           C          1.063815563403     0.067843993611    -0.005113711206    12.000000000000
           C         -0.304811436597    -0.562394006389    -0.005017711206    12.000000000000
           O          1.298602563403     1.232262993611    -0.005259711206    15.994914619560
           C         -1.441036436597     0.455882993611    -0.005655711206    12.000000000000
           H         -0.360718436597    -1.216155006389    -0.871316711206     1.007825032070
           H         -0.360950436597    -1.215219006389     0.861972288794     1.007825032070
           C         -2.812799436597    -0.216772006389    -0.005125711206    12.000000000000
           H         -1.344281436597     1.099205993611    -0.873561711206     1.007825032070
           H         -1.344180436597     1.100458993611     0.861314288794     1.007825032070
           H         -2.946407436597    -0.844045006389    -0.882050711206     1.007825032070
           H         -3.606050436597     0.523410993611    -0.005261711206     1.007825032070
           H         -2.946047436597    -0.843310006389     0.872374288794     1.007825032070

  Charge       = 0
  Multiplicity = 1
  Basis Set: 6-31G*
  Basis Set:

    Orbital Energies (a.u.)
    -----------------------

    Doubly Occupied:

       1A    -20.612277     2A    -20.552427     3A    -11.381425
       4A    -11.251962     5A    -11.231852     6A    -11.222451
       7A     -1.470889     8A     -1.371355     9A     -1.089512
      10A     -0.980870    11A     -0.851714    12A     -0.817530
      13A     -0.720902    14A     -0.676146    15A     -0.661262
      16A     -0.626944    17A     -0.586842    18A     -0.582419
      19A     -0.552917    20A     -0.508924    21A     -0.497201
      22A     -0.489623    23A     -0.477416    24A     -0.441847

  @DF-RHF Final Energy:  -305.86530692478595

   => Energetics <=

    Nuclear Repulsion Energy =            240.3640380372378615
    One-Electron Energy =                -893.1452589289181105
    Two-Electron Energy =                 346.9159139668942089
    DFT Exchange-Correlation Energy =       0.0000000000000000
    Empirical Dispersion Energy =           0.0000000000000000
    PCM Polarization Energy =               0.0000000000000000
    EFP Energy =                            0.0000000000000000
    Total Energy =                       -305.8653069247860685

  Mulliken Charges: (a.u.)
   Center  Symbol    Alpha    Beta     Spin     Total
       1     H     0.26857  0.26857  0.00000  0.46286
       2     O     4.34946  4.34946  0.00000 -0.69891
       3     C     2.60952  2.60952  0.00000  0.78096
       4     C     3.23369  3.23369  0.00000 -0.46738
       5     O     4.26458  4.26458  0.00000 -0.52915
       6     C     3.15157  3.15157  0.00000 -0.30314
       7     H     0.39750  0.39750  0.00000  0.20500
       8     H     0.41163  0.41163  0.00000  0.17674
       9     C     3.24356  3.24356  0.00000 -0.48712
      10     H     0.40645  0.40645  0.00000  0.18709
      11     H     0.40815  0.40815  0.00000  0.18370
      12     H     0.42070  0.42070  0.00000  0.15859
      13     H     0.41283  0.41283  0.00000  0.17434
      14     H     0.42179  0.42179  0.00000  0.15643

   Total alpha = 24.00000, Total beta = 24.00000, Total charge = -0.00000
