  ==> Input File <==

--------------------------------------------------------------------------
set {
	reference rhf
	basis 6-31G*
}

set_num_threads( 4 )
memory 2 gb

molecule MOL {
0 1

O	 -0.625656	 -1.379326	 -0.302102
C	 0.477179	 -1.295955	 0.133631
C	 1.245376	 -0.013843	 0.345420
O	 1.194463	 -2.350926	 0.499924
C	 0.455112	 1.231400	 -0.050772
H	 1.545032	 0.009123	 1.387950
H	 2.166555	 -0.090952	 -0.226576
C	 -0.998893	 1.219485	 0.433193
H	 0.482531	 1.345121	 -1.130325
H	 0.957290	 2.103070	 0.354729
C	 -1.883438	 0.145884	 -0.207175
H	 -1.431207	 2.195402	 0.224832
H	 -1.019646	 1.105716	 1.516076
C	 -3.347647	 0.245583	 0.225435
H	 -1.822183	 0.231698	 -1.291012
H	 -1.510341	 -0.844814	 0.042401
C	 -4.239992	 -0.825570	 -0.404234
H	 -3.732888	 1.230466	 -0.033079
H	 -3.408585	 0.170602	 1.310038
C	 -5.701275	 -0.716658	 0.029921
H	 -4.179496	 -0.752714	 -1.488058
H	 -3.859041	 -1.810759	 -0.143352
H	 -6.308102	 -1.488908	 -0.432678
H	 -6.122175	 0.245478	 -0.248167
H	 -5.799072	 -0.820114	 1.106957
C	 0.589475	 -3.622397	 0.350807
H	 -0.310299	 -3.687288	 0.945534
H	 1.318605	 -4.338562	 0.696471
H	 0.344533	 -3.807700	 -0.685148

	symmetry c1
}
set optking {
	frozen_dihedral = ("
		6 3 5 9
	")
}

ee = optimize('scf')
oeprop('DIPOLE', 'QUADRUPOLE', 'MULLIKEN_CHARGES')
f=open( 'psi4out.xyz', 'w' )
f.write( "29  " )
f.write( str(ee) + "\n" )
f.write( MOL.save_string_xyz() )
f.close()
--------------------------------------------------------------------------

    Molecular point group: c1
  Charge       = 0
  Multiplicity = 1
  Basis Set: 6-31G*
  Basis Set:
  @DF-RHF Final Energy:  -500.84960712153941
    Total Energy =                       -500.8496071215387246
    Molecular point group: c1
  Basis Set: 6-31G*
  Basis Set:
  Basis Set: 6-31G*
  Basis Set:
  @DF-RHF Final Energy:  -500.95384098021998
    Total Energy =                       -500.9538409802199794
  Basis Set: 6-31G*
  Basis Set:
  Basis Set: 6-31G*
  Basis Set:
  @DF-RHF Final Energy:  -500.99272455056200
    Total Energy =                       -500.9927245505625706
  Basis Set: 6-31G*
  Basis Set:
  Basis Set: 6-31G*
  Basis Set:
  @DF-RHF Final Energy:  -501.01692303107041
    Total Energy =                       -501.0169230310699504
  Basis Set: 6-31G*
  Basis Set:
  @DF-RHF Final Energy:  -501.02678967403165
    Total Energy =                       -501.0267896740318747
  @DF-RHF Final Energy:  -501.03197737187111
    Total Energy =                       -501.0319773718701981
  @DF-RHF Final Energy:  -501.03451311929575
    Total Energy =                       -501.0345131192963208
  @DF-RHF Final Energy:  -501.03586619104965
    Total Energy =                       -501.0358661910487399
  @DF-RHF Final Energy:  -501.03645670500873
    Total Energy =                       -501.0364567050086180
  @DF-RHF Final Energy:  -501.03688754939651
    Total Energy =                       -501.0368875493963969
  @DF-RHF Final Energy:  -501.03712279356739
    Total Energy =                       -501.0371227935675051
  @DF-RHF Final Energy:  -501.03721591018177
    Total Energy =                       -501.0372159101818852
  @DF-RHF Final Energy:  -501.03726421920453
    Total Energy =                       -501.0372642192046442
  @DF-RHF Final Energy:  -501.03732313959506
    Total Energy =                       -501.0373231395944913
  @DF-RHF Final Energy:  -501.03743406403157
    Total Energy =                       -501.0374340640319133
  @DF-RHF Final Energy:  -501.03751934818820
    Total Energy =                       -501.0375193481884253
  @DF-RHF Final Energy:  -501.03757804787176
    Total Energy =                       -501.0375780478707384
  @DF-RHF Final Energy:  -501.03759101965079
    Total Energy =                       -501.0375910196507903
  @DF-RHF Final Energy:  -501.03760211612553
    Total Energy =                       -501.0376021161259814
  @DF-RHF Final Energy:  -501.03762869539980
    Total Energy =                       -501.0376286953990075
  @DF-RHF Final Energy:  -501.03765882267180
    Total Energy =                       -501.0376588226714603
  Basis Set: 6-31G*
  Basis Set:
  @DF-RHF Final Energy:  -501.03766231106806
    Total Energy =                       -501.0376623110684022
  Basis Set: 6-31G*
  Basis Set:
  Basis Set: 6-31G*
  Basis Set:
  @DF-RHF Final Energy:  -501.03766365420279
    Total Energy =                       -501.0376636542018787
  Basis Set: 6-31G*
  Basis Set:
  Basis Set: 6-31G*
  Basis Set:
  @DF-RHF Final Energy:  -501.03766510931848
    Total Energy =                       -501.0376651093175724
  Basis Set: 6-31G*
  Basis Set:
  Charge       = 0
  Multiplicity = 1
  Basis Set: 6-31G*
  Basis Set:

    Orbital Energies (a.u.)
    -----------------------

    Doubly Occupied:

       1A    -20.607477     2A    -20.543836     3A    -11.373279
       4A    -11.282009     5A    -11.234659     6A    -11.225788
       7A    -11.216594     8A    -11.210511     9A    -11.208862
      10A    -11.206158    11A    -11.205258    12A     -1.471238
      13A     -1.362808    14A     -1.093313    15A     -1.063772
      16A     -1.015896    17A     -0.976904    18A     -0.926751
      19A     -0.858232    20A     -0.803117    21A     -0.785713
      22A     -0.766458    23A     -0.697227    24A     -0.682529
      25A     -0.672636    26A     -0.647539    27A     -0.615739
      28A     -0.614292    29A     -0.587808    30A     -0.576754
      31A     -0.564201    32A     -0.547365    33A     -0.539356
      34A     -0.527124    35A     -0.515961    36A     -0.506399
      37A     -0.498351    38A     -0.474713    39A     -0.467111
      40A     -0.461916    41A     -0.457511    42A     -0.445288
      43A     -0.442569    44A     -0.427593

  @DF-RHF Final Energy:  -501.03766584019729

   => Energetics <=

    Nuclear Repulsion Energy =            638.6070267885355634
    One-Electron Energy =               -1948.4721587864125922
    Two-Electron Energy =                 808.8274661576799645
    DFT Exchange-Correlation Energy =       0.0000000000000000
    Empirical Dispersion Energy =           0.0000000000000000
    PCM Polarization Energy =               0.0000000000000000
    EFP Energy =                            0.0000000000000000
    Total Energy =                       -501.0376658401971781
    Molecular point group: c1
  Basis Set: 6-31G*
  Basis Set:

  -Total Gradient:
     Atom            X                  Y                   Z
    ------   -----------------  -----------------  -----------------
       1       -0.000038553360     0.000025523805     0.000010483381
       2        0.000045028854     0.000002474386    -0.000008304796
       3       -0.003224058377    -0.002484198629     0.002016283828
       4        0.000015453887    -0.000049219577     0.000064719273
       5       -0.002955892529    -0.003139777284    -0.000141119530
       6        0.003127256194     0.002586453701    -0.001684622512
       7        0.000021887277    -0.000012681442     0.000000182430
       8       -0.000037609767    -0.000000851474     0.000011118376
       9        0.003096459583     0.003015465769    -0.000217322360
      10       -0.000012746551    -0.000001293653    -0.000000498914
      11       -0.000068788789     0.000040058106     0.000043609065
      12        0.000009278556     0.000003241143     0.000002691109
      13       -0.000007727974    -0.000007723617    -0.000015697622
      14        0.000019178237    -0.000009323746    -0.000015733935
      15        0.000003258315     0.000000630478     0.000000560062
      16        0.000005810966     0.000001342811    -0.000049565387
      17       -0.000005730732    -0.000007068113     0.000002258267
      18       -0.000002626697    -0.000000178008     0.000005328488
      19       -0.000006039910    -0.000004484123    -0.000000116586
      20       -0.000000539244     0.000006209708    -0.000002896552
      21        0.000002200229    -0.000001552817    -0.000001074133
      22        0.000000956825    -0.000000983615     0.000003449440
      23       -0.000001797166     0.000001175743    -0.000000338262
      24       -0.000000039243    -0.000000357932     0.000001724600
      25        0.000000234817    -0.000000196951    -0.000001865875
      26        0.000032053369     0.000037920842    -0.000033926377
      27       -0.000011320223    -0.000003996581     0.000002006085
      28       -0.000001932008     0.000014368219     0.000003752272
      29       -0.000003654549    -0.000010977140     0.000004916159

  **** Optimization is complete! (in 25 steps) ****
    Final optimized geometry and variables:
    Molecular point group: c1

    Geometry (in Angstrom), charge = 0, multiplicity = 1:

    O            1.520964890048    -1.152366689759    -1.121478562899
    C            2.024509868950    -0.712157633046    -0.136622448647
    C            2.488417344255     0.715665510144     0.016377093945
    O            2.262231610873    -1.442757385870     0.942361644726
    C            1.426924895312     1.774639601242    -0.324336923706
    H            2.887435196085     0.877888619357     1.009232251624
    H            3.323645407401     0.830120683650    -0.670200880171
    C            0.069225805898     1.612876871967     0.391312740237
    H            1.300027467361     1.823638780197    -1.400440547331
    H            1.863855786265     2.729571877338    -0.046763881007
    C           -1.049667536264     1.052456871297    -0.493262605065
    H           -0.247760821787     2.580635079567     0.770908693734
    H            0.191370775841     0.980388927852     1.269245753201
    C           -2.370399112166     0.879887073717     0.258532998768
    H           -1.201002858567     1.728527060511    -1.333191609755
    H           -0.743716702184     0.102852996557    -0.919008283778
    C           -3.502016138996     0.349488310794    -0.623845122481
    H           -2.670406826715     1.833450477379     0.691144808416
    H           -2.222407079492     0.200149142941     1.096657983326
    C           -4.818163947452     0.173182982488     0.132765821514
    H           -3.654962481004     1.029176089751    -1.459431482120
    H           -3.203717200713    -0.602649954138    -1.056911073350
    H           -5.600397910296    -0.202910848451    -0.519528995809
    H           -5.160479545149     1.116298080585     0.549719048596
    H           -4.707184287131    -0.528950367739     0.954467378939
    C            1.898476989152    -2.810606531273     0.884603057884
    H            0.835546131000    -2.913689007619     0.720627792145
    H            2.172305919023    -3.228816057004     1.840563472040
    H            2.430980195210    -3.311560659810     0.089161562310

  Mulliken Charges: (a.u.)
   Center  Symbol    Alpha    Beta     Spin     Total
       1     O     4.28838  4.28838  0.00000 -0.57676
       2     C     2.60493  2.60493  0.00000  0.79014
       3     C     3.20909  3.20909  0.00000 -0.41817
       4     O     4.30373  4.30373  0.00000 -0.60745
       5     C     3.15631  3.15631  0.00000 -0.31261
       6     H     0.40054  0.40054  0.00000  0.19891
       7     H     0.40029  0.40029  0.00000  0.19942
       8     C     3.16508  3.16508  0.00000 -0.33016
       9     H     0.40778  0.40778  0.00000  0.18445
      10     H     0.41561  0.41561  0.00000  0.16878
      11     C     3.15916  3.15916  0.00000 -0.31832
      12     H     0.41860  0.41860  0.00000  0.16280
      13     H     0.42035  0.42035  0.00000  0.15930
      14     C     3.15140  3.15140  0.00000 -0.30279
      15     H     0.42459  0.42459  0.00000  0.15081
      16     H     0.40379  0.40379  0.00000  0.19242
      17     C     3.15135  3.15135  0.00000 -0.30271
      18     H     0.42592  0.42592  0.00000  0.14815
      19     H     0.42585  0.42585  0.00000  0.14830
      20     C     3.23908  3.23908  0.00000 -0.47816
      21     H     0.42321  0.42321  0.00000  0.15358
      22     H     0.42121  0.42121  0.00000  0.15757
      23     H     0.41975  0.41975  0.00000  0.16049
      24     H     0.42255  0.42255  0.00000  0.15490
      25     H     0.42268  0.42268  0.00000  0.15463
      26     C     3.09361  3.09361  0.00000 -0.18722
      27     H     0.40880  0.40880  0.00000  0.18240
      28     H     0.40804  0.40804  0.00000  0.18392
      29     H     0.40832  0.40832  0.00000  0.18337

   Total alpha = 44.00000, Total beta = 44.00000, Total charge =  0.00000
