                              Psi4 1.0.54 Driver

  ==> Input File <==

--------------------------------------------------------------------------
set {
	reference rhf
	basis cc-pvtz
}

set_num_threads( 4 )
memory 2 gb

molecule MOL {
0 1

H	 3.756569	 -0.827970	 0.199341
O	 2.860539	 -1.044395	 0.409070
C	 2.076458	 -0.067370	 -0.038225
C	 0.626018	 -0.337582	 0.258241
O	 2.510284	 0.880577	 -0.595929
C	 -0.267326	 0.883135	 0.076490
H	 0.325620	 -1.161483	 -0.378003
H	 0.574537	 -0.713685	 1.275261
C	 -1.726822	 0.642622	 0.463839
H	 -0.210803	 1.217591	 -0.953497
H	 0.129920	 1.693110	 0.675679
C	 -2.480891	 -0.340606	 -0.429852
H	 -2.243098	 1.597649	 0.438609
H	 -1.776542	 0.301208	 1.495542
C	 -3.955933	 -0.460128	 -0.060472
H	 -2.393755	 -0.020485	 -1.464726
H	 -2.024244	 -1.323637	 -0.374360
H	 -4.467673	 -1.160944	 -0.709827
H	 -4.458917	 0.497287	 -0.144505
H	 -4.076458	 -0.806900	 0.960497

	symmetry c1
}
set optking {
	frozen_dihedral = ("
		5 3 4 7
	")
}

ee,wfn = optimize('scf', return_wfn=True)
oeprop( wfn, 'DIPOLE', 'QUADRUPOLE', 'MULLIKEN_CHARGES')
f=open( 'psi4out.xyz', 'w' )
f.write( "20  " )
f.write( str(ee) + "\n" )
f.write( MOL.save_string_xyz() )
f.close()
--------------------------------------------------------------------------

    Molecular point group: c1
  Charge       = 0
  Multiplicity = 1
  Basis Set: CC-PVTZ
  Basis Set:
  @DF-RHF Final Energy:  -384.09477765534808
    Total Energy =                       -384.0947776553482527
    Molecular point group: c1
  Basis Set: CC-PVTZ
  Basis Set:
  Basis Set: CC-PVTZ
  Basis Set:
  @DF-RHF Final Energy:  -384.09421328727609
    Total Energy =                       -384.0942132872759203
  Basis Set: CC-PVTZ
  Basis Set:
  Basis Set: CC-PVTZ
  Basis Set:
  @DF-RHF Final Energy:  -384.09484296010942
    Total Energy =                       -384.0948429601096450
  Basis Set: CC-PVTZ
  Basis Set:
  Basis Set: CC-PVTZ
  Basis Set:
  @DF-RHF Final Energy:  -384.09487568058472
    Total Energy =                       -384.0948756805843232
  Basis Set: CC-PVTZ
  Basis Set:
  Basis Set: CC-PVTZ
  Basis Set:
  @DF-RHF Final Energy:  -384.09487409039883
    Total Energy =                       -384.0948740903984344
  Basis Set: CC-PVTZ
  Basis Set:
  Charge       = 0
  Multiplicity = 1
  Basis Set: CC-PVTZ
  Basis Set:

    Orbital Energies (a.u.)
    -----------------------

    Doubly Occupied:

       1A    -20.604020     2A    -20.540121     3A    -11.373370
       4A    -11.238613     5A    -11.221369     6A    -11.218851
       7A    -11.218235     8A    -11.210575     9A     -1.477446
      10A     -1.368811    11A     -1.097609    12A     -1.042214
      13A     -0.962461    14A     -0.870225    15A     -0.818241
      16A     -0.778105    17A     -0.703699    18A     -0.692872
      19A     -0.666795    20A     -0.636197    21A     -0.605995
      22A     -0.596618    23A     -0.576960    24A     -0.557251
      25A     -0.540651    26A     -0.513816    27A     -0.496090
      28A     -0.484780    29A     -0.471459    30A     -0.468245
      31A     -0.459066    32A     -0.445493

  @DF-RHF Final Energy:  -384.09487675105891

   => Energetics <=

    Nuclear Repulsion Energy =            376.6034551447605736
    One-Electron Energy =               -1269.4841564817472772
    Two-Electron Energy =                 508.7858245859282533
    DFT Exchange-Correlation Energy =       0.0000000000000000
    Empirical Dispersion Energy =           0.0000000000000000
    PCM Polarization Energy =               0.0000000000000000
    EFP Energy =                            0.0000000000000000
    Total Energy =                       -384.0948767510584503
    Molecular point group: c1
  Basis Set: CC-PVTZ
  Basis Set:

  -Total Gradient:
     Atom            X                  Y                   Z
    ------   -----------------  -----------------  -----------------
       1       -0.000008368118    -0.000022968072     0.000011699554
       2        0.000060197543     0.000029158614    -0.000019300221
       3        0.000031087178     0.000616742762     0.000764799233
       4        0.000161130874    -0.000622954618     0.000221325797
       5       -0.000053725357    -0.000386151739    -0.000556128691
       6       -0.000020286259    -0.000017367376    -0.000006299143
       7       -0.000187780395     0.000412403532    -0.000414114144
       8        0.000011329847    -0.000010985685     0.000007502742
       9        0.000007080244    -0.000006787724     0.000002376880
      10       -0.000005262890     0.000012637511    -0.000016794177
      11        0.000010067318    -0.000013706224     0.000004719754
      12       -0.000003167507     0.000008829529    -0.000014573082
      13       -0.000003212120     0.000007845346    -0.000000632145
      14        0.000002905597    -0.000001425316     0.000011807589
      15        0.000003354152    -0.000004449614     0.000008132251
      16       -0.000000002131     0.000001709816    -0.000006388225
      17       -0.000000312928    -0.000002295903     0.000004078023
      18       -0.000001342419    -0.000004650577    -0.000002334002
      19       -0.000001895169     0.000005542444    -0.000003193744
      20       -0.000001797450    -0.000001126708     0.000003315750

  **** Optimization is complete! (in 6 steps) ****
    Final optimized geometry and variables:
    Molecular point group: c1

    Geometry (in Angstrom), charge = 0, multiplicity = 1:

    H            3.746488054405    -0.875994800320     0.077737521605
    O            2.856848450686    -1.082065940598     0.322414515042
    C            2.073099866079    -0.076519799122    -0.056719698604
    C            0.626304616405    -0.344684610821     0.259207864699
    O            2.501275019620     0.885025284400    -0.595412571334
    C           -0.264002600929     0.881827269476     0.096186713697
    H            0.319716347878    -1.149117318518    -0.400653125296
    H            0.573692213759    -0.743035282436     1.266009289160
    C           -1.724207102308     0.639081824270     0.479604467460
    H           -0.204406400630     1.232901394713    -0.927316248796
    H            0.133822659538     1.681274686962     0.710394460833
    C           -2.481140959274    -0.325205824564    -0.432237522138
    H           -2.237280797045     1.596164434227     0.471472804013
    H           -1.775573552711     0.279227392698     1.504941279822
    C           -3.955457616714    -0.451255864310    -0.061740575428
    H           -2.396000076960     0.015576327550    -1.460639469392
    H           -2.025233920685    -1.309568596875    -0.397503160061
    H           -4.468438036735    -1.141073356267    -0.721811767119
    H           -4.458820137806     0.507330514407    -0.128544914898
    H           -4.073871968394    -0.815306157243     0.953464318720

  Mulliken Charges: (a.u.)
   Center  Symbol    Alpha    Beta     Spin     Total
       1     H     0.38215  0.38215  0.00000  0.23570
       2     O     4.15998  4.15998  0.00000 -0.31996
       3     C     2.80483  2.80483  0.00000  0.39035
       4     C     3.10960  3.10960  0.00000 -0.21921
       5     O     4.19197  4.19197  0.00000 -0.38395
       6     C     3.09313  3.09313  0.00000 -0.18627
       7     H     0.43885  0.43885  0.00000  0.12231
       8     H     0.43670  0.43670  0.00000  0.12659
       9     C     3.09882  3.09882  0.00000 -0.19765
      10     H     0.44321  0.44321  0.00000  0.11359
      11     H     0.44177  0.44177  0.00000  0.11647
      12     C     3.08700  3.08700  0.00000 -0.17400
      13     H     0.44561  0.44561  0.00000  0.10878
      14     H     0.45412  0.45412  0.00000  0.09177
      15     C     3.14956  3.14956  0.00000 -0.29911
      16     H     0.45205  0.45205  0.00000  0.09590
      17     H     0.45452  0.45452  0.00000  0.09097
      18     H     0.44769  0.44769  0.00000  0.10462
      19     H     0.45359  0.45359  0.00000  0.09281
      20     H     0.45485  0.45485  0.00000  0.09031

   Total alpha = 32.00000, Total beta = 32.00000, Total charge =  0.00000

*** Psi4 exiting successfully. Buy a developer a beer!
