                              Psi4 1.0.54 Driver

  ==> Input File <==

--------------------------------------------------------------------------
set {
	reference rhf
	basis cc-pvtz
}

set_num_threads( 4 )
memory 2 gb

molecule MOL {
0 1

H	 3.459101	 0.139266	 -0.762951
C	 2.749156	 -0.051729	 0.031265
C	 1.322304	 0.099773	 -0.484271
H	 2.929445	 -1.053887	 0.403481
H	 2.954281	 0.646699	 0.834672
C	 0.308557	 -0.162619	 0.622645
H	 1.143368	 -0.594400	 -1.295960
H	 1.169532	 1.100095	 -0.870217
N	 -1.069352	 -0.004081	 0.085342
H	 0.371632	 -1.172932	 0.991288
H	 0.400391	 0.548875	 1.426218
O	 -1.178405	 0.460222	 -0.999604
O	 -1.966873	 -0.325658	 0.789605

	symmetry c1
}
set optking {
	frozen_dihedral = ("
		12 9 6 3
	")
}

ee,wfn = optimize('scf', return_wfn=True)
oeprop( wfn, 'DIPOLE', 'QUADRUPOLE', 'MULLIKEN_CHARGES')
f=open( 'psi4out.xyz', 'w' )
f.write( "13  " )
f.write( str(ee) + "\n" )
f.write( MOL.save_string_xyz() )
f.close()
--------------------------------------------------------------------------

    Molecular point group: c1
  Charge       = 0
  Multiplicity = 1
  Basis Set: CC-PVTZ
  Basis Set:
  @DF-RHF Final Energy:  -321.85853768801292
    Total Energy =                       -321.8585376880130298
    Molecular point group: c1
  Basis Set: CC-PVTZ
  Basis Set:
  Basis Set: CC-PVTZ
  Basis Set:
  @DF-RHF Final Energy:  -321.85853599093923
    Total Energy =                       -321.8585359909395720
  Basis Set: CC-PVTZ
  Basis Set:
  Basis Set: CC-PVTZ
  Basis Set:
  @DF-RHF Final Energy:  -321.85434655301805
    Total Energy =                       -321.8543465530181038
  Basis Set: CC-PVTZ
  Basis Set:
  Basis Set: CC-PVTZ
  Basis Set:
  @DF-RHF Final Energy:  -321.85876720548873
    Total Energy =                       -321.8587672054885616
  Basis Set: CC-PVTZ
  Basis Set:
  Basis Set: CC-PVTZ
  Basis Set:
  @DF-RHF Final Energy:  -321.86011060037379
    Total Energy =                       -321.8601106003737868
  Basis Set: CC-PVTZ
  Basis Set:
  Basis Set: CC-PVTZ
  Basis Set:
  @DF-RHF Final Energy:  -321.86051855750537
    Total Energy =                       -321.8605185575053724
  Basis Set: CC-PVTZ
  Basis Set:
  Basis Set: CC-PVTZ
  Basis Set:
  @DF-RHF Final Energy:  -321.86052850566665
    Total Energy =                       -321.8605285056668777
  Basis Set: CC-PVTZ
  Basis Set:
  Charge       = 0
  Multiplicity = 1
  Basis Set: CC-PVTZ
  Basis Set:

    Orbital Energies (a.u.)
    -----------------------

    Doubly Occupied:

       1A    -20.593616     2A    -20.587540     3A    -15.838519
       4A    -11.299150     5A    -11.246961     6A    -11.234921
       7A     -1.637287     8A     -1.421342     9A     -1.131622
      10A     -1.026639    11A     -0.884917    12A     -0.826447
      13A     -0.762880    14A     -0.753268    15A     -0.730926
      16A     -0.657078    17A     -0.607558    18A     -0.575590
      19A     -0.554501    20A     -0.522262    21A     -0.509623
      22A     -0.488559    23A     -0.474510    24A     -0.453460

  @DF-RHF Final Energy:  -321.86052886467422

   => Energetics <=

    Nuclear Repulsion Energy =            247.6328279718820227
    One-Electron Energy =                -929.3483575402809720
    Two-Electron Energy =                 359.8550007037247838
    DFT Exchange-Correlation Energy =       0.0000000000000000
    Empirical Dispersion Energy =           0.0000000000000000
    PCM Polarization Energy =               0.0000000000000000
    EFP Energy =                            0.0000000000000000
    Total Energy =                       -321.8605288646742224
    Molecular point group: c1
  Basis Set: CC-PVTZ
  Basis Set:

  -Total Gradient:
     Atom            X                  Y                   Z
    ------   -----------------  -----------------  -----------------
       1       -0.000005780090    -0.000001918885    -0.000002664537
       2       -0.000000512499    -0.000010979357     0.000004203849
       3       -0.000019326487     0.000119148113     0.000045297160
       4        0.000000693829    -0.000002078927     0.000001389380
       5       -0.000004614618     0.000004323694    -0.000000829409
       6        0.000017160047    -0.000197238416    -0.000052976404
       7       -0.000005568383    -0.000007273054    -0.000004105891
       8       -0.000002884125     0.000001622847     0.000005352089
       9        0.000107856634     0.000206849893     0.000058875073
      10        0.000018482019     0.000002363112     0.000001867516
      11        0.000022057437     0.000005989794    -0.000000114950
      12       -0.000084978346    -0.000173536355     0.000060713170
      13       -0.000042585424     0.000052727541    -0.000117007046

  **** Optimization is complete! (in 8 steps) ****
    Final optimized geometry and variables:
    Molecular point group: c1

    Geometry (in Angstrom), charge = 0, multiplicity = 1:

    H            3.522911323743     0.139754229829    -0.673759349394
    C            2.772998520984    -0.040285513222     0.085370807238
    C            1.373572355608     0.120871755009    -0.502602948155
    H            2.928833365696    -1.040860761314     0.473389756392
    H            2.946557250317     0.661230375005     0.894055106427
    C            0.321245804622    -0.131343967700     0.556914370193
    H            1.232582821706    -0.570715709848    -1.323152197280
    H            1.250132626817     1.115647694565    -0.907135864233
    N           -1.083420230661    -0.012266946324     0.060657157699
    H            0.378765762542    -1.123056857424     0.977594283961
    H            0.377824086275     0.577974547265     1.370475962513
    O           -1.269918066202     0.430830362056    -1.020397400590
    O           -1.929791631703    -0.366886765650     0.811369033878

  Mulliken Charges: (a.u.)
   Center  Symbol    Alpha    Beta     Spin     Total
       1     H     0.44125  0.44125  0.00000  0.11750
       2     C     3.15270  3.15270  0.00000 -0.30539
       3     C     3.09077  3.09077  0.00000 -0.18154
       4     H     0.45308  0.45308  0.00000  0.09384
       5     H     0.45315  0.45315  0.00000  0.09370
       6     C     3.04688  3.04688  0.00000 -0.09377
       7     H     0.44089  0.44089  0.00000  0.11821
       8     H     0.43799  0.43799  0.00000  0.12403
       9     N     3.27305  3.27305  0.00000  0.45389
      10     H     0.43259  0.43259  0.00000  0.13481
      11     H     0.43416  0.43416  0.00000  0.13167
      12     O     4.16911  4.16911  0.00000 -0.33821
      13     O     4.17438  4.17438  0.00000 -0.34876

   Total alpha = 24.00000, Total beta = 24.00000, Total charge = -0.00000

*** Psi4 exiting successfully. Buy a developer a beer!
