  ==> Input File <==

--------------------------------------------------------------------------
set {
	reference rhf
	basis 6-31G*
}

set_num_threads( 4 )
memory 2 gb

molecule MOL {
0 1

H	 1.575581	 -0.127639	 -1.261684
O	 1.654024	 -0.625927	 -0.460906
C	 1.135793	 0.118896	 0.612333
C	 0.031547	 1.023609	 0.088541
H	 1.915668	 0.729681	 1.063582
H	 0.754543	 -0.542641	 1.387006
C	 -1.134819	 0.293262	 -0.585751
H	 0.474374	 1.714721	 -0.623187
H	 -0.338529	 1.620940	 0.920081
C	 -1.917817	 -0.639439	 0.339494
H	 -0.758119	 -0.268455	 -1.433105
H	 -1.813832	 1.041889	 -0.986690
H	 -2.777680	 -1.057197	 -0.174994
H	 -1.310268	 -1.471279	 0.680599
H	 -2.283753	 -0.111424	 1.216626

	symmetry c1
}
set optking {
	frozen_dihedral = ("
		1 2 3 4
	")
}

ee = optimize('scf')
oeprop('DIPOLE', 'QUADRUPOLE', 'MULLIKEN_CHARGES')
f=open( 'psi4out.xyz', 'w' )
f.write( "15  " )
f.write( str(ee) + "\n" )
f.write( MOL.save_string_xyz() )
f.close()
--------------------------------------------------------------------------

    Molecular point group: c1
  Charge       = 0
  Multiplicity = 1
  Basis Set: 6-31G*
  Basis Set:
  @DF-RHF Final Energy:  -232.14038739961811
    Total Energy =                       -232.1403873996180209
    Molecular point group: c1
  Basis Set: 6-31G*
  Basis Set:
  Basis Set: 6-31G*
  Basis Set:
  @DF-RHF Final Energy:  -232.14185721750988
    Total Energy =                       -232.1418572175096529
  Basis Set: 6-31G*
  Basis Set:
  Basis Set: 6-31G*
  Basis Set:
  @DF-RHF Final Energy:  -232.14230141719480
    Total Energy =                       -232.1423014171945169
  Basis Set: 6-31G*
  Basis Set:
  Basis Set: 6-31G*
  Basis Set:
  @DF-RHF Final Energy:  -232.14230302053863
    Total Energy =                       -232.1423030205385771
  Basis Set: 6-31G*
  Basis Set:
  Basis Set: 6-31G*
  Basis Set:
  @DF-RHF Final Energy:  -232.14230222007924
    Total Energy =                       -232.1423022200791024
  Basis Set: 6-31G*
  Basis Set:
  Basis Set: 6-31G*
  Basis Set:
  @DF-RHF Final Energy:  -232.14230768289949
    Total Energy =                       -232.1423076828996273
  Basis Set: 6-31G*
  Basis Set:
  Charge       = 0
  Multiplicity = 1
  Basis Set: 6-31G*
  Basis Set:

    Orbital Energies (a.u.)
    -----------------------

    Doubly Occupied:

       1A    -20.551842     2A    -11.266829     3A    -11.223783
       4A    -11.221355     5A    -11.210750     6A     -1.358802
       7A     -1.071557     8A     -0.974028     9A     -0.880308
      10A     -0.792434    11A     -0.666629    12A     -0.649521
      13A     -0.636273    14A     -0.584803    15A     -0.570200
      16A     -0.545080    17A     -0.505636    18A     -0.483538
      19A     -0.477356    20A     -0.457392    21A     -0.428697

  @DF-RHF Final Energy:  -232.14230768871084

   => Energetics <=

    Nuclear Repulsion Energy =            191.7458534959466192
    One-Electron Energy =                -694.6626969458155827
    Two-Electron Energy =                 270.7745357611582904
    DFT Exchange-Correlation Energy =       0.0000000000000000
    Empirical Dispersion Energy =           0.0000000000000000
    PCM Polarization Energy =               0.0000000000000000
    EFP Energy =                            0.0000000000000000
    Total Energy =                       -232.1423076887106731
    Molecular point group: c1
  Basis Set: 6-31G*
  Basis Set:

  -Total Gradient:
     Atom            X                  Y                   Z
    ------   -----------------  -----------------  -----------------
       1       -0.002397678279    -0.001145048891    -0.000470533696
       2        0.003427868803     0.001927458968     0.000441048326
       3       -0.002167404447    -0.002019569798     0.000339418497
       4        0.001139371374     0.001235657128    -0.000311558619
       5       -0.000002400375     0.000002158939     0.000006755656
       6       -0.000000589766    -0.000001612792    -0.000004987481
       7       -0.000002177345     0.000001289445    -0.000001197838
       8       -0.000000934885     0.000000740544     0.000000440213
       9       -0.000001149976    -0.000001406289     0.000000720516
      10        0.000001241015    -0.000002310195     0.000000134889
      11        0.000000661412    -0.000001545172    -0.000001833319
      12        0.000003172532     0.000003679773    -0.000000972690
      13        0.000001550881    -0.000000303287    -0.000000637507
      14        0.000002279053     0.000001138858     0.000003281285
      15       -0.000003810000    -0.000000327233    -0.000000078233

  **** Optimization is complete! (in 7 steps) ****
    Final optimized geometry and variables:
    Molecular point group: c1

    Geometry (in Angstrom), charge = 0, multiplicity = 1:

    H            1.663726468768    -0.219730903088    -1.240575590781
    O            1.716814889177    -0.672359905503    -0.410990893339
    C            1.141387039119     0.116365456967     0.600528122500
    C            0.020202184979     1.020719340813     0.098321630701
    H            1.907901731059     0.731991921750     1.066910360342
    H            0.779586540037    -0.568993297410     1.355826173164
    C           -1.150763787215     0.293942282400    -0.574672327873
    H            0.444418431359     1.738802889044    -0.603426244418
    H           -0.347736497122     1.604294711437     0.939643483229
    C           -1.918218185797    -0.651065050431     0.350385671766
    H           -0.789615017046    -0.264946419178    -1.433529155807
    H           -1.835407371816     1.042097861252    -0.965781168197
    H           -2.780573297988    -1.069157390323    -0.159123451470
    H           -1.300736689035    -1.480149036537     0.678221979259
    H           -2.277663757469    -0.130244985049     1.234015844002

  Mulliken Charges: (a.u.)
   Center  Symbol    Alpha    Beta     Spin     Total
       1     H     0.28152  0.28152  0.00000  0.43696
       2     O     4.37347  4.37347  0.00000 -0.74695
       3     C     2.98421  2.98421  0.00000  0.03157
       4     C     3.18497  3.18497  0.00000 -0.36993
       5     H     0.42703  0.42703  0.00000  0.14594
       6     H     0.41780  0.41780  0.00000  0.16441
       7     C     3.15077  3.15077  0.00000 -0.30155
       8     H     0.42323  0.42323  0.00000  0.15353
       9     H     0.41829  0.41829  0.00000  0.16343
      10     C     3.24357  3.24357  0.00000 -0.48713
      11     H     0.42089  0.42089  0.00000  0.15821
      12     H     0.41973  0.41973  0.00000  0.16054
      13     H     0.41773  0.41773  0.00000  0.16454
      14     H     0.41385  0.41385  0.00000  0.17229
      15     H     0.42293  0.42293  0.00000  0.15414

   Total alpha = 21.00000, Total beta = 21.00000, Total charge =  0.00000
