  ==> Input File <==

--------------------------------------------------------------------------
set {
	reference rhf
	basis cc-pvtz
}

set_num_threads( 4 )
memory 2 gb

molecule MOL {
0 1

H	 2.342730	 0.877684	 -1.045694
C	 2.360424	 0.000000	 -0.411793
C	 1.173749	 0.000000	 0.526870
H	 3.286567	 0.000000	 0.151574
H	 2.342730	 -0.877684	 -1.045694
O	 -0.000000	 0.000000	 -0.223739
H	 1.203779	 0.876757	 1.172538
H	 1.203779	 -0.876757	 1.172538
C	 -1.173749	 0.000000	 0.526870
C	 -2.189111	 0.899102	 -0.143907
H	 -0.970034	 0.350007	 1.538051
H	 -1.563967	 -1.013621	 0.609301
H	 -1.811307	 1.911389	 -0.214692
H	 -3.112338	 0.914408	 0.424021
H	 -2.405867	 0.546320	 -1.144424

	symmetry c1
}
set optking {
	frozen_dihedral = ("
		11 9 6 3
	")
}

ee = optimize('scf')
oeprop('DIPOLE', 'QUADRUPOLE', 'MULLIKEN_CHARGES')
f=open( 'psi4out.xyz', 'w' )
f.write( "15  " )
f.write( str(ee) + "\n" )
f.write( MOL.save_string_xyz() )
f.close()
--------------------------------------------------------------------------

    Molecular point group: c1
  Charge       = 0
  Multiplicity = 1
  Basis Set: CC-PVTZ
  Basis Set:
  @DF-RHF Final Energy:  -232.23078250213285
    Total Energy =                       -232.2307825021326835
    Molecular point group: c1
  Basis Set: CC-PVTZ
  Basis Set:
  Basis Set: CC-PVTZ
  Basis Set:
  @DF-RHF Final Energy:  -232.23095854722698
    Total Energy =                       -232.2309585472269760
  Basis Set: CC-PVTZ
  Basis Set:
  Basis Set: CC-PVTZ
  Basis Set:
  @DF-RHF Final Energy:  -232.23101580305183
    Total Energy =                       -232.2310158030519460
  Basis Set: CC-PVTZ
  Basis Set:
  Charge       = 0
  Multiplicity = 1
  Basis Set: CC-PVTZ
  Basis Set:

    Orbital Energies (a.u.)
    -----------------------

    Doubly Occupied:

       1A    -20.543129     2A    -11.266797     3A    -11.265875
       4A    -11.207343     5A    -11.206945     6A     -1.378092
       7A     -1.044424     8A     -0.983784     9A     -0.849687
      10A     -0.824953    11A     -0.674940    12A     -0.666284
      13A     -0.621559    14A     -0.585763    15A     -0.550347
      16A     -0.535016    17A     -0.522828    18A     -0.498287
      19A     -0.486279    20A     -0.465701    21A     -0.409079

  @DF-RHF Final Energy:  -232.23101635718339

   => Energetics <=

    Nuclear Repulsion Energy =            191.3183516225128926
    One-Electron Energy =                -693.9245162329018513
    Two-Electron Energy =                 270.3751482532056798
    DFT Exchange-Correlation Energy =       0.0000000000000000
    Empirical Dispersion Energy =           0.0000000000000000
    PCM Polarization Energy =               0.0000000000000000
    EFP Energy =                            0.0000000000000000
    Total Energy =                       -232.2310163571833073
    Molecular point group: c1
  Basis Set: CC-PVTZ
  Basis Set:

  -Total Gradient:
     Atom            X                  Y                   Z
    ------   -----------------  -----------------  -----------------
       1        0.000000221653    -0.000004996796     0.000001671577
       2        0.000016822113     0.000010836682     0.000015959976
       3        0.000068423388     0.002105368796     0.000000613833
       4        0.000032287530     0.000003539753    -0.000004891177
       5       -0.000010571120     0.000009440097     0.000015004640
       6        0.000013386956    -0.003765929858     0.000202888249
       7       -0.000014395178    -0.000005772586    -0.000017609231
       8       -0.000003585760     0.000012083753    -0.000000784850
       9       -0.000515657846     0.004145179513    -0.000982884926
      10       -0.000023728378    -0.000020656424    -0.000007468613
      11        0.000439036440    -0.002483913823     0.000765425003
      12       -0.000011243717     0.000008527340    -0.000009374918
      13        0.000019299658    -0.000015847683     0.000010310882
      14       -0.000007252918    -0.000005029972     0.000008072381
      15       -0.000003042819     0.000007171209     0.000003067174

  **** Optimization is complete! (in 4 steps) ****
    Final optimized geometry and variables:
    Molecular point group: c1

    Geometry (in Angstrom), charge = 0, multiplicity = 1:

    H            2.307360825492     0.682629275068    -1.110185862314
    C            2.328187848838    -0.195361094167    -0.476635578382
    C            1.152763478613    -0.188957492949     0.475891316572
    H            3.261004093159    -0.200609292918     0.075971975065
    H            2.298291144719    -1.072620498763    -1.110700556773
    O           -0.028580829048    -0.173449081034    -0.263983040195
    H            1.197678580915     0.685025016635     1.123479927293
    H            1.186811450946    -1.068730516327     1.117444025811
    C           -1.214834979718    -0.166817818352     0.475177047725
    C           -2.239884402322     0.713918568126    -0.206918213025
    H           -1.027344611743     0.173740394158     1.490309198953
    H           -1.591924291976    -1.184347879318     0.556202721115
    H           -1.894634158033     1.739711403592    -0.251104892739
    H           -3.180528436159     0.687962405473     0.332219552344
    H           -2.415455379784     0.371783153776    -1.219283862888

  Mulliken Charges: (a.u.)
   Center  Symbol    Alpha    Beta     Spin     Total
       1     H     0.45175  0.45175  0.00000  0.09651
       2     C     3.13687  3.13687  0.00000 -0.27373
       3     C     2.96468  2.96468  0.00000  0.07064
       4     H     0.45919  0.45919  0.00000  0.08162
       5     H     0.45143  0.45143  0.00000  0.09715
       6     O     4.18273  4.18273  0.00000 -0.36545
       7     H     0.47377  0.47377  0.00000  0.05247
       8     H     0.47330  0.47330  0.00000  0.05341
       9     C     2.97118  2.97118  0.00000  0.05763
      10     C     3.13387  3.13387  0.00000 -0.26775
      11     H     0.47314  0.47314  0.00000  0.05371
      12     H     0.46402  0.46402  0.00000  0.07195
      13     H     0.45444  0.45444  0.00000  0.09112
      14     H     0.45903  0.45903  0.00000  0.08193
      15     H     0.45061  0.45061  0.00000  0.09878

   Total alpha = 21.00000, Total beta = 21.00000, Total charge = -0.00000
