                              Psi4 1.0.54 Driver

  ==> Input File <==

--------------------------------------------------------------------------
set {
	reference rhf
	basis cc-pvtz
}

set_num_threads( 4 )
memory 2 gb

molecule MOL {
0 1

H	 2.828711	 -0.346904	 0.001083
C	 1.876752	 0.015931	 -0.363450
C	 0.776285	 -0.474665	 0.563092
H	 1.728113	 -0.357244	 -1.367440
H	 1.906171	 1.096574	 -0.386153
N	 -0.540022	 0.017605	 0.071630
H	 0.707111	 -1.548969	 0.573035
H	 0.886169	 -0.084184	 1.560432
O	 -0.527697	 0.823727	 -0.796823
O	 -1.510172	 -0.409017	 0.601911

	symmetry c1
}
set optking {
	frozen_dihedral = ("
		9 6 3 2
	")
}

ee,wfn = optimize('scf', return_wfn=True)
oeprop( wfn, 'DIPOLE', 'QUADRUPOLE', 'MULLIKEN_CHARGES')
f=open( 'psi4out.xyz', 'w' )
f.write( "10  " )
f.write( str(ee) + "\n" )
f.write( MOL.save_string_xyz() )
f.close()
--------------------------------------------------------------------------

    Molecular point group: c1
  Charge       = 0
  Multiplicity = 1
  Basis Set: CC-PVTZ
  Basis Set:
  @DF-RHF Final Energy:  -282.81110789557340
    Total Energy =                       -282.8111078955734001
    Molecular point group: c1
  Basis Set: CC-PVTZ
  Basis Set:
  Basis Set: CC-PVTZ
  Basis Set:
  @DF-RHF Final Energy:  -282.74657840259169
    Total Energy =                       -282.7465784025915241
  Basis Set: CC-PVTZ
  Basis Set:
  Basis Set: CC-PVTZ
  Basis Set:
  @DF-RHF Final Energy:  -282.80879661422097
    Total Energy =                       -282.8087966142210234
  Basis Set: CC-PVTZ
  Basis Set:
  Basis Set: CC-PVTZ
  Basis Set:
  @DF-RHF Final Energy:  -282.81236360356297
    Total Energy =                       -282.8123636035629715
  Basis Set: CC-PVTZ
  Basis Set:
  @DF-RHF Final Energy:  -282.44198287052177
    Total Energy =                       -282.4419828705215423
  @DF-RHF Final Energy:  -282.69593980037678
    Total Energy =                       -282.6959398003767205
  @DF-RHF Final Energy:  -282.79674667993334
    Total Energy =                       -282.7967466799332215
  @DF-RHF Final Energy:  -282.80935809163594
    Total Energy =                       -282.8093580916358860
  @DF-RHF Final Energy:  -282.40175484050246
    Total Energy =                       -282.4017548405024627
  @DF-RHF Final Energy:  -282.65576392964118
    Total Energy =                       -282.6557639296411821
  @DF-RHF Final Energy:  -282.78356283956350
    Total Energy =                       -282.7835628395633876
  @DF-RHF Final Energy:  -282.75641477343078
    Total Energy =                       -282.7564147734307198
  @DF-RHF Final Energy:  -282.80851382187910
    Total Energy =                       -282.8085138218788757
  @DF-RHF Final Energy:  -282.81241321400762
    Total Energy =                       -282.8124132140076767
  Basis Set: CC-PVTZ
  Basis Set:
  @DF-RHF Final Energy:  -282.81279549700531
    Total Energy =                       -282.8127954970052542
  Basis Set: CC-PVTZ
  Basis Set:
  Basis Set: CC-PVTZ
  Basis Set:
  @DF-RHF Final Energy:  -282.81286136530952
    Total Energy =                       -282.8128613653093453
  Basis Set: CC-PVTZ
  Basis Set:
  Basis Set: CC-PVTZ
  Basis Set:
  @DF-RHF Final Energy:  -282.81288682817711
    Total Energy =                       -282.8128868281771133
  Basis Set: CC-PVTZ
  Basis Set:
  Charge       = 0
  Multiplicity = 1
  Basis Set: CC-PVTZ
  Basis Set:

    Orbital Energies (a.u.)
    -----------------------

    Doubly Occupied:

       1A    -20.594986     2A    -20.588778     3A    -15.839655
       4A    -11.303307     5A    -11.243598     6A     -1.638608
       7A     -1.422872     8A     -1.123913     9A     -0.966909
      10A     -0.834862    11A     -0.762614    12A     -0.753723
      13A     -0.732202    14A     -0.638457    15A     -0.595014
      16A     -0.564103    17A     -0.538785    18A     -0.490384
      19A     -0.479933    20A     -0.455180

  @DF-RHF Final Energy:  -282.81288740857644

   => Energetics <=

    Nuclear Repulsion Energy =            186.5718589388192186
    One-Electron Energy =                -755.6337267750042201
    Two-Electron Energy =                 286.2489804276085579
    DFT Exchange-Correlation Energy =       0.0000000000000000
    Empirical Dispersion Energy =           0.0000000000000000
    PCM Polarization Energy =               0.0000000000000000
    EFP Energy =                            0.0000000000000000
    Total Energy =                       -282.8128874085764437
    Molecular point group: c1
  Basis Set: CC-PVTZ
  Basis Set:

  -Total Gradient:
     Atom            X                  Y                   Z
    ------   -----------------  -----------------  -----------------
       1        0.000004208562     0.000001984455     0.000012784933
       2        0.000033153382     0.000013195223    -0.000030200493
       3       -0.000071843442    -0.000032388202     0.000058839281
       4        0.000003344326    -0.000005662582     0.000005328437
       5       -0.000000349383    -0.000000355796     0.000006597897
       6        0.000105102876     0.000065624868     0.000089137670
       7        0.000005721651    -0.000004584147    -0.000013061432
       8        0.000001214888    -0.000001903906    -0.000011459475
       9       -0.000047868192    -0.000045870379    -0.000031292935
      10       -0.000032684667     0.000009960467    -0.000086673881

  **** Optimization is complete! (in 18 steps) ****
    Final optimized geometry and variables:
    Molecular point group: c1

    Geometry (in Angstrom), charge = 0, multiplicity = 1:

    H            0.449936866806    -0.176138987159     2.839464809604
    C            0.568360535408    -0.502083043285     1.813199562363
    C           -0.202844511023     0.447047257487     0.925922586713
    H            0.194078317685    -1.512321361023     1.728235096063
    H            1.620058046354    -0.505071688744     1.569896538780
    N           -0.135029533984     0.097918747754    -0.526367117608
    H           -1.257046958631     0.473374911285     1.150072209079
    H            0.173486381130     1.458370756028     0.973560059291
    O            0.627354307576    -0.736955617719    -0.874492324337
    O           -0.857747155914     0.709015538265    -1.240216130463

  Mulliken Charges: (a.u.)
   Center  Symbol    Alpha    Beta     Spin     Total
       1     H     0.44933  0.44933  0.00000  0.10133
       2     C     3.13838  3.13838  0.00000 -0.27677
       3     C     3.04370  3.04370  0.00000 -0.08741
       4     H     0.44296  0.44296  0.00000  0.11409
       5     H     0.44028  0.44028  0.00000  0.11944
       6     N     3.27618  3.27618  0.00000  0.44763
       7     H     0.43222  0.43222  0.00000  0.13556
       8     H     0.43406  0.43406  0.00000  0.13189
       9     O     4.16936  4.16936  0.00000 -0.33872
      10     O     4.17352  4.17352  0.00000 -0.34704

   Total alpha = 20.00000, Total beta = 20.00000, Total charge = -0.00000

*** Psi4 exiting successfully. Buy a developer a beer!
