  ==> Input File <==

--------------------------------------------------------------------------
set {
	reference rhf
	basis 6-31G*
}

set_num_threads( 4 )
memory 2 gb

molecule MOL {
0 1

H	 1.269245	 -1.141003	 1.572232
C	 0.358152	 -1.255642	 1.001205
O	 0.000000	 0.000000	 0.521119
H	 0.538065	 -1.957074	 0.187993
H	 -0.413310	 -1.670089	 1.648328
C	 -1.165642	 0.000000	 -0.238270
H	 -1.228672	 0.883184	 -0.872070
H	 -2.003012	 0.000000	 0.445920
H	 -1.228672	 -0.883184	 -0.872070

	symmetry c1
}
set optking {
	frozen_dihedral = ("
		2 3 6 7
	")
}

ee = optimize('scf')
oeprop('DIPOLE', 'QUADRUPOLE', 'MULLIKEN_CHARGES')
f=open( 'psi4out.xyz', 'w' )
f.write( "9  " )
f.write( str(ee) + "\n" )
f.write( MOL.save_string_xyz() )
f.close()
--------------------------------------------------------------------------

    Molecular point group: c1
  Charge       = 0
  Multiplicity = 1
  Basis Set: 6-31G*
  Basis Set:
  @DF-RHF Final Energy:  -154.06249844025598
    Total Energy =                       -154.0624984402559789
    Molecular point group: c1
  Basis Set: 6-31G*
  Basis Set:
  Basis Set: 6-31G*
  Basis Set:
  @DF-RHF Final Energy:  -154.06339655955543
    Total Energy =                       -154.0633965595554855
  Basis Set: 6-31G*
  Basis Set:
  Basis Set: 6-31G*
  Basis Set:
  @DF-RHF Final Energy:  -154.06362691075552
    Total Energy =                       -154.0636269107556018
  Basis Set: 6-31G*
  Basis Set:
  Charge       = 0
  Multiplicity = 1
  Basis Set: 6-31G*
  Basis Set:

    Orbital Energies (a.u.)
    -----------------------

    Doubly Occupied:

       1A    -20.555373     2A    -11.265372     3A    -11.265071
       4A     -1.378202     5A     -0.974907     6A     -0.872966
       7A     -0.660893     8A     -0.653588     9A     -0.644652
      10A     -0.554565    11A     -0.528227    12A     -0.474116
      13A     -0.416308

  @DF-RHF Final Energy:  -154.06362770843936

   => Energetics <=

    Nuclear Repulsion Energy =             84.6991884115523703
    One-Electron Energy =                -377.0371531002392658
    Two-Electron Energy =                 138.2743369802475115
    DFT Exchange-Correlation Energy =       0.0000000000000000
    Empirical Dispersion Energy =           0.0000000000000000
    PCM Polarization Energy =               0.0000000000000000
    EFP Energy =                            0.0000000000000000
    Total Energy =                       -154.0636277084393839
    Molecular point group: c1
  Basis Set: 6-31G*
  Basis Set:

  -Total Gradient:
     Atom            X                  Y                   Z
    ------   -----------------  -----------------  -----------------
       1       -0.000023801766     0.000082195786    -0.000023517229
       2        0.001031763406    -0.000464444084    -0.001957676962
       3       -0.001331875791     0.000332667018     0.002151357483
       4        0.000015362525    -0.000024958676     0.000000443722
       5        0.000004855699     0.000031982670     0.000006089810
       6       -0.001094874997     0.001415679454     0.001721729248
       7        0.001333812871    -0.001359481687    -0.001940977893
       8        0.000032635071     0.000007945182     0.000033693352
       9        0.000032122982    -0.000021585665     0.000008858469

  **** Optimization is complete! (in 4 steps) ****
    Final optimized geometry and variables:
    Molecular point group: c1

    Geometry (in Angstrom), charge = 0, multiplicity = 1:

    H            1.565981569960    -0.697596901309     1.129045667098
    C            0.643812082329    -0.820968275214     0.577955012947
    O            0.279069807361     0.428426022584     0.085939431514
    H            0.807401853652    -1.532954742432    -0.228919178320
    H           -0.112756141086    -1.227158416187     1.247706826958
    C           -0.900231851610     0.429973520002    -0.654941823302
    H           -0.904832213376     1.321246023484    -1.267895477624
    H           -1.776570448417     0.425069822411    -0.010333971273
    H           -0.955118715578    -0.432530098947    -1.316856247879

  Mulliken Charges: (a.u.)
   Center  Symbol    Alpha    Beta     Spin     Total
       1     H     0.41204  0.41204  0.00000  0.17593
       2     C     3.07998  3.07998  0.00000 -0.15996
       3     O     4.29632  4.29632  0.00000 -0.59264
       4     H     0.42970  0.42970  0.00000  0.14060
       5     H     0.43057  0.43057  0.00000  0.13886
       6     C     3.07937  3.07937  0.00000 -0.15873
       7     H     0.41287  0.41287  0.00000  0.17426
       8     H     0.42746  0.42746  0.00000  0.14509
       9     H     0.43170  0.43170  0.00000  0.13660

   Total alpha = 13.00000, Total beta = 13.00000, Total charge = -0.00000
