  ==> Input File <==

--------------------------------------------------------------------------
set {
	reference rhf
	basis 6-31G*
}

set_num_threads( 1 )
memory 2 gb

molecule MOL {
0 1

O	 3.225979	 0.970355	 -0.599647
C	 2.701189	 0.057885	 -0.047330
C	 1.245376	 -0.013843	 0.345420
O	 3.347903	 -1.046386	 0.304773
C	 0.455112	 1.231400	 -0.050772
H	 0.838542	 -0.913825	 -0.103701
H	 1.208210	 -0.175333	 1.419774
C	 -0.998893	 1.219485	 0.433193
H	 0.482531	 1.345121	 -1.130325
H	 0.957290	 2.103070	 0.354729
C	 -1.883438	 0.145884	 -0.207175
H	 -1.431207	 2.195402	 0.224832
H	 -1.019646	 1.105716	 1.516076
C	 -3.347647	 0.245583	 0.225435
H	 -1.822183	 0.231698	 -1.291012
H	 -1.510341	 -0.844814	 0.042401
C	 -3.622226	 1.417330	 1.169757
H	 -3.643377	 -0.682942	 0.710842
H	 -3.978188	 0.341228	 -0.657158
C	 -5.085922	 1.507530	 1.600058
H	 -2.992226	 1.323859	 2.051804
H	 -3.331313	 2.346753	 0.684657
H	 -5.248827	 2.347380	 2.268429
H	 -5.398012	 0.606018	 2.119740
H	 -5.739665	 1.636171	 0.741952
C	 4.728119	 -1.109107	 -0.004993
H	 4.882018	 -1.033965	 -1.071845
H	 5.068212	 -2.067527	 0.355250
H	 5.265056	 -0.311663	 0.488280

	symmetry c1
}
set optking {
	frozen_dihedral = ("
		21 17 14 11,
		15 11 8 5,
		6 3 5 9,
		11 8 5 9,
		2 4 26 27,
		1 2 4 26,
		6 3 2 1
	")
}

ee = energy('scf')
oeprop('DIPOLE', 'QUADRUPOLE', 'MULLIKEN_CHARGES')
f=open( 'psi4out.xyz', 'w' )
f.write( "29  " )
f.write( str(ee) + "\n" )
f.write( MOL.save_string_xyz() )
f.close()
--------------------------------------------------------------------------

    Molecular point group: c1

    Geometry (in Angstrom), charge = 0, multiplicity = 1:

       Center              X                  Y                   Z               Mass
    ------------   -----------------  -----------------  -----------------  -----------------
           O          3.112785677487     0.560334951117    -0.888266690071    15.994914619560
           C          2.587995677487    -0.352135048883    -0.335949690071    12.000000000000
           C          1.132182677487    -0.423863048883     0.056800309929    12.000000000000
           O          3.234709677487    -1.456406048883     0.016153309929    15.994914619560
           C          0.341918677487     0.821379951117    -0.339391690071    12.000000000000
           H          0.725348677487    -1.323845048883    -0.392320690071     1.007825032070
           H          1.095016677487    -0.585353048883     1.131154309929     1.007825032070
           C         -1.112086322513     0.809464951117     0.144573309929    12.000000000000
           H          0.369337677487     0.935100951117    -1.418944690071     1.007825032070
           H          0.844096677487     1.693049951117     0.066109309929     1.007825032070
           C         -1.996631322513    -0.264136048883    -0.495794690071    12.000000000000
           H         -1.544400322513     1.785381951117    -0.063787690071     1.007825032070
           H         -1.132839322513     0.695695951117     1.227456309929     1.007825032070
           C         -3.460840322513    -0.164437048883    -0.063184690071    12.000000000000
           H         -1.935376322513    -0.178322048883    -1.579631690071     1.007825032070
           H         -1.623534322513    -1.254834048883    -0.246218690071     1.007825032070
           C         -3.735419322513     1.007309951117     0.881137309929    12.000000000000
           H         -3.756570322513    -1.092962048883     0.422222309929     1.007825032070
           H         -4.091381322513    -0.068792048883    -0.945777690071     1.007825032070
           C         -5.199115322513     1.097509951117     1.311438309929    12.000000000000
           H         -3.105419322513     0.913838951117     1.763184309929     1.007825032070
           H         -3.444506322513     1.936732951117     0.396037309929     1.007825032070
           H         -5.362020322513     1.937359951117     1.979809309929     1.007825032070
           H         -5.511205322513     0.195997951117     1.831120309929     1.007825032070
           H         -5.852858322513     1.226150951117     0.453332309929     1.007825032070
           C          4.614925677487    -1.519127048883    -0.293612690071    12.000000000000
           H          4.768824677487    -1.443985048883    -1.360464690071     1.007825032070
           H          4.955018677487    -2.477547048883     0.066630309929     1.007825032070
           H          5.151862677487    -0.721683048883     0.199660309929     1.007825032070

  Charge       = 0
  Multiplicity = 1
  Basis Set: 6-31G*
  Basis Set:

    Orbital Energies (a.u.)
    -----------------------

    Doubly Occupied:

       1A    -20.602982     2A    -20.544745     3A    -11.371467
       4A    -11.280403     5A    -11.234001     6A    -11.217632
       7A    -11.215503     8A    -11.214454     9A    -11.213923
      10A    -11.212947    11A    -11.207587    12A     -1.468663
      13A     -1.362086    14A     -1.100778    15A     -1.065696
      16A     -1.014860    17A     -0.976652    18A     -0.928525
      19A     -0.861428    20A     -0.826510    21A     -0.771223
      22A     -0.752046    23A     -0.700690    24A     -0.681752
      25A     -0.671924    26A     -0.652893    27A     -0.627037
      28A     -0.605456    29A     -0.591373    30A     -0.581887
      31A     -0.568585    32A     -0.553828    33A     -0.549009
      34A     -0.523487    35A     -0.519773    36A     -0.499653
      37A     -0.490577    38A     -0.486176    39A     -0.481579
      40A     -0.456662    41A     -0.452457    42A     -0.441101
      43A     -0.437749    44A     -0.436219

  @DF-RHF Final Energy:  -501.02850308307200

   => Energetics <=

    Nuclear Repulsion Energy =            619.0244559211961359
    One-Electron Energy =               -1909.1982631282266993
    Two-Electron Energy =                 789.1453041239597042
    DFT Exchange-Correlation Energy =       0.0000000000000000
    Empirical Dispersion Energy =           0.0000000000000000
    PCM Polarization Energy =               0.0000000000000000
    EFP Energy =                            0.0000000000000000
    Total Energy =                       -501.0285030830709729

  Mulliken Charges: (a.u.)
   Center  Symbol    Alpha    Beta     Spin     Total
       1     O     4.28613  4.28613  0.00000 -0.57226
       2     C     2.60463  2.60463  0.00000  0.79074
       3     C     3.20997  3.20997  0.00000 -0.41994
       4     O     4.30761  4.30761  0.00000 -0.61521
       5     C     3.15004  3.15004  0.00000 -0.30009
       6     H     0.39897  0.39897  0.00000  0.20207
       7     H     0.40167  0.40167  0.00000  0.19666
       8     C     3.16457  3.16457  0.00000 -0.32913
       9     H     0.41380  0.41380  0.00000  0.17240
      10     H     0.40944  0.40944  0.00000  0.18112
      11     C     3.15799  3.15799  0.00000 -0.31598
      12     H     0.41566  0.41566  0.00000  0.16868
      13     H     0.42208  0.42208  0.00000  0.15583
      14     C     3.15390  3.15390  0.00000 -0.30779
      15     H     0.42009  0.42009  0.00000  0.15981
      16     H     0.42082  0.42082  0.00000  0.15835
      17     C     3.15867  3.15867  0.00000 -0.31734
      18     H     0.42133  0.42133  0.00000  0.15733
      19     H     0.42057  0.42057  0.00000  0.15885
      20     C     3.23635  3.23635  0.00000 -0.47269
      21     H     0.42104  0.42104  0.00000  0.15792
      22     H     0.42069  0.42069  0.00000  0.15862
      23     H     0.41986  0.41986  0.00000  0.16029
      24     H     0.42257  0.42257  0.00000  0.15486
      25     H     0.42226  0.42226  0.00000  0.15547
      26     C     3.09238  3.09238  0.00000 -0.18476
      27     H     0.40912  0.40912  0.00000  0.18176
      28     H     0.40859  0.40859  0.00000  0.18281
      29     H     0.40918  0.40918  0.00000  0.18163

   Total alpha = 44.00000, Total beta = 44.00000, Total charge =  0.00000
