  ==> Input File <==

--------------------------------------------------------------------------
set {
	reference rhf
	basis 6-31G*
}

set_num_threads( 4 )
memory 2 gb

molecule MOL {
0 1

H	 3.893188	 0.355400	 -0.101367
N	 3.092854	 -0.246221	 -0.068770
C	 1.865559	 0.531981	 0.018834
H	 3.199514	 -0.826043	 0.741946
C	 0.645745	 -0.382037	 -0.029944
H	 1.841966	 1.207024	 -0.831236
H	 1.815756	 1.155410	 0.915079
C	 -0.679275	 0.379305	 0.025956
H	 0.698998	 -0.976915	 -0.937203
H	 0.693479	 -1.083846	 0.802235
C	 -1.506635	 0.058353	 1.272086
H	 -1.266162	 0.147687	 -0.861606
H	 -0.485925	 1.450422	 -0.008268
C	 -2.831628	 0.818246	 1.321762
H	 -1.702162	 -1.011092	 1.307715
H	 -0.923680	 0.291260	 2.160666
H	 -3.452565	 0.580124	 0.462663
H	 -3.395058	 0.569271	 2.215720
H	 -2.668108	 1.892328	 1.322430

	symmetry c1
}
set optking {
	frozen_dihedral = ("
		12 8 5 9
	")
}

ee = optimize('scf')
oeprop('DIPOLE', 'QUADRUPOLE', 'MULLIKEN_CHARGES')
f=open( 'psi4out.xyz', 'w' )
f.write( "19  " )
f.write( str(ee) + "\n" )
f.write( MOL.save_string_xyz() )
f.close()
--------------------------------------------------------------------------

    Molecular point group: c1
  Charge       = 0
  Multiplicity = 1
  Basis Set: 6-31G*
  Basis Set:
  @DF-RHF Final Energy:  -251.34652348756700
    Total Energy =                       -251.3465234875669125
    Molecular point group: c1
  Basis Set: 6-31G*
  Basis Set:
  Basis Set: 6-31G*
  Basis Set:
  @DF-RHF Final Energy:  -251.34673245963910
    Total Energy =                       -251.3467324596390995
  Basis Set: 6-31G*
  Basis Set:
  Basis Set: 6-31G*
  Basis Set:
  @DF-RHF Final Energy:  -251.34679842143063
    Total Energy =                       -251.3467984214307194
  Basis Set: 6-31G*
  Basis Set:
  Basis Set: 6-31G*
  Basis Set:
  @DF-RHF Final Energy:  -251.34679264112356
    Total Energy =                       -251.3467926411233293
  Basis Set: 6-31G*
  Basis Set:
  Basis Set: 6-31G*
  Basis Set:
  @DF-RHF Final Energy:  -251.34680372463833
    Total Energy =                       -251.3468037246381641
  Basis Set: 6-31G*
  Basis Set:
  Charge       = 0
  Multiplicity = 1
  Basis Set: 6-31G*
  Basis Set:

    Orbital Energies (a.u.)
    -----------------------

    Doubly Occupied:

       1A    -15.532523     2A    -11.240258     3A    -11.215055
       4A    -11.212622     5A    -11.209111     6A    -11.207908
       7A     -1.176875     8A     -1.071526     9A     -0.997133
      10A     -0.900175    11A     -0.817258    12A     -0.788304
      13A     -0.661285    14A     -0.637953    15A     -0.618047
      16A     -0.592881    17A     -0.563175    18A     -0.548884
      19A     -0.533810    20A     -0.492657    21A     -0.487186
      22A     -0.465704    23A     -0.456000    24A     -0.447831
      25A     -0.381067

  @DF-RHF Final Energy:  -251.34680371566674

   => Energetics <=

    Nuclear Repulsion Energy =            246.6741478005865247
    One-Electron Energy =                -827.5314424298799167
    Two-Electron Energy =                 329.5104909136264268
    DFT Exchange-Correlation Energy =       0.0000000000000000
    Empirical Dispersion Energy =           0.0000000000000000
    PCM Polarization Energy =               0.0000000000000000
    EFP Energy =                            0.0000000000000000
    Total Energy =                       -251.3468037156669652
    Molecular point group: c1
  Basis Set: 6-31G*
  Basis Set:

  -Total Gradient:
     Atom            X                  Y                   Z
    ------   -----------------  -----------------  -----------------
       1        0.000005525023    -0.000002304895    -0.000005269374
       2        0.000012378685     0.000005988570    -0.000025411873
       3       -0.000004082945    -0.000017194559     0.000047782575
       4       -0.000010045094     0.000007505600    -0.000001657815
       5        0.000418159122     0.000805955411    -0.000463619141
       6       -0.000006226075    -0.000000348225     0.000004685176
       7        0.000004980434    -0.000008915962     0.000001284769
       8       -0.000404392951    -0.000788837863     0.000457511042
       9       -0.000288761270    -0.000539418110     0.000325873408
      10        0.000013764494     0.000009438802    -0.000000339686
      11        0.000012019841     0.000002007099    -0.000020879515
      12        0.000264307073     0.000514751188    -0.000320066721
      13       -0.000014008951     0.000000058008     0.000002562070
      14       -0.000003607800     0.000007841217     0.000008456699
      15       -0.000000216015     0.000005343213    -0.000010141435
      16        0.000003307922    -0.000003693423    -0.000005424089
      17        0.000004303274    -0.000001319523     0.000002408804
      18       -0.000006232204     0.000004283903     0.000002885607
      19       -0.000001172565    -0.000001140452    -0.000000640502

  **** Optimization is complete! (in 6 steps) ****
    Final optimized geometry and variables:
    Molecular point group: c1

    Geometry (in Angstrom), charge = 0, multiplicity = 1:

    H            3.765081283777     0.173808676586    -0.513372577058
    N            2.968725861395    -0.433294090982    -0.486501624937
    C            1.734991526831     0.334154980362    -0.415511782062
    H            3.071310545058    -1.011001156215     0.326252776544
    C            0.521626765026    -0.588612691918    -0.476576766020
    H            1.714552724528     1.007898246532    -1.266742836067
    H            1.666585390774     0.959019047597     0.479138652648
    C           -0.822394231556     0.168205339712    -0.412323126002
    H            0.590909706855    -1.182441912212    -1.381467679981
    H            0.582473264580    -1.296622452152     0.348454227809
    C           -1.646532250745    -0.143082328715     0.839207711421
    H           -1.416771767640    -0.057041112526    -1.293832570509
    H           -0.640620911138     1.241016764053    -0.450373656039
    C           -2.960624265257     0.633672441183     0.899570308949
    H           -1.854809312425    -1.210240766649     0.874285607084
    H           -1.052874571664     0.080187613633     1.723765563806
    H           -3.589328050115     0.406677653972     0.043084659155
    H           -3.522406317674     0.389144777961     1.795879007327
    H           -2.783055778820     1.705554280780     0.902627137081

  Mulliken Charges: (a.u.)
   Center  Symbol    Alpha    Beta     Spin     Total
       1     H     0.33236  0.33236  0.00000  0.33528
       2     N     3.92228  3.92228  0.00000 -0.84456
       3     C     3.06271  3.06271  0.00000 -0.12541
       4     H     0.33517  0.33517  0.00000  0.32967
       5     C     3.15424  3.15424  0.00000 -0.30848
       6     H     0.42027  0.42027  0.00000  0.15947
       7     H     0.43490  0.43490  0.00000  0.13021
       8     C     3.15865  3.15865  0.00000 -0.31730
       9     H     0.41045  0.41045  0.00000  0.17910
      10     H     0.42515  0.42515  0.00000  0.14970
      11     C     3.15252  3.15252  0.00000 -0.30504
      12     H     0.41945  0.41945  0.00000  0.16110
      13     H     0.42265  0.42265  0.00000  0.15470
      14     C     3.24003  3.24003  0.00000 -0.48007
      15     H     0.42200  0.42200  0.00000  0.15601
      16     H     0.42424  0.42424  0.00000  0.15151
      17     H     0.42146  0.42146  0.00000  0.15709
      18     H     0.41948  0.41948  0.00000  0.16103
      19     H     0.42200  0.42200  0.00000  0.15600

   Total alpha = 25.00000, Total beta = 25.00000, Total charge =  0.00000
