  ==> Input File <==

--------------------------------------------------------------------------
set {
	reference rhf
	basis 6-31G*
}

set_num_threads( 4 )
memory 2 gb

molecule MOL {
0 1

H	 -1.070890	 -1.366565	 0.180696
O	 -1.422729	 -0.573567	 -0.196946
C	 -0.731407	 0.539437	 0.309156
C	 0.680193	 0.672443	 -0.251532
H	 -1.319765	 1.404033	 0.030086
H	 -0.700012	 0.506517	 1.397677
C	 0.791877	 0.291168	 -1.727967
H	 1.012522	 1.697067	 -0.112430
H	 1.341573	 0.040444	 0.337274
H	 0.198626	 0.951001	 -2.353962
H	 1.818393	 0.361130	 -2.071967
H	 0.456489	 -0.728863	 -1.899183

	symmetry c1
}
set optking {
	frozen_dihedral = ("
		8 4 3 2
	")
}

ee = optimize('scf')
oeprop('DIPOLE', 'QUADRUPOLE', 'MULLIKEN_CHARGES')
f=open( 'psi4out.xyz', 'w' )
f.write( "12  " )
f.write( str(ee) + "\n" )
f.write( MOL.save_string_xyz() )
f.close()
--------------------------------------------------------------------------

    Molecular point group: c1
  Charge       = 0
  Multiplicity = 1
  Basis Set: 6-31G*
  Basis Set:
  @DF-RHF Final Energy:  -193.10765396749505
    Total Energy =                       -193.1076539674950254
    Molecular point group: c1
  Basis Set: 6-31G*
  Basis Set:
  Basis Set: 6-31G*
  Basis Set:
  @DF-RHF Final Energy:  -193.10817809783316
    Total Energy =                       -193.1081780978331039
  Basis Set: 6-31G*
  Basis Set:
  Basis Set: 6-31G*
  Basis Set:
  @DF-RHF Final Energy:  -193.10832233140093
    Total Energy =                       -193.1083223314010127
  Basis Set: 6-31G*
  Basis Set:
  Basis Set: 6-31G*
  Basis Set:
  @DF-RHF Final Energy:  -193.10832646252712
    Total Energy =                       -193.1083264625270886
  Basis Set: 6-31G*
  Basis Set:
  Charge       = 0
  Multiplicity = 1
  Basis Set: 6-31G*
  Basis Set:

    Orbital Energies (a.u.)
    -----------------------

    Doubly Occupied:

       1A    -20.554738     2A    -11.268369     3A    -11.219462
       4A    -11.207397     5A     -1.361007     6A     -1.046879
       7A     -0.922191     8A     -0.810569     9A     -0.681549
      10A     -0.638087    11A     -0.625105    12A     -0.568120
      13A     -0.527570    14A     -0.512767    15A     -0.485806
      16A     -0.465324    17A     -0.431324

  @DF-RHF Final Energy:  -193.10832676481974

   => Energetics <=

    Nuclear Repulsion Energy =            133.4413031648021786
    One-Electron Energy =                -526.4467327406534878
    Two-Electron Energy =                 199.8971028110315729
    DFT Exchange-Correlation Energy =       0.0000000000000000
    Empirical Dispersion Energy =           0.0000000000000000
    PCM Polarization Energy =               0.0000000000000000
    EFP Energy =                            0.0000000000000000
    Total Energy =                       -193.1083267648197079
    Molecular point group: c1
  Basis Set: 6-31G*
  Basis Set:

  -Total Gradient:
     Atom            X                  Y                   Z
    ------   -----------------  -----------------  -----------------
       1       -0.000006386886    -0.000017141727    -0.000005578960
       2       -0.001365786157     0.002244465802    -0.003153328584
       3        0.001460412793    -0.002826965913     0.003328025520
       4        0.001748681215    -0.000595860596     0.004480652840
       5        0.000011892093     0.000025214389     0.000015593369
       6       -0.000008475046    -0.000024889656    -0.000009714775
       7        0.000015987420     0.000028632146    -0.000003434066
       8       -0.001847866871     0.001172514281    -0.004658898375
       9        0.000005419977     0.000002203612     0.000006843814
      10       -0.000000387318     0.000003653413    -0.000010093718
      11       -0.000012949926    -0.000003448800    -0.000003759012
      12       -0.000000541295    -0.000008376949     0.000013691947

  **** Optimization is complete! (in 5 steps) ****
    Final optimized geometry and variables:
    Molecular point group: c1

    Geometry (in Angstrom), charge = 0, multiplicity = 1:

    H           -0.868171467507    -1.555048761644     0.620568110750
    O           -1.246995818828    -0.755712348866     0.281048221545
    C           -0.525879304860     0.349894464224     0.760197188518
    C            0.901323790431     0.444983071570     0.214949245111
    H           -1.091493800627     1.213524054120     0.432925655847
    H           -0.516589377060     0.364393131664     1.848130343925
    C            1.000265855983     0.099086552650    -1.272099351067
    H            1.236024919896     1.471712969515     0.342653366217
    H            1.573223563644    -0.191140038605     0.787356980372
    H            0.339616041835     0.727593169380    -1.861567251952
    H            2.013497230340     0.248990849028    -1.631709532134
    H            0.724274101580    -0.930599240498    -1.463029385553

  Mulliken Charges: (a.u.)
   Center  Symbol    Alpha    Beta     Spin     Total
       1     H     0.28338  0.28338  0.00000  0.43323
       2     O     4.36728  4.36728  0.00000 -0.73456
       3     C     2.99462  2.99462  0.00000  0.01076
       4     C     3.17508  3.17508  0.00000 -0.35016
       5     H     0.41632  0.41632  0.00000  0.16735
       6     H     0.42792  0.42792  0.00000  0.14415
       7     C     3.23293  3.23293  0.00000 -0.46586
       8     H     0.41996  0.41996  0.00000  0.16009
       9     H     0.42453  0.42453  0.00000  0.15095
      10     H     0.41904  0.41904  0.00000  0.16192
      11     H     0.42181  0.42181  0.00000  0.15637
      12     H     0.41712  0.41712  0.00000  0.16575

   Total alpha = 17.00000, Total beta = 17.00000, Total charge =  0.00000
