  ==> Input File <==

--------------------------------------------------------------------------
set {
	reference rhf
	basis 6-31G*
}

set_num_threads( 4 )
memory 2 gb

molecule MOL {
0 1

H	 -3.261111	 -0.295142	 1.469456
C	 -3.306842	 -0.277400	 0.373456
C	 -2.660244	 0.921717	 -0.272021
O	 -3.838538	 -1.161155	 -0.216482
C	 -1.220012	 1.144545	 0.209990
H	 -2.705793	 0.797307	 -1.347733
H	 -3.263782	 1.790044	 -0.010477
C	 -0.252658	 0.041456	 -0.226725
H	 -0.873521	 2.100229	 -0.171974
H	 -1.211708	 1.231594	 1.295398
C	 1.180775	 0.282413	 0.250794
H	 -0.266029	 -0.034465	 -1.312038
H	 -0.597733	 -0.921000	 0.146291
C	 2.148627	 -0.814315	 -0.201312
H	 1.516199	 1.249228	 -0.115937
H	 1.192670	 0.346017	 1.338083
C	 3.580890	 -0.659131	 0.322722
H	 2.166869	 -0.852443	 -1.289387
H	 1.762857	 -1.776509	 0.128956
C	 4.134686	 -1.894572	 1.034491
H	 3.604283	 0.180017	 1.013541
H	 4.238926	 -0.391246	 -0.501382
H	 3.487550	 -2.195471	 1.854213
H	 4.233031	 -2.740793	 0.362767
H	 5.118057	 -1.692129	 1.448004

	symmetry c1
}
set optking {
	frozen_dihedral = ("
		20 17 14 18
	")
}

ee = optimize('scf')
oeprop('DIPOLE', 'QUADRUPOLE', 'MULLIKEN_CHARGES')
f=open( 'psi4out.xyz', 'w' )
f.write( "25  " )
f.write( str(ee) + "\n" )
f.write( MOL.save_string_xyz() )
f.close()
--------------------------------------------------------------------------

    Molecular point group: c1
  Charge       = 0
  Multiplicity = 1
  Basis Set: 6-31G*
  Basis Set:
  @DF-RHF Final Energy:  -387.11776318972159
    Total Energy =                       -387.1177631897216997
    Molecular point group: c1
  Basis Set: 6-31G*
  Basis Set:
  Basis Set: 6-31G*
  Basis Set:
  @DF-RHF Final Energy:  -387.11808713630728
    Total Energy =                       -387.1180871363065989
  Basis Set: 6-31G*
  Basis Set:
  Basis Set: 6-31G*
  Basis Set:
  @DF-RHF Final Energy:  -387.11822277714862
    Total Energy =                       -387.1182227771487305
  Basis Set: 6-31G*
  Basis Set:
  Basis Set: 6-31G*
  Basis Set:
  @DF-RHF Final Energy:  -387.11831931572419
    Total Energy =                       -387.1183193157243068
  Basis Set: 6-31G*
  Basis Set:
  @DF-RHF Final Energy:  -387.11834370665116
    Total Energy =                       -387.1183437066511033
  @DF-RHF Final Energy:  -387.11835147106342
    Total Energy =                       -387.1183514710638747
  Basis Set: 6-31G*
  Basis Set:
  @DF-RHF Final Energy:  -387.11835362745188
    Total Energy =                       -387.1183536274520520
  Basis Set: 6-31G*
  Basis Set:
  Basis Set: 6-31G*
  Basis Set:
  @DF-RHF Final Energy:  -387.11834597974229
    Total Energy =                       -387.1183459797420028
  Basis Set: 6-31G*
  Basis Set:
  Basis Set: 6-31G*
  Basis Set:
  @DF-RHF Final Energy:  -387.11835556846501
    Total Energy =                       -387.1183555684656312
  Basis Set: 6-31G*
  Basis Set:
  Charge       = 0
  Multiplicity = 1
  Basis Set: 6-31G*
  Basis Set:

    Orbital Energies (a.u.)
    -----------------------

    Doubly Occupied:

       1A    -20.562030     2A    -11.326184     3A    -11.235400
       4A    -11.234695     5A    -11.223760     6A    -11.220561
       7A    -11.217400     8A    -11.216483     9A    -11.210586
      10A     -1.401971    11A     -1.103475    12A     -1.068206
      13A     -1.014608    14A     -0.943268    15A     -0.868253
      16A     -0.815664    17A     -0.793629    18A     -0.787106
      19A     -0.664177    20A     -0.662973    21A     -0.634389
      22A     -0.619867    23A     -0.600668    24A     -0.598037
      25A     -0.568924    26A     -0.551701    27A     -0.537127
      28A     -0.521810    29A     -0.508732    30A     -0.497310
      31A     -0.487376    32A     -0.479438    33A     -0.466697
      34A     -0.459381    35A     -0.439097    36A     -0.409554

  @DF-RHF Final Energy:  -387.11835559634233

   => Energetics <=

    Nuclear Repulsion Energy =            436.1069119611493079
    One-Electron Energy =               -1388.5494621476368593
    Two-Electron Energy =                 565.3241945901463623
    DFT Exchange-Correlation Energy =       0.0000000000000000
    Empirical Dispersion Energy =           0.0000000000000000
    PCM Polarization Energy =               0.0000000000000000
    EFP Energy =                            0.0000000000000000
    Total Energy =                       -387.1183555963411891
    Molecular point group: c1
  Basis Set: 6-31G*
  Basis Set:

  -Total Gradient:
     Atom            X                  Y                   Z
    ------   -----------------  -----------------  -----------------
       1       -0.000003749765     0.000004764522     0.000000050472
       2        0.000014997166    -0.000014352984     0.000003724955
       3       -0.000004533675     0.000009452199    -0.000006257872
       4       -0.000002117225     0.000008037302    -0.000001021239
       5       -0.000003402632    -0.000005539507     0.000006028662
       6       -0.000000497487     0.000000389104    -0.000001859711
       7        0.000002093275    -0.000000357098    -0.000001311555
       8       -0.000001725561    -0.000007887219     0.000002158752
       9       -0.000000744233    -0.000001211086     0.000000455509
      10       -0.000003681388     0.000001090762     0.000003034450
      11       -0.000001094333    -0.000001263324    -0.000004842715
      12       -0.000005551912    -0.000001732926    -0.000000271272
      13        0.000002855405    -0.000000148642    -0.000001284804
      14        0.000136555624    -0.002192037456     0.000605208129
      15       -0.000006188139    -0.000005106902    -0.000006269818
      16        0.000010027662    -0.000001994058    -0.000001678446
      17        0.000616659415    -0.000252688771    -0.001742887005
      18       -0.000269989223     0.001957784751    -0.000101436508
      19       -0.000003067131     0.000003575813    -0.000003122899
      20       -0.000483206651     0.000498290728     0.001242121076
      21       -0.000008243950    -0.000005456387     0.000004613767
      22        0.000008423848    -0.000003037657    -0.000000030426
      23        0.000004893062     0.000015452902     0.000004914320
      24       -0.000004258010    -0.000001357880     0.000009055125
      25        0.000005545865    -0.000004666185    -0.000009090949

  **** Optimization is complete! (in 10 steps) ****
    Final optimized geometry and variables:
    Molecular point group: c1

    Geometry (in Angstrom), charge = 0, multiplicity = 1:

    H           -3.280100164727    -0.005770942692     1.288480902929
    C           -3.304954761881     0.030535936253     0.192173823360
    C           -2.628231680756     1.229968989428    -0.421169733691
    O           -3.844289134897    -0.832190159024    -0.421555449616
    C           -1.191890518717     1.419023965917     0.086429308219
    H           -2.659189835606     1.125684331110    -1.499588721242
    H           -3.220923211508     2.103650557788    -0.153037116408
    C           -0.235469360694     0.309805611620    -0.359161561141
    H           -0.824228420997     2.377007783703    -0.269608132195
    H           -1.198593986337     1.482739677207     1.173285948663
    C            1.195789668864     0.522755272823     0.135067504102
    H           -0.239531161757     0.252376983738    -1.445711740307
    H           -0.597200579375    -0.654158957189    -0.005697121061
    C            2.158738303060    -0.582013189258    -0.308624939679
    H            1.561791933323     1.483326212223    -0.223933247235
    H            1.197816230700     0.583770077776     1.222300327033
    C            3.609510527120    -0.358768024378     0.173360166905
    H            2.135677037992    -0.639915667939    -1.393857284091
    H            1.789961081586    -1.537529524089     0.056484019962
    C            4.208292958694    -1.572909946219     0.884193688448
    H            3.639101786583     0.487969223202     0.854868729990
    H            4.241240183382    -0.085152819607    -0.666695701427
    H            3.627663502329    -1.831878862328     1.765157416319
    H            4.223870613526    -2.442498262024     0.233107683550
    H            5.228030703875    -1.379919362611     1.203232294528

  Mulliken Charges: (a.u.)
   Center  Symbol    Alpha    Beta     Spin     Total
       1     H     0.43262  0.43262  0.00000  0.13476
       2     C     2.83083  2.83083  0.00000  0.33835
       3     C     3.20812  3.20812  0.00000 -0.41625
       4     O     4.23775  4.23775  0.00000 -0.47551
       5     C     3.16654  3.16654  0.00000 -0.33308
       6     H     0.39972  0.39972  0.00000  0.20056
       7     H     0.40661  0.40661  0.00000  0.18678
       8     C     3.15569  3.15569  0.00000 -0.31139
       9     H     0.41279  0.41279  0.00000  0.17441
      10     H     0.41961  0.41961  0.00000  0.16078
      11     C     3.15468  3.15468  0.00000 -0.30937
      12     H     0.41810  0.41810  0.00000  0.16381
      13     H     0.41835  0.41835  0.00000  0.16329
      14     C     3.15491  3.15491  0.00000 -0.30981
      15     H     0.42239  0.42239  0.00000  0.15522
      16     H     0.42332  0.42332  0.00000  0.15336
      17     C     3.15525  3.15525  0.00000 -0.31050
      18     H     0.42008  0.42008  0.00000  0.15984
      19     H     0.41937  0.41937  0.00000  0.16125
      20     C     3.23989  3.23989  0.00000 -0.47979
      21     H     0.42077  0.42077  0.00000  0.15847
      22     H     0.41960  0.41960  0.00000  0.16080
      23     H     0.42200  0.42200  0.00000  0.15601
      24     H     0.42075  0.42075  0.00000  0.15849
      25     H     0.42025  0.42025  0.00000  0.15951

   Total alpha = 36.00000, Total beta = 36.00000, Total charge =  0.00000
