  ==> Input File <==

--------------------------------------------------------------------------
set {
	reference rhf
	basis 6-31G*
}

set_num_threads( 4 )
memory 2 gb

molecule MOL {
0 1

H	 -2.387681	 -1.151568	 2.014874
C	 -1.877631	 -0.719505	 1.174311
C	 -2.581242	 -0.081175	 0.167130
C	 -0.504123	 -0.795667	 1.086990
H	 -3.652951	 -0.011216	 0.216997
C	 -1.911610	 0.470466	 -0.908980
H	 0.068790	 -1.281925	 1.848634
C	 0.154804	 -0.237046	 -0.000077
H	 -2.475615	 0.961736	 -1.680114
C	 -0.524994	 0.414604	 -1.034609
N	 1.611208	 -0.370857	 -0.000034
C	 0.102923	 1.052174	 -2.254509
O	 2.274126	 0.622059	 -0.008063
O	 2.068510	 -1.474748	 0.007823
H	 0.653417	 0.330032	 -2.841532
H	 -0.677075	 1.479585	 -2.872003
H	 0.796908	 1.834998	 -1.981207

	symmetry c1
}
set optking {
	frozen_dihedral = ("
		4 8 11 13
	")
}

ee = optimize('scf')
oeprop('DIPOLE', 'QUADRUPOLE', 'MULLIKEN_CHARGES')
f=open( 'psi4out.xyz', 'w' )
f.write( "17  " )
f.write( str(ee) + "\n" )
f.write( MOL.save_string_xyz() )
f.close()
--------------------------------------------------------------------------

    Molecular point group: c1
  Charge       = 0
  Multiplicity = 1
  Basis Set: 6-31G*
  Basis Set:
  @DF-RHF Final Energy:  -473.20162141875272
    Total Energy =                       -473.2016214187528931
    Molecular point group: c1
  Basis Set: 6-31G*
  Basis Set:
  Basis Set: 6-31G*
  Basis Set:
  @DF-RHF Final Energy:  -473.19680151393715
    Total Energy =                       -473.1968015139370891
  Basis Set: 6-31G*
  Basis Set:
  Basis Set: 6-31G*
  Basis Set:
  @DF-RHF Final Energy:  -473.20230636166707
    Total Energy =                       -473.2023063616676382
  Basis Set: 6-31G*
  Basis Set:
  Basis Set: 6-31G*
  Basis Set:
  @DF-RHF Final Energy:  -473.20361691948250
    Total Energy =                       -473.2036169194826698
  Basis Set: 6-31G*
  Basis Set:
  Basis Set: 6-31G*
  Basis Set:
  @DF-RHF Final Energy:  -473.20373787821399
    Total Energy =                       -473.2037378782142696
  Basis Set: 6-31G*
  Basis Set:
  Basis Set: 6-31G*
  Basis Set:
  @DF-RHF Final Energy:  -473.20381490733081
    Total Energy =                       -473.2038149073312070
  Basis Set: 6-31G*
  Basis Set:
  Basis Set: 6-31G*
  Basis Set:
  @DF-RHF Final Energy:  -473.20381948444481
    Total Energy =                       -473.2038194844452619
  Basis Set: 6-31G*
  Basis Set:
  Charge       = 0
  Multiplicity = 1
  Basis Set: 6-31G*
  Basis Set:

    Orbital Energies (a.u.)
    -----------------------

    Doubly Occupied:

       1A    -20.603950     2A    -20.603644     3A    -15.852947
       4A    -11.301442     5A    -11.277975     6A    -11.267546
       7A    -11.260144     8A    -11.255702     9A    -11.254764
      10A    -11.238476    11A     -1.635048    12A     -1.418546
      13A     -1.201869    14A     -1.092124    15A     -1.072852
      16A     -0.979452    17A     -0.934721    18A     -0.852191
      19A     -0.820270    20A     -0.771396    21A     -0.733584
      22A     -0.728594    23A     -0.695310    24A     -0.654971
      25A     -0.636719    26A     -0.599773    27A     -0.597045
      28A     -0.568914    29A     -0.541668    30A     -0.525695
      31A     -0.520633    32A     -0.490871    33A     -0.479827
      34A     -0.449401    35A     -0.365186    36A     -0.353534

  @DF-RHF Final Energy:  -473.20382033934169

   => Energetics <=

    Nuclear Repulsion Energy =            509.8914937444248494
    One-Electron Energy =               -1654.9170627712794612
    Two-Electron Energy =                 671.8217486875130362
    DFT Exchange-Correlation Energy =       0.0000000000000000
    Empirical Dispersion Energy =           0.0000000000000000
    PCM Polarization Energy =               0.0000000000000000
    EFP Energy =                            0.0000000000000000
    Total Energy =                       -473.2038203393415188
    Molecular point group: c1
  Basis Set: 6-31G*
  Basis Set:

  -Total Gradient:
     Atom            X                  Y                   Z
    ------   -----------------  -----------------  -----------------
       1        0.000015334127    -0.000012089656     0.000003960414
       2       -0.000116648614     0.000025285898    -0.000037497009
       3       -0.000016124790    -0.000062593139     0.000113149268
       4        0.000369423231     0.003233593592     0.001696952282
       5        0.000008541690     0.000016526835    -0.000005136698
       6        0.000125775550    -0.000002068239    -0.000117462588
       7       -0.000000184213    -0.000025398579     0.000014912235
       8       -0.000290562035    -0.004548827097    -0.000786414035
       9       -0.000014910114    -0.000004456843    -0.000003388238
      10       -0.000122216945     0.000133809690     0.000019529441
      11       -0.000098728200     0.001238237404    -0.005092820062
      12       -0.000026715098    -0.000087789553    -0.000071174975
      13        0.000112809984     0.000116576355     0.004234813319
      14        0.000036008446    -0.000087753749     0.000002367836
      15       -0.000010108127     0.000025706192     0.000000930534
      16        0.000010546053     0.000003529749     0.000003073683
      17        0.000017759053     0.000037711144     0.000024204591

  **** Optimization is complete! (in 8 steps) ****
    Final optimized geometry and variables:
    Molecular point group: c1

    Geometry (in Angstrom), charge = 0, multiplicity = 1:

    H           -2.350861095440    -1.024903627069     2.247120212227
    C           -1.848199369481    -0.602487654995     1.397101966364
    C           -2.560849428635     0.056977862861     0.410186281172
    C           -0.475964496185    -0.720087102372     1.276723262567
    H           -3.629188742435     0.146624833486     0.488034512199
    C           -1.907727908342     0.602863843752    -0.682676836680
    H            0.106436047550    -1.239943629168     2.013298030400
    C            0.147902278135    -0.161103062527     0.179815877753
    H           -2.477837950343     1.105358627726    -1.442966840817
    C           -0.526713765319     0.525354036682    -0.820646111583
    N            1.605726691111    -0.260390065845     0.137984460742
    C            0.170263070146     1.150249433114    -2.007018995746
    O            2.226298133514     0.758413968977     0.104938712836
    O            2.081424631559    -1.353513260437     0.187676691442
    H            0.906675838956     0.482445431993    -2.438581518229
    H           -0.552998975333     1.392337983161    -2.775234556690
    H            0.683715542895     2.058840777117    -1.717686491732

  Mulliken Charges: (a.u.)
   Center  Symbol    Alpha    Beta     Spin     Total
       1     H     0.38970  0.38970  0.00000  0.22061
       2     C     3.11030  3.11030  0.00000 -0.22060
       3     C     3.08607  3.08607  0.00000 -0.17214
       4     C     3.08216  3.08216  0.00000 -0.16431
       5     H     0.39071  0.39071  0.00000  0.21858
       6     C     3.12092  3.12092  0.00000 -0.24184
       7     H     0.37368  0.37368  0.00000  0.25265
       8     C     2.91492  2.91492  0.00000  0.17016
       9     H     0.39271  0.39271  0.00000  0.21458
      10     C     2.96630  2.96630  0.00000  0.06741
      11     N     3.26397  3.26397  0.00000  0.47207
      12     C     3.25170  3.25170  0.00000 -0.50339
      13     O     4.22642  4.22642  0.00000 -0.45283
      14     O     4.22518  4.22518  0.00000 -0.45036
      15     H     0.40334  0.40334  0.00000  0.19331
      16     H     0.41027  0.41027  0.00000  0.17946
      17     H     0.39168  0.39168  0.00000  0.21665

   Total alpha = 36.00000, Total beta = 36.00000, Total charge = -0.00000
