  ==> Input File <==

--------------------------------------------------------------------------
set {
	reference rhf
	basis cc-pvtz
}

set_num_threads( 4 )
memory 2 gb

molecule MOL {
0 1

H	 -2.498963	 -0.741158	 -0.729149
O	 -2.346257	 -0.289210	 0.080372
C	 -1.183935	 0.486039	 -0.009831
C	 0.062853	 -0.375310	 0.027457
H	 -1.178881	 1.094526	 -0.908634
H	 -1.184406	 1.155156	 0.838676
O	 1.172093	 0.457955	 -0.054438
H	 0.052476	 -1.081302	 -0.804627
H	 0.076323	 -0.955658	 0.947560
C	 1.238249	 1.222275	 -1.213171
H	 0.378728	 1.882883	 -1.303132
H	 2.134737	 1.822675	 -1.163016
H	 1.284865	 0.595363	 -2.100486

	symmetry c1
}
set optking {
	frozen_dihedral = ("
		10 7 4 8
	")
}

ee = optimize('scf')
oeprop('DIPOLE', 'QUADRUPOLE', 'MULLIKEN_CHARGES')
f=open( 'psi4out.xyz', 'w' )
f.write( "13  " )
f.write( str(ee) + "\n" )
f.write( MOL.save_string_xyz() )
f.close()
--------------------------------------------------------------------------

    Molecular point group: c1
  Charge       = 0
  Multiplicity = 1
  Basis Set: CC-PVTZ
  Basis Set:
  @DF-RHF Final Energy:  -268.05145406329041
    Total Energy =                       -268.0514540632902367
    Molecular point group: c1
  Basis Set: CC-PVTZ
  Basis Set:
  Basis Set: CC-PVTZ
  Basis Set:
  @DF-RHF Final Energy:  -268.05296810581649
    Total Energy =                       -268.0529681058164897
  Basis Set: CC-PVTZ
  Basis Set:
  Basis Set: CC-PVTZ
  Basis Set:
  @DF-RHF Final Energy:  -268.05707962914062
    Total Energy =                       -268.0570796291405031
  Basis Set: CC-PVTZ
  Basis Set:
  Basis Set: CC-PVTZ
  Basis Set:
  @DF-RHF Final Energy:  -268.05793332872867
    Total Energy =                       -268.0579333287286659
  Basis Set: CC-PVTZ
  Basis Set:
  Basis Set: CC-PVTZ
  Basis Set:
  @DF-RHF Final Energy:  -268.05808220222696
    Total Energy =                       -268.0580822022267853
  Basis Set: CC-PVTZ
  Basis Set:
  Basis Set: CC-PVTZ
  Basis Set:
  @DF-RHF Final Energy:  -268.05809783680240
    Total Energy =                       -268.0580978368022897
  Basis Set: CC-PVTZ
  Basis Set:
  Basis Set: CC-PVTZ
  Basis Set:
  @DF-RHF Final Energy:  -268.05809937997373
    Total Energy =                       -268.0580993799736120
  Basis Set: CC-PVTZ
  Basis Set:
  Charge       = 0
  Multiplicity = 1
  Basis Set: CC-PVTZ
  Basis Set:

    Orbital Energies (a.u.)
    -----------------------

    Doubly Occupied:

       1A    -20.556161     2A    -20.555020     3A    -11.271232
       4A    -11.269499     5A    -11.268585     6A     -1.389167
       7A     -1.371701     8A     -1.014755     9A     -0.932811
      10A     -0.834972    11A     -0.713005    12A     -0.676114
      13A     -0.666011    14A     -0.637255    15A     -0.601060
      16A     -0.576257    17A     -0.535674    18A     -0.498279
      19A     -0.494101    20A     -0.454140    21A     -0.410283

  @DF-RHF Final Energy:  -268.05809959256737

   => Energetics <=

    Nuclear Repulsion Energy =            192.6114493909984731
    One-Electron Energy =                -747.8869363794425453
    Two-Electron Energy =                 287.2173873958765284
    DFT Exchange-Correlation Energy =       0.0000000000000000
    Empirical Dispersion Energy =           0.0000000000000000
    PCM Polarization Energy =               0.0000000000000000
    EFP Energy =                            0.0000000000000000
    Total Energy =                       -268.0580995925675438
    Molecular point group: c1
  Basis Set: CC-PVTZ
  Basis Set:

  -Total Gradient:
     Atom            X                  Y                   Z
    ------   -----------------  -----------------  -----------------
       1       -0.000002159445     0.000011850658     0.000000907011
       2        0.000006020086    -0.000012426576     0.000007220610
       3       -0.000011162388     0.000006664524    -0.000007400569
       4       -0.001764172773     0.002386745382    -0.001272841755
       5        0.000000329249     0.000002405959    -0.000009508381
       6        0.000000789479    -0.000006883759     0.000001165331
       7        0.001653468714    -0.002340476331    -0.000726902266
       8        0.001048406749    -0.001426234268     0.001272243270
       9       -0.000003833856     0.000018644941    -0.000007542030
      10       -0.000923351165     0.001357112005     0.000745275905
      11       -0.000003907312     0.000004644785    -0.000001876135
      12        0.000001470054    -0.000001967565    -0.000004658647
      13       -0.000001897399    -0.000000079755     0.000003917655

  **** Optimization is complete! (in 8 steps) ****
    Final optimized geometry and variables:
    Molecular point group: c1

    Geometry (in Angstrom), charge = 0, multiplicity = 1:

    H           -2.266836113894    -1.217864131345    -0.336831753608
    O           -2.119994889926    -0.691184385342     0.427594324525
    C           -1.037126507295     0.172806813076     0.220839265752
    C            0.274059449960    -0.600096215064     0.215393748049
    H           -1.169658921315     0.738502253986    -0.696019650648
    H           -1.034162842463     0.875463197417     1.042961589317
    O            1.413789674875     0.199414503940     0.179358501723
    H            0.288483350317    -1.316861222175    -0.607906497697
    H            0.330829050339    -1.170557854762     1.131934658933
    C            1.605537675634     0.963255768962    -0.968463521150
    H            0.920135350283     1.802739574034    -1.025010535457
    H            2.614173028413     1.348800165868    -0.935491044148
    H            1.493873018538     0.362863191644    -1.869241102824

  Mulliken Charges: (a.u.)
   Center  Symbol    Alpha    Beta     Spin     Total
       1     H     0.39380  0.39380  0.00000  0.21241
       2     O     4.20170  4.20170  0.00000 -0.40340
       3     C     2.97858  2.97858  0.00000  0.04283
       4     C     2.98736  2.98736  0.00000  0.02528
       5     H     0.47126  0.47126  0.00000  0.05748
       6     H     0.44925  0.44925  0.00000  0.10150
       7     O     4.17598  4.17598  0.00000 -0.35197
       8     H     0.47689  0.47689  0.00000  0.04621
       9     H     0.44574  0.44574  0.00000  0.10852
      10     C     3.03576  3.03576  0.00000 -0.07152
      11     H     0.46844  0.46844  0.00000  0.06311
      12     H     0.44275  0.44275  0.00000  0.11450
      13     H     0.47248  0.47248  0.00000  0.05504

   Total alpha = 21.00000, Total beta = 21.00000, Total charge =  0.00000
