  ==> Input File <==

--------------------------------------------------------------------------
set {
	reference rhf
	basis cc-pvtz
}

set_num_threads( 4 )
memory 2 gb

molecule MOL {
0 1

H	 2.566890	 1.967959	 -1.954915
O	 1.636150	 1.881877	 -2.053598
C	 1.095725	 1.198123	 -1.026034
C	 1.861312	 0.705382	 0.019797
C	 -0.268889	 0.993848	 -1.037091
H	 2.924217	 0.865425	 0.026814
C	 1.261669	 0.010573	 1.050633
H	 -0.862909	 1.373148	 -1.843387
C	 -0.861704	 0.296439	 0.000000
H	 1.864056	 -0.365997	 1.854467
C	 -0.102836	 -0.198075	 1.047090
C	 -2.330689	 0.069587	 0.000000
H	 -0.571932	 -0.737991	 1.847295
O	 -2.848621	 -0.993976	 0.000000
H	 -2.934306	 0.982410	 0.000000

	symmetry c1
}
set optking {
	frozen_dihedral = ("
		11 9 12 14
	")
}

ee = optimize('scf')
oeprop('DIPOLE', 'QUADRUPOLE', 'MULLIKEN_CHARGES')
f=open( 'psi4out.xyz', 'w' )
f.write( "15  " )
f.write( str(ee) + "\n" )
f.write( MOL.save_string_xyz() )
f.close()
--------------------------------------------------------------------------

    Molecular point group: c1
  Charge       = 0
  Multiplicity = 1
  Basis Set: CC-PVTZ
  Basis Set:
  @DF-RHF Final Energy:  -418.43009311443365
    Total Energy =                       -418.4300931144335891
    Molecular point group: c1
  Basis Set: CC-PVTZ
  Basis Set:
  Basis Set: CC-PVTZ
  Basis Set:
  @DF-RHF Final Energy:  -418.42963493697448
    Total Energy =                       -418.4296349369743666
  Basis Set: CC-PVTZ
  Basis Set:
  Basis Set: CC-PVTZ
  Basis Set:
  @DF-RHF Final Energy:  -418.43019229696688
    Total Energy =                       -418.4301922969667658
  Basis Set: CC-PVTZ
  Basis Set:
  Basis Set: CC-PVTZ
  Basis Set:
  @DF-RHF Final Energy:  -418.43072646324799
    Total Energy =                       -418.4307264632481065
  Basis Set: CC-PVTZ
  Basis Set:
  Basis Set: CC-PVTZ
  Basis Set:
  @DF-RHF Final Energy:  -418.43075794266184
    Total Energy =                       -418.4307579426617849
  Basis Set: CC-PVTZ
  Basis Set:
  Charge       = 0
  Multiplicity = 1
  Basis Set: CC-PVTZ
  Basis Set:

    Orbital Energies (a.u.)
    -----------------------

    Doubly Occupied:

       1A    -20.597606     2A    -20.561344     3A    -11.331503
       4A    -11.313109     5A    -11.255012     6A    -11.249208
       7A    -11.241448     8A    -11.239759     9A    -11.236380
      10A     -1.429298    11A     -1.416006    12A     -1.172953
      13A     -1.052541    14A     -1.027401    15A     -0.902823
      16A     -0.847027    17A     -0.820014    18A     -0.742757
      19A     -0.703729    20A     -0.676428    21A     -0.672541
      22A     -0.639591    23A     -0.616289    24A     -0.608888
      25A     -0.587043    26A     -0.544662    27A     -0.540305
      28A     -0.517045    29A     -0.496290    30A     -0.427123
      31A     -0.358437    32A     -0.328975

  @DF-RHF Final Energy:  -418.43075899228620

   => Energetics <=

    Nuclear Repulsion Energy =            402.8144076467108334
    One-Electron Energy =               -1368.1832644808127952
    Two-Electron Energy =                 546.9380978418157611
    DFT Exchange-Correlation Energy =       0.0000000000000000
    Empirical Dispersion Energy =           0.0000000000000000
    PCM Polarization Energy =               0.0000000000000000
    EFP Energy =                            0.0000000000000000
    Total Energy =                       -418.4307589922862007
    Molecular point group: c1
  Basis Set: CC-PVTZ
  Basis Set:

  -Total Gradient:
     Atom            X                  Y                   Z
    ------   -----------------  -----------------  -----------------
       1        0.000007815357     0.000009950975    -0.000014631194
       2        0.000039390947     0.000015736052     0.000005843590
       3       -0.000204560653    -0.000017580959    -0.000105203944
       4        0.000012806555    -0.000103691832     0.000165569647
       5        0.000145882239     0.000082539345    -0.000009994432
       6       -0.000003180724     0.000020331193    -0.000001783944
       7        0.000148174794     0.000030704455    -0.000098897808
       8       -0.000003739204    -0.000000581716    -0.000005651691
       9        0.000774998044    -0.006466798838    -0.006051118375
      10       -0.000009006082    -0.000006439474     0.000008338657
      11       -0.000665005296     0.004388082703     0.002326476933
      12       -0.000231930662     0.002259932523     0.009815749519
      13        0.000003790328    -0.000003460183    -0.000007353650
      14       -0.000016852090    -0.000202856074    -0.006034832824
      15        0.000001416446    -0.000005868171     0.000007489515

  **** Optimization is complete! (in 6 steps) ****
    Final optimized geometry and variables:
    Molecular point group: c1

    Geometry (in Angstrom), charge = 0, multiplicity = 1:

    H            2.626409772811     1.517413627125    -1.706867721638
    O            1.694177979036     1.432524500629    -1.794495469812
    C            1.169569006102     0.743182772480    -0.763282438487
    C            1.940771591407     0.258942435288     0.277920646840
    C           -0.198316080624     0.537036812291    -0.763134640227
    H            3.001740845808     0.430191615237     0.286009195190
    C            1.341469352427    -0.437814748630     1.309927060701
    H           -0.784404250108     0.939735735060    -1.567162427088
    C           -0.779983023821    -0.192337828870     0.254811206560
    H            1.945108276933    -0.800682142591     2.119486471059
    C           -0.018242743529    -0.669734374239     1.308507719512
    C           -2.264652549719    -0.372307832443     0.259123599760
    H           -0.482338339395    -1.222107625973     2.101142877222
    O           -2.805423462838    -1.421946955087     0.292077075500
    H           -2.846699475842     0.551573799195     0.180906886818

  Mulliken Charges: (a.u.)
   Center  Symbol    Alpha    Beta     Spin     Total
       1     H     0.38617  0.38617  0.00000  0.22766
       2     O     4.17179  4.17179  0.00000 -0.34357
       3     C     2.83723  2.83723  0.00000  0.32554
       4     C     3.13783  3.13783  0.00000 -0.27565
       5     C     3.13523  3.13523  0.00000 -0.27047
       6     H     0.43229  0.43229  0.00000  0.13543
       7     C     3.05406  3.05406  0.00000 -0.10812
       8     H     0.41940  0.41940  0.00000  0.16120
       9     C     2.92783  2.92783  0.00000  0.14433
      10     H     0.41944  0.41944  0.00000  0.16111
      11     C     3.11832  3.11832  0.00000 -0.23665
      12     C     2.92554  2.92554  0.00000  0.14893
      13     H     0.41699  0.41699  0.00000  0.16601
      14     O     4.15982  4.15982  0.00000 -0.31963
      15     H     0.45807  0.45807  0.00000  0.08387

   Total alpha = 32.00000, Total beta = 32.00000, Total charge =  0.00000
