  ==> Input File <==

--------------------------------------------------------------------------
set {
	reference rhf
	basis 6-31G*
}

set_num_threads( 4 )
memory 2 gb

molecule MOL {
0 1

H	 -0.727879	 0.069849	 -1.999832
C	 -0.414394	 -0.484033	 -1.138537
C	 -0.411660	 -1.867295	 -1.131025
C	 0.000000	 0.183220	 0.000000
H	 -0.729835	 -2.404452	 -2.005206
C	 0.000000	 -2.555744	 0.000000
N	 0.000000	 1.642018	 0.000000
C	 0.414394	 -0.484034	 1.138537
H	 0.000000	 -3.630640	 0.000000
C	 0.411660	 -1.867295	 1.131025
O	 1.057097	 2.196749	 0.000000
O	 -1.057097	 2.196749	 0.000000
H	 0.727879	 0.069849	 1.999832
H	 0.729835	 -2.404452	 2.005206

	symmetry c1
}
set optking {
	frozen_dihedral = ("
		2 4 7 11
	")
}

ee = optimize('scf')
oeprop('DIPOLE', 'QUADRUPOLE', 'MULLIKEN_CHARGES')
f=open( 'psi4out.xyz', 'w' )
f.write( "14  " )
f.write( str(ee) + "\n" )
f.write( MOL.save_string_xyz() )
f.close()
--------------------------------------------------------------------------

    Molecular point group: c1
  Charge       = 0
  Multiplicity = 1
  Basis Set: 6-31G*
  Basis Set:
  @DF-RHF Final Energy:  -434.16403104636294
    Total Energy =                       -434.1640310463631067
    Molecular point group: c1
  Basis Set: 6-31G*
  Basis Set:
  Basis Set: 6-31G*
  Basis Set:
  @DF-RHF Final Energy:  -434.15863906706062
    Total Energy =                       -434.1586390670610172
  Basis Set: 6-31G*
  Basis Set:
  Basis Set: 6-31G*
  Basis Set:
  @DF-RHF Final Energy:  -434.16435774632185
    Total Energy =                       -434.1643577463216843
  Basis Set: 6-31G*
  Basis Set:
  Basis Set: 6-31G*
  Basis Set:
  @DF-RHF Final Energy:  -434.16458499855906
    Total Energy =                       -434.1645849985593486
  Basis Set: 6-31G*
  Basis Set:
  Basis Set: 6-31G*
  Basis Set:
  @DF-RHF Final Energy:  -434.16458727455682
    Total Energy =                       -434.1645872745568795
  Basis Set: 6-31G*
  Basis Set:
  Charge       = 0
  Multiplicity = 1
  Basis Set: 6-31G*
  Basis Set:

    Orbital Energies (a.u.)
    -----------------------

    Doubly Occupied:

       1A    -20.606498     2A    -20.606304     3A    -15.855639
       4A    -11.308754     5A    -11.271244     6A    -11.271032
       7A    -11.263917     8A    -11.263262     9A    -11.262117
      10A     -1.637815    11A     -1.421761    12A     -1.203143
      13A     -1.094977    14A     -1.054214    15A     -0.957357
      16A     -0.871499    17A     -0.827159    18A     -0.781103
      19A     -0.733829    20A     -0.730769    21A     -0.715221
      22A     -0.648997    23A     -0.647918    24A     -0.624040
      25A     -0.558864    26A     -0.546201    27A     -0.531957
      28A     -0.494246    29A     -0.483706    30A     -0.451912
      31A     -0.368492    32A     -0.366644

  @DF-RHF Final Energy:  -434.16458766051989

   => Energetics <=

    Nuclear Repulsion Energy =            416.4016490290329671
    One-Electron Energy =               -1416.2112922269982391
    Two-Electron Energy =                 565.6450555374458418
    DFT Exchange-Correlation Energy =       0.0000000000000000
    Empirical Dispersion Energy =           0.0000000000000000
    PCM Polarization Energy =               0.0000000000000000
    EFP Energy =                            0.0000000000000000
    Total Energy =                       -434.1645876605193735
    Molecular point group: c1
  Basis Set: 6-31G*
  Basis Set:

  -Total Gradient:
     Atom            X                  Y                   Z
    ------   -----------------  -----------------  -----------------
       1       -0.000004297330     0.000012378438    -0.000015570676
       2        0.004728514906    -0.000125482331    -0.001511159065
       3        0.000037005957     0.000002505015     0.000008057467
       4       -0.006682090756     0.000157547789     0.000047041760
       5       -0.000002844880     0.000002148696     0.000004748327
       6       -0.000000415144    -0.000001640975     0.000000924701
       7        0.001845798083     0.000019961911     0.007287982514
       8       -0.000071755410     0.000000903206    -0.000017893157
       9        0.000000127603    -0.000002573551    -0.000000350499
      10       -0.000033794374     0.000006605134    -0.000004669106
      11        0.000192510898    -0.000077508795    -0.005805033248
      12       -0.000017481692    -0.000009955580    -0.000005052197
      13        0.000005212347     0.000013089588     0.000015575554
      14        0.000003509793     0.000002021451    -0.000004602374

  **** Optimization is complete! (in 6 steps) ****
    Final optimized geometry and variables:
    Molecular point group: c1

    Geometry (in Angstrom), charge = 0, multiplicity = 1:

    H           -0.763590180891     0.081363616769    -1.980332625262
    C           -0.434536037135    -0.474596789859    -1.122841547043
    C           -0.408124705699    -1.859079931576    -1.126921950548
    C           -0.036241192383     0.181445683480     0.022399359125
    H           -0.711419575959    -2.393307189670    -2.008227347387
    C            0.006687147186    -2.551087283950     0.000258959953
    N            0.000901468037     1.641730452645     0.006555669191
    C            0.412440603696    -0.480134397288     1.145655052923
    H            0.018820740383    -3.625673862685    -0.006848683326
    C            0.412577038035    -1.864632360164     1.134264658531
    O            1.075082431750     2.158514092531     0.031834799651
    O           -1.042513443526     2.212972589134    -0.077935858545
    H            0.748906458899     0.071816523877     2.002903426725
    H            0.739832102411    -2.403301403254     2.004222128912

  Mulliken Charges: (a.u.)
   Center  Symbol    Alpha    Beta     Spin     Total
       1     H     0.37502  0.37502  0.00000  0.24996
       2     C     3.08704  3.08704  0.00000 -0.17408
       3     C     3.10389  3.10389  0.00000 -0.20778
       4     C     2.89930  2.89930  0.00000  0.20140
       5     H     0.38854  0.38854  0.00000  0.22293
       6     C     3.09249  3.09249  0.00000 -0.18498
       7     N     3.25782  3.25782  0.00000  0.48436
       8     C     3.08805  3.08805  0.00000 -0.17611
       9     H     0.39002  0.39002  0.00000  0.21996
      10     C     3.10408  3.10408  0.00000 -0.20815
      11     O     4.22504  4.22504  0.00000 -0.45008
      12     O     4.22415  4.22415  0.00000 -0.44830
      13     H     0.37602  0.37602  0.00000  0.24796
      14     H     0.38855  0.38855  0.00000  0.22291

   Total alpha = 32.00000, Total beta = 32.00000, Total charge = -0.00000
