  ==> Input File <==

--------------------------------------------------------------------------
set {
	reference rhf
	basis 6-31G*
}

set_num_threads( 1 )
memory 2 gb

molecule MOL {
0 1

O	 0.625848	 1.349995	 -0.000749
C	 0.486307	 0.169203	 0.000779
C	 1.608116	 -0.841643	 0.000302
O	 -0.698257	 -0.426125	 0.001050
C	 2.990107	 -0.200498	 -0.000684
H	 1.468623	 -1.481519	 -0.865924
H	 1.469683	 -1.481289	 0.866878
H	 3.129736	 0.423364	 -0.875135
H	 3.757882	 -0.966877	 -0.001197
H	 3.130964	 0.423383	 0.873533
C	 -1.720195	 0.142692	 0.813141
C	 -2.961627	 -0.706871	 0.641672
H	 -1.889239	 1.164737	 0.502606
H	 -1.385498	 0.158654	 1.841399
H	 -3.280824	 -0.717013	 -0.394266
H	 -3.769344	 -0.306932	 1.246064
H	 -2.774451	 -1.728628	 0.951889

	symmetry c1
}
set optking {
	frozen_dihedral = ("
		2 4 11 13,
		4 2 3 6
	")
}

ee = energy('scf')
oeprop('DIPOLE', 'QUADRUPOLE', 'MULLIKEN_CHARGES')
f=open( 'psi4out.xyz', 'w' )
f.write( "17  " )
f.write( str(ee) + "\n" )
f.write( MOL.save_string_xyz() )
f.close()
--------------------------------------------------------------------------

    Molecular point group: c1

    Geometry (in Angstrom), charge = 0, multiplicity = 1:

       Center              X                  Y                   Z               Mass
    ------------   -----------------  -----------------  -----------------  -----------------
           O          0.591256015651     1.418729610707    -0.212819443065    15.994914619560
           C          0.451715015651     0.237937610707    -0.211291443065    12.000000000000
           C          1.573524015651    -0.772908389293    -0.211768443065    12.000000000000
           O         -0.732848984349    -0.357390389293    -0.211020443065    15.994914619560
           C          2.955515015651    -0.131763389293    -0.212754443065    12.000000000000
           H          1.434031015651    -1.412784389293    -1.077994443065     1.007825032070
           H          1.435091015651    -1.412554389293     0.654807556935     1.007825032070
           H          3.095144015651     0.492098610707    -1.087205443065     1.007825032070
           H          3.723290015651    -0.898142389293    -0.213267443065     1.007825032070
           H          3.096372015651     0.492117610707     0.661462556935     1.007825032070
           C         -1.754786984349     0.211426610707     0.601070556935    12.000000000000
           C         -2.996218984349    -0.638136389293     0.429601556935    12.000000000000
           H         -1.923830984349     1.233471610707     0.290535556935     1.007825032070
           H         -1.420089984349     0.227388610707     1.629328556935     1.007825032070
           H         -3.315415984349    -0.648278389293    -0.606336443065     1.007825032070
           H         -3.803935984349    -0.238197389293     1.033993556935     1.007825032070
           H         -2.809042984349    -1.659893389293     0.739818556935     1.007825032070

  Charge       = 0
  Multiplicity = 1
  Basis Set: 6-31G*
  Basis Set:

    Orbital Energies (a.u.)
    -----------------------

    Doubly Occupied:

       1A    -20.593256     2A    -20.547442     3A    -11.371803
       4A    -11.288923     5A    -11.237684     6A    -11.223721
       7A    -11.215604     8A     -1.465224     9A     -1.362705
      10A     -1.068871    11A     -1.033464    12A     -0.909187
      13A     -0.852423    14A     -0.772827    15A     -0.699129
      16A     -0.684474    17A     -0.662415    18A     -0.630841
      19A     -0.593605    20A     -0.564698    21A     -0.558477
      22A     -0.525048    23A     -0.519814    24A     -0.518438
      25A     -0.503935    26A     -0.492534    27A     -0.451092
      28A     -0.433384

  @DF-RHF Final Energy:  -344.90375703837174

   => Energetics <=

    Nuclear Repulsion Energy =            314.7062098567781732
    One-Electron Energy =               -1093.6580242027137047
    Two-Electron Energy =                 434.0480573075649318
    DFT Exchange-Correlation Energy =       0.0000000000000000
    Empirical Dispersion Energy =           0.0000000000000000
    PCM Polarization Energy =               0.0000000000000000
    EFP Energy =                            0.0000000000000000
    Total Energy =                       -344.9037570383705997

  Mulliken Charges: (a.u.)
   Center  Symbol    Alpha    Beta     Spin     Total
       1     O     4.27801  4.27801  0.00000 -0.55602
       2     C     2.60532  2.60532  0.00000  0.78935
       3     C     3.20646  3.20646  0.00000 -0.41292
       4     O     4.31549  4.31549  0.00000 -0.63098
       5     C     3.23946  3.23946  0.00000 -0.47891
       6     H     0.39954  0.39954  0.00000  0.20093
       7     H     0.40382  0.40382  0.00000  0.19236
       8     H     0.40933  0.40933  0.00000  0.18134
       9     H     0.41847  0.41847  0.00000  0.16307
      10     H     0.41083  0.41083  0.00000  0.17835
      11     C     3.00478  3.00478  0.00000 -0.00955
      12     C     3.24835  3.24835  0.00000 -0.49670
      13     H     0.40374  0.40374  0.00000  0.19253
      14     H     0.41841  0.41841  0.00000  0.16317
      15     H     0.40905  0.40905  0.00000  0.18190
      16     H     0.41659  0.41659  0.00000  0.16682
      17     H     0.41236  0.41236  0.00000  0.17527

   Total alpha = 28.00000, Total beta = 28.00000, Total charge =  0.00000
