  ==> Input File <==

--------------------------------------------------------------------------
set {
	reference rhf
	basis 6-31G*
}

set_num_threads( 1 )
memory 2 gb

molecule MOL {
0 1

O	 0.749854	 1.307668	 -0.000040
C	 0.576249	 0.131685	 -0.000108
C	 -0.766779	 -0.556801	 -0.000461
O	 1.568443	 -0.749345	 -0.000005
C	 -1.945214	 0.412366	 0.000161
H	 -0.796911	 -1.211249	 -0.867467
H	 -0.796854	 -1.212390	 0.865687
C	 -3.287791	 -0.317055	 0.000105
H	 -1.876087	 1.060580	 -0.866812
H	 -1.875822	 1.059691	 0.867761
H	 -3.394745	 -0.949193	 -0.877058
H	 -4.111778	 0.388953	 0.000015
H	 -3.394954	 -0.949187	 0.877259
C	 2.587409	 -0.569614	 0.966748
H	 3.073581	 0.386073	 0.833172
H	 3.290314	 -1.372318	 0.807197
H	 2.177783	 -0.623343	 1.965162

	symmetry c1
}
set optking {
	frozen_dihedral = ("
		1 2 3 6,
		9 5 3 6
	")
}

ee = energy('scf')
oeprop('DIPOLE', 'QUADRUPOLE', 'MULLIKEN_CHARGES')
f=open( 'psi4out.xyz', 'w' )
f.write( "17  " )
f.write( str(ee) + "\n" )
f.write( MOL.save_string_xyz() )
f.close()
--------------------------------------------------------------------------

    Molecular point group: c1

    Geometry (in Angstrom), charge = 0, multiplicity = 1:

       Center              X                  Y                   Z               Mass
    ------------   -----------------  -----------------  -----------------  -----------------
           O          0.796081165397     1.359710348249    -0.149251632842    15.994914619560
           C          0.622476165397     0.183727348249    -0.149319632842    12.000000000000
           C         -0.720551834603    -0.504758651751    -0.149672632842    12.000000000000
           O          1.614670165397    -0.697302651751    -0.149216632842    15.994914619560
           C         -1.898986834603     0.464408348249    -0.149050632842    12.000000000000
           H         -0.750683834603    -1.159206651751    -1.016678632842     1.007825032070
           H         -0.750626834603    -1.160347651751     0.716475367158     1.007825032070
           C         -3.241563834603    -0.265012651751    -0.149106632842    12.000000000000
           H         -1.829859834603     1.112622348249    -1.016023632842     1.007825032070
           H         -1.829594834603     1.111733348249     0.718549367158     1.007825032070
           H         -3.348517834603    -0.897150651751    -1.026269632842     1.007825032070
           H         -4.065550834603     0.440995348249    -0.149196632842     1.007825032070
           H         -3.348726834603    -0.897144651751     0.728047367158     1.007825032070
           C          2.633636165397    -0.517571651751     0.817536367158    12.000000000000
           H          3.119808165397     0.438115348249     0.683960367158     1.007825032070
           H          3.336541165397    -1.320275651751     0.657985367158     1.007825032070
           H          2.224010165397    -0.571300651751     1.815950367158     1.007825032070

  Charge       = 0
  Multiplicity = 1
  Basis Set: 6-31G*
  Basis Set:

    Orbital Energies (a.u.)
    -----------------------

    Doubly Occupied:

       1A    -20.593430     2A    -20.550585     3A    -11.373523
       4A    -11.287539     5A    -11.236470     6A    -11.221928
       7A    -11.214883     8A     -1.466559     9A     -1.364630
      10A     -1.080155    11A     -0.999339    12A     -0.944949
      13A     -0.829514    14A     -0.767841    15A     -0.699860
      16A     -0.681139    17A     -0.673123    18A     -0.635464
      19A     -0.606720    20A     -0.576264    21A     -0.567014
      22A     -0.534618    23A     -0.518942    24A     -0.496238
      25A     -0.488777    26A     -0.479346    27A     -0.453912
      28A     -0.434901

  @DF-RHF Final Energy:  -344.89493541906131

   => Energetics <=

    Nuclear Repulsion Energy =            312.6795579828526570
    One-Electron Energy =               -1089.5937204482866036
    Two-Electron Energy =                 432.0192270463723503
    DFT Exchange-Correlation Energy =       0.0000000000000000
    Empirical Dispersion Energy =           0.0000000000000000
    PCM Polarization Energy =               0.0000000000000000
    EFP Energy =                            0.0000000000000000
    Total Energy =                       -344.8949354190615963

  Mulliken Charges: (a.u.)
   Center  Symbol    Alpha    Beta     Spin     Total
       1     O     4.27293  4.27293  0.00000 -0.54585
       2     C     2.60744  2.60744  0.00000  0.78513
       3     C     3.20809  3.20809  0.00000 -0.41619
       4     O     4.31010  4.31010  0.00000 -0.62020
       5     C     3.15280  3.15280  0.00000 -0.30559
       6     H     0.39950  0.39950  0.00000  0.20099
       7     H     0.40507  0.40507  0.00000  0.18987
       8     C     3.24256  3.24256  0.00000 -0.48513
       9     H     0.41011  0.41011  0.00000  0.17979
      10     H     0.41197  0.41197  0.00000  0.17607
      11     H     0.42104  0.42104  0.00000  0.15791
      12     H     0.41516  0.41516  0.00000  0.16967
      13     H     0.42205  0.42205  0.00000  0.15590
      14     C     3.09508  3.09508  0.00000 -0.19016
      15     H     0.40249  0.40249  0.00000  0.19501
      16     H     0.40536  0.40536  0.00000  0.18927
      17     H     0.41824  0.41824  0.00000  0.16352

   Total alpha = 28.00000, Total beta = 28.00000, Total charge =  0.00000
