  ==> Input File <==

--------------------------------------------------------------------------
set {
	reference rhf
	basis cc-pvtz
}

set_num_threads( 4 )
memory 2 gb

molecule MOL {
0 1

H	 -2.335011	 -0.519671	 0.053400
O	 -1.432053	 -0.565244	 -0.200812
C	 -0.727158	 0.534527	 0.310686
C	 0.680222	 0.664433	 -0.252229
H	 -1.306802	 1.408001	 0.044211
H	 -0.690821	 0.490158	 1.397609
C	 1.605391	 -0.489360	 0.123098
H	 0.615089	 0.745647	 -1.332226
H	 1.101414	 1.597893	 0.110950
H	 1.247627	 -1.432485	 -0.275204
H	 2.601435	 -0.332816	 -0.273062
H	 1.691776	 -0.589902	 1.200774

	symmetry c1
}
set optking {
	frozen_dihedral = ("
		1 2 3 4
	")
}

ee = optimize('scf')
oeprop('DIPOLE', 'QUADRUPOLE', 'MULLIKEN_CHARGES')
f=open( 'psi4out.xyz', 'w' )
f.write( "12  " )
f.write( str(ee) + "\n" )
f.write( MOL.save_string_xyz() )
f.close()
--------------------------------------------------------------------------

    Molecular point group: c1
  Charge       = 0
  Multiplicity = 1
  Basis Set: CC-PVTZ
  Basis Set:
  @DF-RHF Final Energy:  -193.18939677963976
    Total Energy =                       -193.1893967796396794
    Molecular point group: c1
  Basis Set: CC-PVTZ
  Basis Set:
  Basis Set: CC-PVTZ
  Basis Set:
  @DF-RHF Final Energy:  -193.19082107650127
    Total Energy =                       -193.1908210765012655
  Basis Set: CC-PVTZ
  Basis Set:
  Basis Set: CC-PVTZ
  Basis Set:
  @DF-RHF Final Energy:  -193.19117247703431
    Total Energy =                       -193.1911724770345131
  Basis Set: CC-PVTZ
  Basis Set:
  Basis Set: CC-PVTZ
  Basis Set:
  @DF-RHF Final Energy:  -193.19117725513220
    Total Energy =                       -193.1911772551321178
  Basis Set: CC-PVTZ
  Basis Set:
  Charge       = 0
  Multiplicity = 1
  Basis Set: CC-PVTZ
  Basis Set:

    Orbital Energies (a.u.)
    -----------------------

    Doubly Occupied:

       1A    -20.546331     2A    -11.266136     3A    -11.212929
       4A    -11.201238     5A     -1.364402     6A     -1.047960
       7A     -0.919092     8A     -0.798794     9A     -0.708185
      10A     -0.644062    11A     -0.586116    12A     -0.580848
      13A     -0.539925    14A     -0.499182    15A     -0.481916
      16A     -0.465121    17A     -0.436419

  @DF-RHF Final Energy:  -193.19117806423202

   => Energetics <=

    Nuclear Repulsion Energy =            133.4193575700393239
    One-Electron Energy =                -526.6237548639650186
    Two-Electron Energy =                 200.0132192296936466
    DFT Exchange-Correlation Energy =       0.0000000000000000
    Empirical Dispersion Energy =           0.0000000000000000
    PCM Polarization Energy =               0.0000000000000000
    EFP Energy =                            0.0000000000000000
    Total Energy =                       -193.1911780642320480
    Molecular point group: c1
  Basis Set: CC-PVTZ
  Basis Set:

  -Total Gradient:
     Atom            X                  Y                   Z
    ------   -----------------  -----------------  -----------------
       1       -0.000166451530     0.000451883989    -0.000726949024
       2        0.000175433364    -0.000389123205     0.000753627411
       3        0.000211867032    -0.000321545869     0.000398468176
       4       -0.000200253292     0.000248040981    -0.000434609726
       5        0.000005191556    -0.000008180815    -0.000005343699
       6        0.000007266672    -0.000009073245    -0.000008490928
       7       -0.000005134722     0.000001853134     0.000018683273
       8       -0.000009632476     0.000002203205    -0.000008703015
       9       -0.000011043547     0.000012510324    -0.000003099805
      10       -0.000000327569     0.000008849448    -0.000003991654
      11       -0.000015452490     0.000017932496     0.000008384748
      12        0.000008537005    -0.000015350442     0.000012024243

  **** Optimization is complete! (in 5 steps) ****
    Final optimized geometry and variables:
    Molecular point group: c1

    Geometry (in Angstrom), charge = 0, multiplicity = 1:

    H           -2.256849846242    -0.598987984451     0.007382307792
    O           -1.344292813893    -0.594968367312    -0.213573632989
    C           -0.721285773868     0.542669101958     0.323960282224
    C            0.679090610923     0.657641142724    -0.246456287601
    H           -1.287028316780     1.436746794825     0.074938347342
    H           -0.676131576692     0.472356238445     1.409155720493
    C            1.586349781235    -0.509755041342     0.127622995652
    H            0.603959784304     0.735469248395    -1.326018767435
    H            1.111071395363     1.588664952528     0.109233394848
    H            1.179023503743    -1.446237865526    -0.229177292031
    H            2.573137873706    -0.383941541751    -0.302707115265
    H            1.701735167231    -0.583812598125     1.204350014753

  Mulliken Charges: (a.u.)
   Center  Symbol    Alpha    Beta     Spin     Total
       1     H     0.39476  0.39476  0.00000  0.21048
       2     O     4.19960  4.19960  0.00000 -0.39921
       3     C     2.96840  2.96840  0.00000  0.06321
       4     C     3.08251  3.08251  0.00000 -0.16502
       5     H     0.46738  0.46738  0.00000  0.06525
       6     H     0.47486  0.47486  0.00000  0.05027
       7     C     3.14794  3.14794  0.00000 -0.29588
       8     H     0.45347  0.45347  0.00000  0.09305
       9     H     0.45588  0.45588  0.00000  0.08825
      10     H     0.44498  0.44498  0.00000  0.11003
      11     H     0.45112  0.45112  0.00000  0.09777
      12     H     0.45910  0.45910  0.00000  0.08180

   Total alpha = 17.00000, Total beta = 17.00000, Total charge = -0.00000
