  ==> Input File <==

--------------------------------------------------------------------------
set {
	reference rhf
	basis cc-pvtz
}

set_num_threads( 4 )
memory 2 gb

molecule MOL {
0 1

O	 -1.510770	 1.240811	 -0.054933
C	 -1.081510	 0.147522	 0.122720
C	 0.327029	 -0.064006	 0.641890
C	 -1.903028	 -1.084121	 -0.174656
C	 1.349460	 -0.017068	 -0.500215
H	 0.399029	 -1.014606	 1.159950
H	 0.538021	 0.726928	 1.350471
C	 2.782249	 -0.179583	 -0.005797
H	 1.127623	 -0.796792	 -1.223165
H	 1.244481	 0.927951	 -1.020065
H	 3.484097	 -0.131399	 -0.829882
H	 2.920677	 -1.133128	 0.492541
H	 3.042387	 0.603182	 0.698105
H	 -1.341891	 -1.779207	 -0.789259
H	 -2.820449	 -0.808163	 -0.671328
H	 -2.133314	 -1.593056	 0.755831

	symmetry c1
}
set optking {
	frozen_dihedral = ("
		9 5 3 2
	")
}

ee = optimize('scf')
oeprop('DIPOLE', 'QUADRUPOLE', 'MULLIKEN_CHARGES')
f=open( 'psi4out.xyz', 'w' )
f.write( "16  " )
f.write( str(ee) + "\n" )
f.write( MOL.save_string_xyz() )
f.close()
--------------------------------------------------------------------------

    Molecular point group: c1
  Charge       = 0
  Multiplicity = 1
  Basis Set: CC-PVTZ
  Basis Set:
  @DF-RHF Final Energy:  -270.12944647732093
    Total Energy =                       -270.1294464773212667
    Molecular point group: c1
  Basis Set: CC-PVTZ
  Basis Set:
  Charge       = 0
  Multiplicity = 1
  Basis Set: CC-PVTZ
  Basis Set:

    Orbital Energies (a.u.)
    -----------------------

    Doubly Occupied:

       1A    -20.537388     2A    -11.319861     3A    -11.231437
       4A    -11.228464     5A    -11.227376     6A    -11.217495
       7A     -1.397541     8A     -1.083826     9A     -1.014241
      10A     -0.950498    11A     -0.829506    12A     -0.736589
      13A     -0.661382    14A     -0.651056    15A     -0.613718
      16A     -0.609921    17A     -0.576676    18A     -0.559623
      19A     -0.538217    20A     -0.519553    21A     -0.504869
      22A     -0.485178    23A     -0.474370    24A     -0.400566

  @DF-RHF Final Energy:  -270.12944733923950

   => Energetics <=

    Nuclear Repulsion Energy =            237.5263208736600973
    One-Electron Energy =                -836.5728369705909699
    Two-Electron Energy =                 328.9170687576910268
    DFT Exchange-Correlation Energy =       0.0000000000000000
    Empirical Dispersion Energy =           0.0000000000000000
    PCM Polarization Energy =               0.0000000000000000
    EFP Energy =                            0.0000000000000000
    Total Energy =                       -270.1294473392398459
    Molecular point group: c1
  Basis Set: CC-PVTZ
  Basis Set:

  -Total Gradient:
     Atom            X                  Y                   Z
    ------   -----------------  -----------------  -----------------
       1       -0.000046123306     0.000005397283     0.000114565461
       2        0.000169496126     0.000210373124    -0.000381803438
       3       -0.000055880442    -0.000471607783     0.000123561169
       4       -0.000076917043     0.000012103087     0.000183905404
       5       -0.000135997152     0.000511491482    -0.000124967925
       6        0.000007066123    -0.000011004371     0.000083894255
       7        0.000012515060    -0.000013260646    -0.000041172647
       8       -0.000076498048    -0.000090830973    -0.000045161950
       9        0.000180075153    -0.000185157239     0.000170323634
      10        0.000017332281     0.000047110316    -0.000044774875
      11       -0.000008682752    -0.000021675268    -0.000002814055
      12        0.000012383731     0.000003565500     0.000028427276
      13       -0.000025148446     0.000013960518    -0.000030911734
      14        0.000022835095     0.000020668187    -0.000008901073
      15        0.000006391854     0.000003600776    -0.000003086920
      16       -0.000002848234    -0.000034733991    -0.000021082581

  **** Optimization is complete! (in 2 steps) ****
    Final optimized geometry and variables:
    Molecular point group: c1

    Geometry (in Angstrom), charge = 0, multiplicity = 1:

    O           -1.513584963092     1.234950576928    -0.050656939605
    C           -1.081877951928     0.141840894050     0.121978316256
    C            0.327123611823    -0.068788047053     0.640226347801
    C           -1.902109629891    -1.090214716331    -0.177337099545
    C            1.349538580874    -0.019136229029    -0.501906077108
    H            0.400966423058    -1.018990734072     1.158815582691
    H            0.536735265402     0.722894058877     1.348329101222
    C            2.781797269059    -0.185740726155    -0.007383585670
    H            1.128056335749    -0.798259638902    -1.225545658884
    H            1.246635050468     0.927220359963    -1.019838144266
    H            3.483157098381    -0.148614195477    -0.832455375978
    H            2.915248564898    -1.135790815782     0.498963256010
    H            3.046865333561     0.601533346120     0.689552235841
    H           -1.340503476695    -1.783889372785    -0.793044029062
    H           -2.820011629769    -0.814440859407    -0.673236775828
    H           -2.131741292581    -1.600617057573     0.752529072406

  Mulliken Charges: (a.u.)
   Center  Symbol    Alpha    Beta     Spin     Total
       1     O     4.17700  4.17700  0.00000 -0.35399
       2     C     2.85762  2.85762  0.00000  0.28476
       3     C     3.09830  3.09830  0.00000 -0.19659
       4     C     3.15488  3.15488  0.00000 -0.30976
       5     C     3.09158  3.09158  0.00000 -0.18316
       6     H     0.44997  0.44997  0.00000  0.10006
       7     H     0.43944  0.43944  0.00000  0.12111
       8     C     3.14886  3.14886  0.00000 -0.29772
       9     H     0.45276  0.45276  0.00000  0.09448
      10     H     0.44118  0.44118  0.00000  0.11763
      11     H     0.44620  0.44620  0.00000  0.10760
      12     H     0.45509  0.45509  0.00000  0.08982
      13     H     0.45166  0.45166  0.00000  0.09668
      14     H     0.45097  0.45097  0.00000  0.09807
      15     H     0.43607  0.43607  0.00000  0.12786
      16     H     0.44843  0.44843  0.00000  0.10315

   Total alpha = 24.00000, Total beta = 24.00000, Total charge = -0.00000
