  ==> Input File <==

--------------------------------------------------------------------------
set {
	reference rhf
	basis 6-31G*
}

set_num_threads( 4 )
memory 2 gb

molecule MOL {
0 1

O	 0.074228	 1.262779	 -0.000085
C	 0.028650	 0.075053	 -0.000277
C	 -1.233602	 -0.752807	 0.000328
O	 1.109162	 -0.694619	 -0.000298
C	 -2.501530	 0.091881	 0.000126
H	 -1.193807	 -1.406641	 -0.865785
H	 -1.193516	 -1.405779	 0.867015
H	 -2.545121	 0.729328	 -0.874513
H	 -3.377167	 -0.548497	 0.000561
H	 -2.544818	 0.730135	 0.874258
C	 0.911551	 -2.079642	 0.219363
H	 0.456750	 -2.249951	 1.184538
H	 1.892674	 -2.526869	 0.184018
H	 0.280214	 -2.500069	 -0.550134

	symmetry c1
}
set optking {
	frozen_dihedral = ("
		11 4 2 3
	")
}

ee = optimize('scf')
oeprop('DIPOLE', 'QUADRUPOLE', 'MULLIKEN_CHARGES')
f=open( 'psi4out.xyz', 'w' )
f.write( "14  " )
f.write( str(ee) + "\n" )
f.write( MOL.save_string_xyz() )
f.close()
--------------------------------------------------------------------------

    Molecular point group: c1
  Charge       = 0
  Multiplicity = 1
  Basis Set: 6-31G*
  Basis Set:
  @DF-RHF Final Energy:  -305.84468163670215
    Total Energy =                       -305.8446816367022620
    Molecular point group: c1
  Basis Set: 6-31G*
  Basis Set:
  Basis Set: 6-31G*
  Basis Set:
  @DF-RHF Final Energy:  -305.84251849846697
    Total Energy =                       -305.8425184984665748
  Basis Set: 6-31G*
  Basis Set:
  Basis Set: 6-31G*
  Basis Set:
  @DF-RHF Final Energy:  -305.85306405100096
    Total Energy =                       -305.8530640510008425
  Basis Set: 6-31G*
  Basis Set:
  Basis Set: 6-31G*
  Basis Set:
  @DF-RHF Final Energy:  -305.85574709582403
    Total Energy =                       -305.8557470958242561
  Basis Set: 6-31G*
  Basis Set:
  @DF-RHF Final Energy:  -305.85426775186215
    Total Energy =                       -305.8542677518621531
  @DF-RHF Final Energy:  -305.85648048467016
    Total Energy =                       -305.8564804846701577
  Basis Set: 6-31G*
  Basis Set:
  @DF-RHF Final Energy:  -305.85681654165001
    Total Energy =                       -305.8568165416501756
  Basis Set: 6-31G*
  Basis Set:
  Basis Set: 6-31G*
  Basis Set:
  @DF-RHF Final Energy:  -305.85682463278459
    Total Energy =                       -305.8568246327847646
  Basis Set: 6-31G*
  Basis Set:
  Basis Set: 6-31G*
  Basis Set:
  @DF-RHF Final Energy:  -305.85682750434410
    Total Energy =                       -305.8568275043444373
  Basis Set: 6-31G*
  Basis Set:
  Charge       = 0
  Multiplicity = 1
  Basis Set: 6-31G*
  Basis Set:

    Orbital Energies (a.u.)
    -----------------------

    Doubly Occupied:

       1A    -20.603077     2A    -20.540128     3A    -11.374593
       4A    -11.297416     5A    -11.249246     6A    -11.221052
       7A     -1.464019     8A     -1.365754     9A     -1.063740
      10A     -0.987806    11A     -0.899883    12A     -0.768896
      13A     -0.706083    14A     -0.688826    15A     -0.672763
      16A     -0.626194    17A     -0.604200    18A     -0.557733
      19A     -0.555127    20A     -0.526711    21A     -0.509424
      22A     -0.504402    23A     -0.447533    24A     -0.432800

  @DF-RHF Final Energy:  -305.85682813372239

   => Energetics <=

    Nuclear Repulsion Energy =            247.5547963357875005
    One-Electron Energy =                -907.4884397503500395
    Two-Electron Energy =                 354.0768152808401510
    DFT Exchange-Correlation Energy =       0.0000000000000000
    Empirical Dispersion Energy =           0.0000000000000000
    PCM Polarization Energy =               0.0000000000000000
    EFP Energy =                            0.0000000000000000
    Total Energy =                       -305.8568281337223880
    Molecular point group: c1
  Basis Set: 6-31G*
  Basis Set:

  -Total Gradient:
     Atom            X                  Y                   Z
    ------   -----------------  -----------------  -----------------
       1       -0.000052148039     0.000029853531     0.000007478947
       2        0.000044685936     0.000081185923     0.001347323505
       3        0.000005249721     0.000005124173    -0.000627699318
       4       -0.000115738009    -0.000206278870    -0.001450802019
       5        0.000008443587    -0.000001829089     0.000004094118
       6       -0.000002266988     0.000003798574     0.000002963320
       7        0.000003475098     0.000011041661    -0.000005227001
       8       -0.000000982406     0.000002629645    -0.000005177713
       9        0.000004250913     0.000001989120    -0.000000363796
      10        0.000000460599     0.000000519904     0.000003061714
      11        0.000097634970     0.000104708624     0.000721215206
      12        0.000001015427    -0.000019262555    -0.000003545301
      13        0.000000038234    -0.000024590290    -0.000000131324
      14        0.000005880958     0.000011109651     0.000006809661

  **** Optimization is complete! (in 10 steps) ****
    Final optimized geometry and variables:
    Molecular point group: c1

    Geometry (in Angstrom), charge = 0, multiplicity = 1:

    O            0.322320000017     1.560058205739    -0.050375224830
    C            0.238872641500     0.379420965744    -0.025803323664
    C           -1.087022038418    -0.357365155537    -0.036409932650
    O            1.358593922909    -0.348764862555    -0.021088340544
    C           -2.277013000466     0.595064762688    -0.057867433159
    H           -1.106372544501    -1.010487665585    -0.904663089228
    H           -1.138802840707    -1.008598865207     0.831263179293
    H           -2.249487155286     1.230181732832    -0.933883827239
    H           -3.203453583372     0.030843519874    -0.068998314714
    H           -2.275425777864     1.237130897626     0.813762563987
    C            1.369610281473    -1.742067201290     0.179290374592
    H            0.967635826583    -2.007259528032     1.149301563820
    H            2.407008407915    -2.035204336723     0.137883306214
    H            0.824632190666    -2.266163342423    -0.595486316944

  Mulliken Charges: (a.u.)
   Center  Symbol    Alpha    Beta     Spin     Total
       1     O     4.26688  4.26688  0.00000 -0.53377
       2     C     2.60142  2.60142  0.00000  0.79717
       3     C     3.23058  3.23058  0.00000 -0.46115
       4     O     4.30177  4.30177  0.00000 -0.60354
       5     C     3.23445  3.23445  0.00000 -0.46890
       6     H     0.40264  0.40264  0.00000  0.19471
       7     H     0.40470  0.40470  0.00000  0.19060
       8     H     0.40643  0.40643  0.00000  0.18715
       9     H     0.41907  0.41907  0.00000  0.16186
      10     H     0.40740  0.40740  0.00000  0.18519
      11     C     3.09378  3.09378  0.00000 -0.18756
      12     H     0.41613  0.41613  0.00000  0.16773
      13     H     0.39759  0.39759  0.00000  0.20482
      14     H     0.41716  0.41716  0.00000  0.16568

   Total alpha = 24.00000, Total beta = 24.00000, Total charge = -0.00000
