  ==> Input File <==

--------------------------------------------------------------------------
set {
	reference rhf
	basis cc-pvtz
}

set_num_threads( 4 )
memory 2 gb

molecule MOL {
0 1

O	 -0.541282	 0.049697	 -0.577679
C	 0.485107	 0.171416	 -0.000134
C	 1.606966	 -0.836201	 0.000174
O	 0.786686	 1.228112	 0.734052
C	 2.988788	 -0.202529	 -0.000115
H	 1.465110	 -1.474645	 -0.864821
H	 1.465209	 -1.474077	 0.865596
H	 3.131767	 0.419673	 -0.873407
H	 3.750876	 -0.972315	 0.000098
H	 3.131883	 0.420264	 0.872742
C	 -0.177947	 2.266774	 0.828673
C	 0.394221	 3.348998	 1.714056
H	 -1.093234	 1.862314	 1.237339
H	 -0.394926	 2.638540	 -0.162807
H	 0.608363	 2.964937	 2.703507
H	 -0.318815	 4.159562	 1.807859
H	 1.310602	 3.745639	 1.295378

	symmetry c1
}
set optking {
	frozen_dihedral = ("
		4 2 3 6
	")
}

ee = optimize('scf')
oeprop('DIPOLE', 'QUADRUPOLE', 'MULLIKEN_CHARGES')
f=open( 'psi4out.xyz', 'w' )
f.write( "17  " )
f.write( str(ee) + "\n" )
f.write( MOL.save_string_xyz() )
f.close()
--------------------------------------------------------------------------

    Molecular point group: c1
  Charge       = 0
  Multiplicity = 1
  Basis Set: CC-PVTZ
  Basis Set:
  @DF-RHF Final Energy:  -345.03798669946349
    Total Energy =                       -345.0379866994630902
    Molecular point group: c1
  Basis Set: CC-PVTZ
  Basis Set:
  Basis Set: CC-PVTZ
  Basis Set:
  @DF-RHF Final Energy:  -345.03823022995556
    Total Energy =                       -345.0382302299556159
  Basis Set: CC-PVTZ
  Basis Set:
  Basis Set: CC-PVTZ
  Basis Set:
  @DF-RHF Final Energy:  -345.03750437337254
    Total Energy =                       -345.0375043733724283
  Basis Set: CC-PVTZ
  Basis Set:
  Basis Set: CC-PVTZ
  Basis Set:
  @DF-RHF Final Energy:  -345.03858489629897
    Total Energy =                       -345.0385848962990849
  Basis Set: CC-PVTZ
  Basis Set:
  Basis Set: CC-PVTZ
  Basis Set:
  @DF-RHF Final Energy:  -345.03859822196739
    Total Energy =                       -345.0385982219676180
  Basis Set: CC-PVTZ
  Basis Set:
  Charge       = 0
  Multiplicity = 1
  Basis Set: CC-PVTZ
  Basis Set:

    Orbital Energies (a.u.)
    -----------------------

    Doubly Occupied:

       1A    -20.595196     2A    -20.530166     3A    -11.363311
       4A    -11.283178     5A    -11.235809     6A    -11.221036
       7A    -11.220412     8A     -1.471002     9A     -1.363498
      10A     -1.073404    11A     -1.031076    12A     -0.906971
      13A     -0.860329    14A     -0.780033    15A     -0.693852
      16A     -0.680047    17A     -0.675836    18A     -0.627637
      19A     -0.583880    20A     -0.574296    21A     -0.553550
      22A     -0.548150    23A     -0.524558    24A     -0.513189
      25A     -0.506399    26A     -0.493140    27A     -0.455577
      28A     -0.434165

  @DF-RHF Final Energy:  -345.03859872608871

   => Energetics <=

    Nuclear Repulsion Energy =            317.9361640681643166
    One-Electron Energy =               -1100.3501297292741583
    Two-Electron Energy =                 437.3753669350213613
    DFT Exchange-Correlation Energy =       0.0000000000000000
    Empirical Dispersion Energy =           0.0000000000000000
    PCM Polarization Energy =               0.0000000000000000
    EFP Energy =                            0.0000000000000000
    Total Energy =                       -345.0385987260884804
    Molecular point group: c1
  Basis Set: CC-PVTZ
  Basis Set:

  -Total Gradient:
     Atom            X                  Y                   Z
    ------   -----------------  -----------------  -----------------
       1        0.000063214596     0.000029357709     0.000023455881
       2       -0.000366662171    -0.000399211373     0.000521739220
       3       -0.000451267688    -0.000479605733     0.000350344100
       4        0.000274254399     0.000398312662    -0.000467409745
       5        0.000015976085     0.000007126265    -0.000015542208
       6        0.000451942453     0.000483135225    -0.000406513277
       7        0.000011439313     0.000009659141    -0.000004802820
       8       -0.000001878358     0.000003381661    -0.000004556245
       9        0.000005119585    -0.000009763373     0.000001215328
      10       -0.000019149965    -0.000007888624    -0.000003453027
      11        0.000020899558    -0.000060980132     0.000017311289
      12       -0.000000215079     0.000007873094    -0.000002377029
      13       -0.000004026975     0.000014080247    -0.000000741525
      14       -0.000004490285     0.000006288211    -0.000009869443
      15        0.000001040174    -0.000000950384     0.000001890646
      16        0.000001156967    -0.000002980700    -0.000002032517
      17        0.000002647389     0.000002166104     0.000001341371

  **** Optimization is complete! (in 6 steps) ****
    Final optimized geometry and variables:
    Molecular point group: c1

    Geometry (in Angstrom), charge = 0, multiplicity = 1:

    O           -1.320749453410    -0.829661914521    -0.957605796427
    C           -0.289503152009    -0.688172611424    -0.391998766423
    C            0.819962291033    -1.712316419502    -0.402333229025
    O           -0.003199274060     0.374582699921     0.337235812519
    C            2.235997206235    -1.145039138762    -0.396578509696
    H            0.653276467813    -2.333683518837    -1.270227191662
    H            0.666586682462    -2.337505384862     0.472187221754
    H            2.403696049224    -0.501309927249    -1.252022161000
    H            2.954736902816    -1.953805960981    -0.443533727417
    H            2.428968008646    -0.569918925743     0.497665335742
    C           -0.993671859650     1.387487142558     0.448306233586
    C           -0.434805599041     2.486687576313     1.321140168382
    H           -1.889845594186     0.958827229104     0.874017760837
    H           -1.238439600844     1.750294760387    -0.539804133887
    H           -0.192274159212     2.111134909499     2.307340942584
    H           -1.168090604630     3.277472444856     1.426604821183
    H            0.462327534005     2.907793593772     0.884965157036

  Mulliken Charges: (a.u.)
   Center  Symbol    Alpha    Beta     Spin     Total
       1     O     4.20075  4.20075  0.00000 -0.40151
       2     C     2.81115  2.81115  0.00000  0.37770
       3     C     3.08654  3.08654  0.00000 -0.17309
       4     O     4.15094  4.15094  0.00000 -0.30188
       5     C     3.14494  3.14494  0.00000 -0.28987
       6     H     0.43558  0.43558  0.00000  0.12884
       7     H     0.44678  0.44678  0.00000  0.10645
       8     H     0.45177  0.45177  0.00000  0.09646
       9     H     0.44882  0.44882  0.00000  0.10235
      10     H     0.44667  0.44667  0.00000  0.10665
      11     C     2.97798  2.97798  0.00000  0.04404
      12     C     3.13409  3.13409  0.00000 -0.26818
      13     H     0.45359  0.45359  0.00000  0.09282
      14     H     0.45392  0.45392  0.00000  0.09217
      15     H     0.45158  0.45158  0.00000  0.09683
      16     H     0.45365  0.45365  0.00000  0.09270
      17     H     0.45124  0.45124  0.00000  0.09752

   Total alpha = 28.00000, Total beta = 28.00000, Total charge = -0.00000
