                              Psi4 1.0.54 Driver

  ==> Input File <==

--------------------------------------------------------------------------
set {
	reference rhf
	basis cc-pvtz
}

set_num_threads( 4 )
memory 2 gb

molecule MOL {
0 1

H	 3.541661	 0.905417	 -1.645097
N	 2.762714	 0.281958	 -1.632615
C	 1.698519	 0.790140	 -0.781321
H	 3.095668	 -0.598672	 -1.299478
C	 0.481619	 -0.121695	 -0.830682
H	 1.423342	 1.773916	 -1.146518
H	 2.009631	 0.917403	 0.256450
C	 -0.678115	 0.376691	 0.025731
H	 0.166346	 -0.220950	 -1.864199
H	 0.770998	 -1.117500	 -0.500356
C	 -1.900706	 -0.535531	 -0.022488
H	 -0.964442	 1.373536	 -0.301793
H	 -0.350348	 0.478953	 1.057712
C	 -3.220513	 0.226854	 0.028039
H	 -1.865036	 -1.134397	 -0.928236
H	 -1.857948	 -1.236381	 0.806820
H	 -3.309098	 0.911849	 -0.808725
H	 -4.066838	 -0.449485	 -0.008086
H	 -3.301685	 0.809374	 0.939860

	symmetry c1
}
set optking {
	frozen_dihedral = ("
		12 8 11 15
	")
}

ee,wfn = optimize('scf', return_wfn=True)
oeprop( wfn, 'DIPOLE', 'QUADRUPOLE', 'MULLIKEN_CHARGES')
f=open( 'psi4out.xyz', 'w' )
f.write( "19  " )
f.write( str(ee) + "\n" )
f.write( MOL.save_string_xyz() )
f.close()
--------------------------------------------------------------------------

    Molecular point group: c1
  Charge       = 0
  Multiplicity = 1
  Basis Set: CC-PVTZ
  Basis Set:
  @DF-RHF Final Energy:  -251.44437228524313
    Total Energy =                       -251.4443722852430483
    Molecular point group: c1
  Basis Set: CC-PVTZ
  Basis Set:
  Basis Set: CC-PVTZ
  Basis Set:
  @DF-RHF Final Energy:  -251.44464961335279
    Total Energy =                       -251.4446496133528512
  Basis Set: CC-PVTZ
  Basis Set:
  Basis Set: CC-PVTZ
  Basis Set:
  @DF-RHF Final Energy:  -251.44473087752527
    Total Energy =                       -251.4447308775253873
  Basis Set: CC-PVTZ
  Basis Set:
  Basis Set: CC-PVTZ
  Basis Set:
  @DF-RHF Final Energy:  -251.44473209996025
    Total Energy =                       -251.4447320999602198
  Basis Set: CC-PVTZ
  Basis Set:
  Charge       = 0
  Multiplicity = 1
  Basis Set: CC-PVTZ
  Basis Set:

    Orbital Energies (a.u.)
    -----------------------

    Doubly Occupied:

       1A    -15.526478     2A    -11.237898     3A    -11.211642
       4A    -11.210197     5A    -11.208255     6A    -11.205860
       7A     -1.178231     8A     -1.072616     9A     -0.999769
      10A     -0.900912    11A     -0.814596    12A     -0.790098
      13A     -0.666085    14A     -0.638573    15A     -0.616447
      16A     -0.591553    17A     -0.571917    18A     -0.541181
      19A     -0.534557    20A     -0.496612    21A     -0.486354
      22A     -0.465701    23A     -0.454795    24A     -0.450374
      25A     -0.383856

  @DF-RHF Final Energy:  -251.44473223282321

   => Energetics <=

    Nuclear Repulsion Energy =            246.0297834176757021
    One-Electron Energy =                -826.4399142427473635
    Two-Electron Energy =                 328.9653985922483912
    DFT Exchange-Correlation Energy =       0.0000000000000000
    Empirical Dispersion Energy =           0.0000000000000000
    PCM Polarization Energy =               0.0000000000000000
    EFP Energy =                            0.0000000000000000
    Total Energy =                       -251.4447322328232417
    Molecular point group: c1
  Basis Set: CC-PVTZ
  Basis Set:

  -Total Gradient:
     Atom            X                  Y                   Z
    ------   -----------------  -----------------  -----------------
       1       -0.000000135987     0.000001859434     0.000001993329
       2        0.000003223820    -0.000001153062     0.000001212944
       3       -0.000006626333     0.000003423587     0.000005815572
       4        0.000002071876    -0.000004243923    -0.000000753825
       5       -0.000007821889     0.000004386931    -0.000009494708
       6       -0.000001767183    -0.000005181956    -0.000002020433
       7        0.000002480749     0.000002091314     0.000001416777
       8        0.001669143888    -0.002115754675    -0.004573172270
       9       -0.000003802571     0.000006187397     0.000003537278
      10       -0.000007349731     0.000003252484     0.000002396130
      11       -0.003029057157     0.004044780153    -0.001644304559
      12       -0.000910234264     0.001108615160     0.004083848414
      13        0.000005407926    -0.000002130373     0.000012476828
      14       -0.000008387308    -0.000002674054    -0.000009875399
      15        0.002273862552    -0.003028269458     0.002112468502
      16        0.000000910064    -0.000005313880     0.000011804180
      17        0.000005728898    -0.000005990628     0.000006531554
      18        0.000002089746    -0.000000128264     0.000001278161
      19        0.000010262898    -0.000003756189    -0.000005158475

  **** Optimization is complete! (in 5 steps) ****
    Final optimized geometry and variables:
    Molecular point group: c1

    Geometry (in Angstrom), charge = 0, multiplicity = 1:

    H            3.685878569731     0.703969106552    -1.046125724954
    N            2.897232698279     0.092778113273    -1.057299379465
    C            1.823045239398     0.608157360126    -0.223077526287
    H            3.209484350252    -0.796469234285    -0.726938232107
    C            0.593435923750    -0.283235422306    -0.309467996536
    H            1.570715832874     1.600240378583    -0.582482154243
    H            2.113479783282     0.718682062206     0.822519212322
    C           -0.581138408345     0.228395032095     0.516002271414
    H            0.303480777464    -0.373952265635    -1.351020099021
    H            0.856639760929    -1.285373162059     0.024751029806
    C           -1.803306892984    -0.701531880147     0.497093327748
    H           -0.871617905648     1.221680668527     0.183265729318
    H           -0.261605609690     0.364821693431     1.546431738781
    C           -3.134030552966     0.031801301074     0.609827063439
    H           -1.784056545802    -1.314244924334    -0.399251359036
    H           -1.718571713695    -1.408794283255     1.317558355112
    H           -3.285383211482     0.697458841968    -0.233264893632
    H           -3.965878028584    -0.662721856586     0.638710483729
    H           -3.172812613165     0.631728272539     1.513400026748

  Mulliken Charges: (a.u.)
   Center  Symbol    Alpha    Beta     Spin     Total
       1     H     0.43024  0.43024  0.00000  0.13952
       2     N     3.68899  3.68899  0.00000 -0.37797
       3     C     3.02731  3.02731  0.00000 -0.05461
       4     H     0.43112  0.43112  0.00000  0.13776
       5     C     3.08204  3.08204  0.00000 -0.16408
       6     H     0.45687  0.45687  0.00000  0.08627
       7     H     0.46845  0.46845  0.00000  0.06311
       8     C     3.09566  3.09566  0.00000 -0.19133
       9     H     0.44885  0.44885  0.00000  0.10230
      10     H     0.45925  0.45925  0.00000  0.08150
      11     C     3.08479  3.08479  0.00000 -0.16958
      12     H     0.45492  0.45492  0.00000  0.09015
      13     H     0.45578  0.45578  0.00000  0.08844
      14     C     3.14808  3.14808  0.00000 -0.29615
      15     H     0.45403  0.45403  0.00000  0.09194
      16     H     0.45430  0.45430  0.00000  0.09140
      17     H     0.45505  0.45505  0.00000  0.08991
      18     H     0.44942  0.44942  0.00000  0.10115
      19     H     0.45486  0.45486  0.00000  0.09027

   Total alpha = 25.00000, Total beta = 25.00000, Total charge =  0.00000

*** Psi4 exiting successfully. Buy a developer a beer!
