  ==> Input File <==

--------------------------------------------------------------------------
set {
	reference rhf
	basis 6-31G*
}

set_num_threads( 4 )
memory 2 gb

molecule MOL {
0 1

H	 2.761360	 0.348683	 -0.797551
N	 2.332695	 -0.069570	 0.000000
C	 0.936681	 -0.007078	 0.000000
H	 2.701778	 -0.982330	 0.159443
C	 0.227108	 -0.002120	 -1.198267
C	 0.227108	 -0.002120	 1.198267
H	 0.761569	 -0.014657	 -2.132680
C	 -1.156334	 0.010459	 -1.192360
H	 0.761569	 -0.014657	 2.132680
C	 -1.156334	 0.010459	 1.192360
H	 -1.684791	 0.014915	 -2.129421
C	 -1.862085	 0.017996	 0.000000
H	 -1.684791	 0.014915	 2.129421
H	 -2.936703	 0.028387	 0.000000

	symmetry c1
}
set optking {
	frozen_dihedral = ("
		1 2 3 5
	")
}

ee = optimize('scf')
oeprop('DIPOLE', 'QUADRUPOLE', 'MULLIKEN_CHARGES')
f=open( 'psi4out.xyz', 'w' )
f.write( "14  " )
f.write( str(ee) + "\n" )
f.write( MOL.save_string_xyz() )
f.close()
--------------------------------------------------------------------------

    Molecular point group: c1
  Charge       = 0
  Multiplicity = 1
  Basis Set: 6-31G*
  Basis Set:
  @DF-RHF Final Energy:  -285.72507152889835
    Total Energy =                       -285.7250715288980700
    Molecular point group: c1
  Basis Set: 6-31G*
  Basis Set:
  Basis Set: 6-31G*
  Basis Set:
  @DF-RHF Final Energy:  -285.72577931234952
    Total Energy =                       -285.7257793123494594
  Basis Set: 6-31G*
  Basis Set:
  Basis Set: 6-31G*
  Basis Set:
  @DF-RHF Final Energy:  -285.72590299621987
    Total Energy =                       -285.7259029962195882
  Basis Set: 6-31G*
  Basis Set:
  Basis Set: 6-31G*
  Basis Set:
  @DF-RHF Final Energy:  -285.72594633038983
    Total Energy =                       -285.7259463303898883
  Basis Set: 6-31G*
  Basis Set:
  Basis Set: 6-31G*
  Basis Set:
  @DF-RHF Final Energy:  -285.72594970752851
    Total Energy =                       -285.7259497075282297
  Basis Set: 6-31G*
  Basis Set:
  Charge       = 0
  Multiplicity = 1
  Basis Set: 6-31G*
  Basis Set:

    Orbital Energies (a.u.)
    -----------------------

    Doubly Occupied:

       1A    -15.548849     2A    -11.261708     3A    -11.229114
       4A    -11.227649     5A    -11.223597     6A    -11.222650
       7A    -11.219170     8A     -1.208104     9A     -1.125657
      10A     -1.010565    11A     -0.984808    12A     -0.826340
      13A     -0.806747    14A     -0.701085    15A     -0.669278
      16A     -0.646512    17A     -0.617107    18A     -0.590362
      19A     -0.581170    20A     -0.506506    21A     -0.498876
      22A     -0.489186    23A     -0.417242    24A     -0.330544
      25A     -0.312175

  @DF-RHF Final Energy:  -285.72595002088605

   => Energetics <=

    Nuclear Repulsion Energy =            272.5161354721676048
    One-Electron Energy =                -925.9741687560122045
    Two-Electron Energy =                 367.7320832629584402
    DFT Exchange-Correlation Energy =       0.0000000000000000
    Empirical Dispersion Energy =           0.0000000000000000
    PCM Polarization Energy =               0.0000000000000000
    EFP Energy =                            0.0000000000000000
    Total Energy =                       -285.7259500208861027
    Molecular point group: c1
  Basis Set: 6-31G*
  Basis Set:

  -Total Gradient:
     Atom            X                  Y                   Z
    ------   -----------------  -----------------  -----------------
       1        0.000024485524     0.002775629677     0.001543666670
       2       -0.000068017713    -0.004834975164    -0.001934524142
       3        0.000089898696     0.004590214789     0.000343029767
       4        0.000019746109    -0.000012154307    -0.000003012739
       5       -0.000040001687    -0.002523302889     0.000022601391
       6       -0.000049373195     0.000003098965     0.000024459291
       7       -0.000004192968     0.000000052167     0.000006108157
       8       -0.000008713723     0.000021849281     0.000013650027
       9        0.000000160155    -0.000007158417    -0.000005989724
      10        0.000052916374    -0.000000404262     0.000010004098
      11       -0.000006560626    -0.000004107510    -0.000003986471
      12       -0.000009912562    -0.000007402692    -0.000021517537
      13       -0.000005582807     0.000003567800     0.000004676831
      14        0.000005148426    -0.000004907437     0.000000834381

  **** Optimization is complete! (in 6 steps) ****
    Final optimized geometry and variables:
    Molecular point group: c1

    Geometry (in Angstrom), charge = 0, multiplicity = 1:

    H            2.768355605377     0.396962354972    -0.753445598327
    N            2.351304267374    -0.042441842179     0.041302614051
    C            0.930095625810    -0.005891518147    -0.002534088901
    H            2.709078664002    -0.972186306694     0.132199442935
    C            0.221144309510    -0.005105354183    -1.197416192909
    C            0.227540535968     0.006877371914     1.196132039191
    H            0.755245660283    -0.029169906482    -2.132049677766
    C           -1.164464015902     0.032292538960    -1.193891260446
    H            0.779062842346     0.016570993410     2.118543574031
    C           -1.156549155352     0.020474950853     1.198293015409
    H           -1.698381882856     0.043203777444    -2.127669506541
    C           -1.859676451521     0.039088529233     0.003432792056
    H           -1.686667145541     0.029494714736     2.134230024095
    H           -2.934686567932     0.060162497263     0.006497306519

  Mulliken Charges: (a.u.)
   Center  Symbol    Alpha    Beta     Spin     Total
       1     H     0.32446  0.32446  0.00000  0.35108
       2     N     3.94533  3.94533  0.00000 -0.89067
       3     C     2.88833  2.88833  0.00000  0.22334
       4     H     0.32078  0.32078  0.00000  0.35844
       5     C     3.11597  3.11597  0.00000 -0.23194
       6     C     3.10454  3.10454  0.00000 -0.20907
       7     H     0.40395  0.40395  0.00000  0.19210
       8     C     3.09715  3.09715  0.00000 -0.19430
       9     H     0.39502  0.39502  0.00000  0.20996
      10     C     3.09752  3.09752  0.00000 -0.19504
      11     H     0.40032  0.40032  0.00000  0.19937
      12     C     3.10563  3.10563  0.00000 -0.21127
      13     H     0.39999  0.39999  0.00000  0.20002
      14     H     0.40101  0.40101  0.00000  0.19798

   Total alpha = 25.00000, Total beta = 25.00000, Total charge =  0.00000
