  ==> Input File <==

--------------------------------------------------------------------------
set {
	reference rhf
	basis 6-31G*
}

set_num_threads( 4 )
memory 2 gb

molecule MOL {
0 1

H	 -1.070890	 -1.366565	 0.180696
O	 -1.422729	 -0.573567	 -0.196946
C	 -0.731407	 0.539437	 0.309156
C	 0.680193	 0.672443	 -0.251532
H	 -1.319765	 1.404033	 0.030086
H	 -0.700012	 0.506517	 1.397677
C	 1.344650	 -0.668666	 -0.563985
H	 0.639102	 1.278599	 -1.151829
H	 1.284052	 1.216646	 0.471474
H	 0.805758	 -1.207615	 -1.337500
H	 2.359490	 -0.527128	 -0.920402
H	 1.391453	 -1.301708	 0.318812

	symmetry c1
}
set optking {
	frozen_dihedral = ("
		8 4 3 2
	")
}

ee = optimize('scf')
oeprop('DIPOLE', 'QUADRUPOLE', 'MULLIKEN_CHARGES')
f=open( 'psi4out.xyz', 'w' )
f.write( "12  " )
f.write( str(ee) + "\n" )
f.write( MOL.save_string_xyz() )
f.close()
--------------------------------------------------------------------------

    Molecular point group: c1
  Charge       = 0
  Multiplicity = 1
  Basis Set: 6-31G*
  Basis Set:
  @DF-RHF Final Energy:  -193.10565525872696
    Total Energy =                       -193.1056552587268982
    Molecular point group: c1
  Basis Set: 6-31G*
  Basis Set:
  Basis Set: 6-31G*
  Basis Set:
  @DF-RHF Final Energy:  -193.10613698236386
    Total Energy =                       -193.1061369823639495
  Basis Set: 6-31G*
  Basis Set:
  Basis Set: 6-31G*
  Basis Set:
  @DF-RHF Final Energy:  -193.10630858088479
    Total Energy =                       -193.1063085808847859
  Basis Set: 6-31G*
  Basis Set:
  Basis Set: 6-31G*
  Basis Set:
  @DF-RHF Final Energy:  -193.10631042800526
    Total Energy =                       -193.1063104280051732
  Basis Set: 6-31G*
  Basis Set:
  Basis Set: 6-31G*
  Basis Set:
  @DF-RHF Final Energy:  -193.10632210896460
    Total Energy =                       -193.1063221089646049
  Basis Set: 6-31G*
  Basis Set:
  Charge       = 0
  Multiplicity = 1
  Basis Set: 6-31G*
  Basis Set:

    Orbital Energies (a.u.)
    -----------------------

    Doubly Occupied:

       1A    -20.552673     2A    -11.268537     3A    -11.219338
       4A    -11.216501     5A     -1.359951     6A     -1.048127
       7A     -0.928850     8A     -0.807617     9A     -0.694117
      10A     -0.632600    11A     -0.612764    12A     -0.584342
      13A     -0.530193    14A     -0.511948    15A     -0.499160
      16A     -0.462041    17A     -0.428556

  @DF-RHF Final Energy:  -193.10632236748879

   => Energetics <=

    Nuclear Repulsion Energy =            133.4244442781898954
    One-Electron Energy =                -526.3469050886204741
    Two-Electron Energy =                 199.8161384429417353
    DFT Exchange-Correlation Energy =       0.0000000000000000
    Empirical Dispersion Energy =           0.0000000000000000
    PCM Polarization Energy =               0.0000000000000000
    EFP Energy =                            0.0000000000000000
    Total Energy =                       -193.1063223674888718
    Molecular point group: c1
  Basis Set: 6-31G*
  Basis Set:

  -Total Gradient:
     Atom            X                  Y                   Z
    ------   -----------------  -----------------  -----------------
       1       -0.000012524305    -0.000032451946    -0.000010368892
       2        0.001716408678    -0.002747368533     0.003510036185
       3       -0.002104967297     0.004970769293    -0.004015526177
       4       -0.000566416294    -0.007008279378    -0.002803376893
       5        0.000009810675     0.000027102987     0.000014846447
       6       -0.000006848319    -0.000021277485    -0.000008368022
       7        0.000014937390     0.000006445501     0.000013289352
       8        0.000943754880     0.004814670175     0.003308045956
       9        0.000010667846    -0.000007419059     0.000000747767
      10        0.000000537411     0.000007004579    -0.000003900272
      11       -0.000000423173    -0.000005899344    -0.000003769462
      12       -0.000004937489    -0.000003296788    -0.000001655990

  **** Optimization is complete! (in 6 steps) ****
    Final optimized geometry and variables:
    Molecular point group: c1

    Geometry (in Angstrom), charge = 0, multiplicity = 1:

    H           -1.032903541072    -1.315693372928     0.316578824301
    O           -1.399831644883    -0.509447909905    -0.015347998049
    C           -0.664266867643     0.579024711809     0.481587635392
    C            0.750376310047     0.702668542889    -0.105330733676
    H           -1.242716333130     1.464176582662     0.255053766434
    H           -0.600295402410     0.506474545152     1.566277271099
    C            1.438437798749    -0.630614787376    -0.387163928613
    H            0.728729521775     1.320902362597    -0.998292124459
    H            1.348959793249     1.266117708765     0.608285555269
    H            0.910150746108    -1.193993471048    -1.147487709581
    H            2.452777681076    -0.471027671484    -0.736734243337
    H            1.499118750881    -1.243928426332     0.509770627786

  Mulliken Charges: (a.u.)
   Center  Symbol    Alpha    Beta     Spin     Total
       1     H     0.27962  0.27962  0.00000  0.44077
       2     O     4.36964  4.36964  0.00000 -0.73928
       3     C     2.99703  2.99703  0.00000  0.00595
       4     C     3.16522  3.16522  0.00000 -0.33044
       5     H     0.41370  0.41370  0.00000  0.17259
       6     H     0.43147  0.43147  0.00000  0.13705
       7     C     3.25142  3.25142  0.00000 -0.50285
       8     H     0.41620  0.41620  0.00000  0.16761
       9     H     0.42282  0.42282  0.00000  0.15437
      10     H     0.41096  0.41096  0.00000  0.17809
      11     H     0.41499  0.41499  0.00000  0.17001
      12     H     0.42694  0.42694  0.00000  0.14611

   Total alpha = 17.00000, Total beta = 17.00000, Total charge = -0.00000
