  ==> Input File <==

--------------------------------------------------------------------------
set {
	reference rhf
	basis 6-31G*
}

set_num_threads( 4 )
memory 2 gb

molecule MOL {
0 1

H	 2.068215	 -0.471477	 -0.977206
O	 2.064459	 -0.086912	 -0.111827
C	 0.745630	 0.005118	 0.354752
H	 0.739005	 0.037656	 1.444976
C	 -0.064159	 -1.194875	 -0.122754
C	 -0.046302	 1.193543	 -0.190431
H	 0.197384	 -1.376065	 -1.160690
H	 0.162855	 -2.097978	 0.431858
C	 -1.535782	 -0.752177	 0.006642
H	 0.154512	 1.271315	 -1.255561
H	 0.226209	 2.140461	 0.267302
C	 -1.509193	 0.801505	 0.065617
H	 -2.127797	 -1.112194	 -0.826847
H	 -1.986849	 -1.158408	 0.905561
H	 -2.183670	 1.254107	 -0.651985
H	 -1.821727	 1.144320	 1.047089

	symmetry c1
}
set optking {
	frozen_dihedral = ("
		1 2 3 6
	")
}

ee = optimize('scf')
oeprop('DIPOLE', 'QUADRUPOLE', 'MULLIKEN_CHARGES')
f=open( 'psi4out.xyz', 'w' )
f.write( "16  " )
f.write( str(ee) + "\n" )
f.write( MOL.save_string_xyz() )
f.close()
--------------------------------------------------------------------------

    Molecular point group: c1
  Charge       = 0
  Multiplicity = 1
  Basis Set: 6-31G*
  Basis Set:
  @DF-RHF Final Energy:  -270.01134977228497
    Total Energy =                       -270.0113497722845750
    Molecular point group: c1
  Basis Set: 6-31G*
  Basis Set:
  Basis Set: 6-31G*
  Basis Set:
  @DF-RHF Final Energy:  -270.01340486136621
    Total Energy =                       -270.0134048613663253
  Basis Set: 6-31G*
  Basis Set:
  Basis Set: 6-31G*
  Basis Set:
  @DF-RHF Final Energy:  -270.01369340234510
    Total Energy =                       -270.0136934023449271
  Basis Set: 6-31G*
  Basis Set:
  Basis Set: 6-31G*
  Basis Set:
  @DF-RHF Final Energy:  -270.01370090028558
    Total Energy =                       -270.0137009002855848
  Basis Set: 6-31G*
  Basis Set:
  Charge       = 0
  Multiplicity = 1
  Basis Set: 6-31G*
  Basis Set:

    Orbital Energies (a.u.)
    -----------------------

    Doubly Occupied:

       1A    -20.551800     2A    -11.268770     3A    -11.220079
       4A    -11.217991     5A    -11.217890     6A    -11.210798
       7A     -1.361416     8A     -1.115352     9A     -0.969270
      10A     -0.948849    11A     -0.802992    12A     -0.783359
      13A     -0.680855    14A     -0.662344    15A     -0.606786
      16A     -0.589232    17A     -0.578611    18A     -0.544464
      19A     -0.504274    20A     -0.485278    21A     -0.473461
      22A     -0.459998    23A     -0.453982    24A     -0.411942

  @DF-RHF Final Energy:  -270.01370181587356

   => Energetics <=

    Nuclear Repulsion Energy =            254.9731930369681550
    One-Electron Energy =                -871.7341963371031852
    Two-Electron Energy =                 346.7473014842615839
    DFT Exchange-Correlation Energy =       0.0000000000000000
    Empirical Dispersion Energy =           0.0000000000000000
    PCM Polarization Energy =               0.0000000000000000
    EFP Energy =                            0.0000000000000000
    Total Energy =                       -270.0137018158734463
    Molecular point group: c1
  Basis Set: 6-31G*
  Basis Set:

  -Total Gradient:
     Atom            X                  Y                   Z
    ------   -----------------  -----------------  -----------------
       1        0.000093156627    -0.001651867518     0.000646424039
       2       -0.000054990109     0.002292937509    -0.000332703959
       3       -0.000339532248    -0.001216085370    -0.001228713445
       4       -0.000001047195     0.000010793752     0.000019300218
       5        0.000064295624     0.000054071079    -0.000063135465
       6        0.000295982801     0.000560975415     0.000891067815
       7       -0.000007825265    -0.000018243234     0.000015693150
       8        0.000008443423     0.000028007060     0.000007803957
       9       -0.000055980614     0.000012342003     0.000029017995
      10        0.000024081808    -0.000002355604    -0.000002896929
      11        0.000020537001    -0.000008556197     0.000000226424
      12        0.000002991799    -0.000033119842     0.000018130901
      13       -0.000015206029     0.000005234369    -0.000016384604
      14       -0.000019597226    -0.000005884016    -0.000017020790
      15       -0.000005206058    -0.000017930064     0.000018146645
      16       -0.000010104342    -0.000010319342     0.000015044047

  **** Optimization is complete! (in 5 steps) ****
    Final optimized geometry and variables:
    Molecular point group: c1

    Geometry (in Angstrom), charge = 0, multiplicity = 1:

    H            2.175574591380    -0.365316090562    -0.921354618298
    O            2.098472384649    -0.031864092920    -0.038022268057
    C            0.748897244478    -0.002730570273     0.335154049010
    H            0.752416824857     0.034393131008     1.419660996244
    C           -0.082015848565    -1.201075880334    -0.127038450199
    C           -0.038485634518     1.193166865649    -0.198557191603
    H            0.142988473010    -1.396678495275    -1.175215135718
    H            0.145041478353    -2.106763888079     0.423792953110
    C           -1.545845959347    -0.741076582136     0.025698613822
    H            0.143470966401     1.281633185784    -1.268338989857
    H            0.259754414442     2.129004690427     0.259892215912
    C           -1.501484474447     0.813708638114     0.074078776616
    H           -2.158668730623    -1.101035323129    -0.792645576761
    H           -1.980943161496    -1.137697738572     0.936409836920
    H           -2.182318839044     1.265890033187    -0.637665911535
    H           -1.799754844228     1.164143040934     1.057062604564

  Mulliken Charges: (a.u.)
   Center  Symbol    Alpha    Beta     Spin     Total
       1     H     0.28373  0.28373  0.00000  0.43255
       2     O     4.37711  4.37711  0.00000 -0.75423
       3     C     2.90373  2.90373  0.00000  0.19253
       4     H     0.41765  0.41765  0.00000  0.16470
       5     C     3.17734  3.17734  0.00000 -0.35469
       6     C     3.16657  3.16657  0.00000 -0.33315
       7     H     0.42796  0.42796  0.00000  0.14407
       8     H     0.40999  0.40999  0.00000  0.18003
       9     C     3.16779  3.16779  0.00000 -0.33557
      10     H     0.42598  0.42598  0.00000  0.14805
      11     H     0.41149  0.41149  0.00000  0.17703
      12     C     3.17060  3.17060  0.00000 -0.34120
      13     H     0.41466  0.41466  0.00000  0.17068
      14     H     0.41494  0.41494  0.00000  0.17012
      15     H     0.41421  0.41421  0.00000  0.17158
      16     H     0.41625  0.41625  0.00000  0.16750

   Total alpha = 24.00000, Total beta = 24.00000, Total charge = -0.00000
