  ==> Input File <==

--------------------------------------------------------------------------
set {
	reference rhf
	basis 6-31G*
}

set_num_threads( 4 )
memory 2 gb

molecule MOL {
0 1

O	 1.214711	 1.306902	 -0.000018
C	 1.122059	 0.121804	 -0.000188
C	 -0.170150	 -0.657997	 -0.000612
O	 2.172624	 -0.688929	 0.000216
C	 -1.412532	 0.227344	 -0.000452
H	 -0.153702	 -1.313099	 -0.867402
H	 -0.153924	 -1.313811	 0.865644
C	 -2.544312	 -0.358898	 -0.845887
H	 -1.149803	 1.213632	 -0.370201
H	 -1.751577	 0.368870	 1.021077
C	 -3.793473	 0.521204	 -0.850228
H	 -2.199041	 -0.499418	 -1.868197
H	 -2.801825	 -1.348105	 -0.472753
H	 -3.576215	 1.507261	 -1.250410
H	 -4.580053	 0.083301	 -1.456702
H	 -4.183652	 0.651996	 0.154905
C	 3.452279	 -0.082609	 0.000533
H	 3.583069	 0.529321	 -0.880332
H	 4.163299	 -0.894027	 0.001117
H	 3.582335	 0.529955	 0.881077

	symmetry c1
}
set optking {
	frozen_dihedral = ("
		9 5 3 6
	")
}

ee = optimize('scf')
oeprop('DIPOLE', 'QUADRUPOLE', 'MULLIKEN_CHARGES')
f=open( 'psi4out.xyz', 'w' )
f.write( "20  " )
f.write( str(ee) + "\n" )
f.write( MOL.save_string_xyz() )
f.close()
--------------------------------------------------------------------------

    Molecular point group: c1
  Charge       = 0
  Multiplicity = 1
  Basis Set: 6-31G*
  Basis Set:
  @DF-RHF Final Energy:  -383.93824789209867
    Total Energy =                       -383.9382478920981612
    Molecular point group: c1
  Basis Set: 6-31G*
  Basis Set:
  Basis Set: 6-31G*
  Basis Set:
  @DF-RHF Final Energy:  -383.93850423092897
    Total Energy =                       -383.9385042309291975
  Basis Set: 6-31G*
  Basis Set:
  Basis Set: 6-31G*
  Basis Set:
  @DF-RHF Final Energy:  -383.93852085381565
    Total Energy =                       -383.9385208538159304
  Basis Set: 6-31G*
  Basis Set:
  Basis Set: 6-31G*
  Basis Set:
  @DF-RHF Final Energy:  -383.93857763219023
    Total Energy =                       -383.9385776321904586
  Basis Set: 6-31G*
  Basis Set:
  Basis Set: 6-31G*
  Basis Set:
  @DF-RHF Final Energy:  -383.93858619993205
    Total Energy =                       -383.9385861999320468
  Basis Set: 6-31G*
  Basis Set:
  Charge       = 0
  Multiplicity = 1
  Basis Set: 6-31G*
  Basis Set:

    Orbital Energies (a.u.)
    -----------------------

    Doubly Occupied:

       1A    -20.604037     2A    -20.546229     3A    -11.373317
       4A    -11.281110     5A    -11.235418     6A    -11.220176
       7A    -11.218092     8A    -11.210286     9A     -1.469955
      10A     -1.363367    11A     -1.086902    12A     -1.024478
      13A     -0.968635    14A     -0.886208    15A     -0.804829
      16A     -0.767677    17A     -0.699947    18A     -0.681882
      19A     -0.672614    20A     -0.640328    21A     -0.599477
      22A     -0.592076    23A     -0.579097    24A     -0.544082
      25A     -0.531611    26A     -0.522009    27A     -0.502406
      28A     -0.478460    29A     -0.471535    30A     -0.465876
      31A     -0.456838    32A     -0.438804

  @DF-RHF Final Energy:  -383.93858684399783

   => Energetics <=

    Nuclear Repulsion Energy =            381.1665392828503514
    One-Electron Energy =               -1278.3347341318356030
    Two-Electron Energy =                 513.2296080049874263
    DFT Exchange-Correlation Energy =       0.0000000000000000
    Empirical Dispersion Energy =           0.0000000000000000
    PCM Polarization Energy =               0.0000000000000000
    EFP Energy =                            0.0000000000000000
    Total Energy =                       -383.9385868439977685
    Molecular point group: c1
  Basis Set: 6-31G*
  Basis Set:

  -Total Gradient:
     Atom            X                  Y                   Z
    ------   -----------------  -----------------  -----------------
       1       -0.000064968217     0.000090353265    -0.000029695918
       2        0.000117165779     0.000015817376     0.000106069681
       3        0.002434853551     0.003312241479    -0.001668481505
       4       -0.000012545933    -0.000110294430    -0.000042291677
       5       -0.001416127565    -0.001865869194    -0.003541837906
       6       -0.001687095445    -0.002453871129     0.001893672405
       7       -0.000005664969    -0.000013181962    -0.000013839399
       8       -0.000057325571    -0.000034139700     0.000014940027
       9        0.000727715200     0.001022906765     0.003272682991
      10       -0.000014736955     0.000036240498    -0.000012710754
      11        0.000018340547     0.000003342104     0.000012155375
      12        0.000010905654     0.000008334287     0.000004406764
      13       -0.000014068494    -0.000019593682    -0.000005869886
      14       -0.000001923471     0.000008430577    -0.000006533993
      15        0.000014523336    -0.000007777821     0.000004922172
      16       -0.000001678487     0.000001058737     0.000004032284
      17       -0.000024133179     0.000027225749     0.000007986533
      18       -0.000005007545    -0.000003708350     0.000003042234
      19       -0.000022701124    -0.000016343181     0.000000365697
      20        0.000004472885    -0.000001171385    -0.000003015130

  **** Optimization is complete! (in 6 steps) ****
    Final optimized geometry and variables:
    Molecular point group: c1

    Geometry (in Angstrom), charge = 0, multiplicity = 1:

    O            1.213772807713     1.260513847612     0.190674701881
    C            1.098150755439     0.077473443526     0.197053675311
    C           -0.203363198946    -0.686649036567     0.165654073915
    O            2.133296136725    -0.751967331823     0.234596939359
    C           -1.459436622096     0.192592076823     0.159792867363
    H           -0.177615488249    -1.351719469856    -0.693182126307
    H           -0.197076908143    -1.352956143078     1.023529136995
    C           -2.612596664479    -0.418388606941    -0.636851523342
    H           -1.209515644865     1.176752865707    -0.218273577168
    H           -1.780829854639     0.354334101538     1.185710929389
    C           -3.879143662726     0.434379325958    -0.589319930266
    H           -2.303525493237    -0.549341243376    -1.671766113745
    H           -2.832846600787    -1.413713268163    -0.255637763632
    H           -3.697166069850     1.426839520669    -0.991212550108
    H           -4.678223624532    -0.017089060629    -1.168909756491
    H           -4.234930204331     0.551401663175     0.430312285428
    C            3.423377626431    -0.169084519131     0.265939238318
    H            3.590155172346     0.432615928131    -0.615878369578
    H            4.118701686221    -0.993542462008     0.293091260223
    H            3.540108681852     0.448465529726     1.144842241672

  Mulliken Charges: (a.u.)
   Center  Symbol    Alpha    Beta     Spin     Total
       1     O     4.28514  4.28514  0.00000 -0.57028
       2     C     2.60959  2.60959  0.00000  0.78081
       3     C     3.21036  3.21036  0.00000 -0.42071
       4     O     4.30576  4.30576  0.00000 -0.61151
       5     C     3.15698  3.15698  0.00000 -0.31396
       6     H     0.39906  0.39906  0.00000  0.20188
       7     H     0.39869  0.39869  0.00000  0.20263
       8     C     3.15539  3.15539  0.00000 -0.31078
       9     H     0.39873  0.39873  0.00000  0.20255
      10     H     0.41834  0.41834  0.00000  0.16332
      11     C     3.24010  3.24010  0.00000 -0.48020
      12     H     0.42162  0.42162  0.00000  0.15676
      13     H     0.42315  0.42315  0.00000  0.15370
      14     H     0.41897  0.41897  0.00000  0.16205
      15     H     0.41869  0.41869  0.00000  0.16262
      16     H     0.42083  0.42083  0.00000  0.15834
      17     C     3.09219  3.09219  0.00000 -0.18439
      18     H     0.40905  0.40905  0.00000  0.18191
      19     H     0.40840  0.40840  0.00000  0.18319
      20     H     0.40896  0.40896  0.00000  0.18207

   Total alpha = 32.00000, Total beta = 32.00000, Total charge = -0.00000
