  ==> Input File <==

--------------------------------------------------------------------------
set {
	reference rhf
	basis 6-31G*
}

set_num_threads( 4 )
memory 2 gb

molecule MOL {
0 1

H	 3.276176	 0.174363	 -0.109463
N	 2.434251	 -0.367735	 -0.081097
C	 1.267428	 0.496480	 0.024474
H	 2.501951	 -0.965776	 0.720575
C	 -0.016086	 -0.325158	 -0.029487
H	 1.288818	 1.183521	 -0.816092
H	 1.267576	 1.109062	 0.929528
C	 -1.282277	 0.529072	 0.046735
H	 -0.012495	 -0.908639	 -0.945788
H	 -0.015903	 -1.041248	 0.791956
C	 -1.133407	 1.730696	 0.979280
H	 -2.112891	 -0.087194	 0.384793
H	 -1.546899	 0.877684	 -0.949459
H	 -0.903059	 1.413622	 1.992258
H	 -2.046549	 2.316704	 1.015169
H	 -0.332413	 2.386074	 0.648963

	symmetry c1
}
set optking {
	frozen_dihedral = ("
		12 8 5 9
	")
}

ee = optimize('scf')
oeprop('DIPOLE', 'QUADRUPOLE', 'MULLIKEN_CHARGES')
f=open( 'psi4out.xyz', 'w' )
f.write( "16  " )
f.write( str(ee) + "\n" )
f.write( MOL.save_string_xyz() )
f.close()
--------------------------------------------------------------------------

    Molecular point group: c1
  Charge       = 0
  Multiplicity = 1
  Basis Set: 6-31G*
  Basis Set:
  @DF-RHF Final Energy:  -212.30991031904193
    Total Energy =                       -212.3099103190418191
    Molecular point group: c1
  Basis Set: 6-31G*
  Basis Set:
  Basis Set: 6-31G*
  Basis Set:
  @DF-RHF Final Energy:  -212.31073080400091
    Total Energy =                       -212.3107308040007979
  Basis Set: 6-31G*
  Basis Set:
  Basis Set: 6-31G*
  Basis Set:
  @DF-RHF Final Energy:  -212.31230414852081
    Total Energy =                       -212.3123041485208660
  Basis Set: 6-31G*
  Basis Set:
  Basis Set: 6-31G*
  Basis Set:
  @DF-RHF Final Energy:  -212.31247328161385
    Total Energy =                       -212.3124732816137339
  Basis Set: 6-31G*
  Basis Set:
  Basis Set: 6-31G*
  Basis Set:
  @DF-RHF Final Energy:  -212.31249126461481
    Total Energy =                       -212.3124912646148914
  Basis Set: 6-31G*
  Basis Set:
  Basis Set: 6-31G*
  Basis Set:
  @DF-RHF Final Energy:  -212.31249430767761
    Total Energy =                       -212.3124943076776390
  Basis Set: 6-31G*
  Basis Set:
  Basis Set: 6-31G*
  Basis Set:
  @DF-RHF Final Energy:  -212.31249563448478
    Total Energy =                       -212.3124956344846055
  Basis Set: 6-31G*
  Basis Set:
  Charge       = 0
  Multiplicity = 1
  Basis Set: 6-31G*
  Basis Set:

    Orbital Energies (a.u.)
    -----------------------

    Doubly Occupied:

       1A    -15.532178     2A    -11.238945     3A    -11.215718
       4A    -11.210083     5A    -11.208825     6A     -1.176295
       7A     -1.057242     8A     -0.953978     9A     -0.861381
      10A     -0.776003    11A     -0.654914    12A     -0.640586
      13A     -0.621629    14A     -0.570262    15A     -0.552452
      16A     -0.534937    17A     -0.508190    18A     -0.466363
      19A     -0.463206    20A     -0.456505    21A     -0.380421

  @DF-RHF Final Energy:  -212.31249567697469

   => Energetics <=

    Nuclear Repulsion Energy =            189.1448167869624797
    One-Electron Energy =                -660.7543986458113068
    Two-Electron Energy =                 259.2970861818740786
    DFT Exchange-Correlation Energy =       0.0000000000000000
    Empirical Dispersion Energy =           0.0000000000000000
    PCM Polarization Energy =               0.0000000000000000
    EFP Energy =                            0.0000000000000000
    Total Energy =                       -212.3124956769747769
    Molecular point group: c1
  Basis Set: 6-31G*
  Basis Set:

  -Total Gradient:
     Atom            X                  Y                   Z
    ------   -----------------  -----------------  -----------------
       1        0.000005149247    -0.000004245888    -0.000002124472
       2        0.000008818553     0.000015395890    -0.000013190171
       3       -0.000000122352    -0.000028367466     0.000042504094
       4       -0.000007463590     0.000010039544    -0.000001688884
       5       -0.003026111010    -0.004504126712     0.004162203749
       6        0.000000774757    -0.000011294819     0.000003422962
       7        0.000011353862     0.000001023091    -0.000004206790
       8       -0.000533865555    -0.000761124636    -0.006701342405
       9        0.002629543561     0.003897508583    -0.002515370275
      10        0.000004878648     0.000010623561    -0.000001503416
      11       -0.000013683865     0.000012473284    -0.000011691059
      12        0.000923187988     0.001357699702     0.005038552592
      13        0.000001324924     0.000001779497     0.000005135954
      14       -0.000000511574    -0.000003219258    -0.000005934220
      15       -0.000000919477     0.000007170974     0.000004362303
      16       -0.000002354116    -0.000001335346     0.000000870037

  **** Optimization is complete! (in 8 steps) ****
    Final optimized geometry and variables:
    Molecular point group: c1

    Geometry (in Angstrom), charge = 0, multiplicity = 1:

    H            3.012711765672    -0.332197314027    -0.395478855609
    N            2.149978321360    -0.840755971143    -0.365803837537
    C            1.027412731976     0.063600027953    -0.152485271073
    H            2.224846574475    -1.490436641147     0.394221379467
    C           -0.283848285596    -0.722390153887    -0.164252608923
    H            1.024438206908     0.781349086326    -0.968064493722
    H            1.117486645328     0.636199339305     0.770873607459
    C           -1.559955829930     0.136968766543    -0.159043566962
    H           -0.261298630002    -1.319469519831    -1.070176960134
    H           -0.293777063505    -1.406272524451     0.682328860848
    C           -1.529875483198     1.348902893201     0.778979575558
    H           -2.388138579393    -0.488818041269     0.162560981199
    H           -1.779795664769     0.473024851968    -1.168407226338
    H           -1.296172956108     1.053619013648     1.798458555386
    H           -2.498711324085     1.838667715470     0.793893922559
    H           -0.797543212215     2.088173856744     0.472268702686

  Mulliken Charges: (a.u.)
   Center  Symbol    Alpha    Beta     Spin     Total
       1     H     0.33265  0.33265  0.00000  0.33471
       2     N     3.92188  3.92188  0.00000 -0.84377
       3     C     3.06400  3.06400  0.00000 -0.12801
       4     H     0.33567  0.33567  0.00000  0.32865
       5     C     3.15449  3.15449  0.00000 -0.30898
       6     H     0.42151  0.42151  0.00000  0.15698
       7     H     0.43141  0.43141  0.00000  0.13718
       8     C     3.15511  3.15511  0.00000 -0.31023
       9     H     0.40994  0.40994  0.00000  0.18012
      10     H     0.42700  0.42700  0.00000  0.14600
      11     C     3.24390  3.24390  0.00000 -0.48780
      12     H     0.42027  0.42027  0.00000  0.15946
      13     H     0.42026  0.42026  0.00000  0.15949
      14     H     0.42252  0.42252  0.00000  0.15497
      15     H     0.41899  0.41899  0.00000  0.16203
      16     H     0.42041  0.42041  0.00000  0.15918

   Total alpha = 21.00000, Total beta = 21.00000, Total charge =  0.00000
