  ==> Input File <==

--------------------------------------------------------------------------
set {
	reference rhf
	basis 6-31G*
}

set_num_threads( 4 )
memory 2 gb

molecule MOL {
0 1

H	 -2.563048	 -0.497495	 0.437954
N	 -1.799184	 0.150523	 0.445887
C	 -0.563778	 -0.502042	 0.037919
H	 -1.721337	 0.495023	 1.383979
C	 0.575259	 0.508231	 -0.048326
H	 -0.728921	 -0.939017	 -0.942375
H	 -0.270790	 -1.320861	 0.700066
C	 1.954651	 -0.143624	 0.035137
H	 0.475158	 1.060484	 -0.977307
H	 0.469181	 1.234488	 0.755973
H	 2.103292	 -0.853109	 -0.774172
H	 2.742821	 0.599562	 -0.030094
H	 2.083613	 -0.679371	 0.971560

	symmetry c1
}
set optking {
	frozen_dihedral = ("
		6 3 5 9
	")
}

ee = optimize('scf')
oeprop('DIPOLE', 'QUADRUPOLE', 'MULLIKEN_CHARGES')
f=open( 'psi4out.xyz', 'w' )
f.write( "13  " )
f.write( str(ee) + "\n" )
f.write( MOL.save_string_xyz() )
f.close()
--------------------------------------------------------------------------

    Molecular point group: c1
  Charge       = 0
  Multiplicity = 1
  Basis Set: 6-31G*
  Basis Set:
  @DF-RHF Final Energy:  -173.28043745323075
    Total Energy =                       -173.2804374532306895
    Molecular point group: c1
  Basis Set: 6-31G*
  Basis Set:
  Basis Set: 6-31G*
  Basis Set:
  @DF-RHF Final Energy:  -173.28064393970774
    Total Energy =                       -173.2806439397077156
  Basis Set: 6-31G*
  Basis Set:
  Basis Set: 6-31G*
  Basis Set:
  @DF-RHF Final Energy:  -173.28070528512072
    Total Energy =                       -173.2807052851208027
  Basis Set: 6-31G*
  Basis Set:
  Charge       = 0
  Multiplicity = 1
  Basis Set: 6-31G*
  Basis Set:

    Orbital Energies (a.u.)
    -----------------------

    Doubly Occupied:

       1A    -15.532476     2A    -11.240354     3A    -11.212189
       4A    -11.208788     5A     -1.176225     6A     -1.034260
       7A     -0.898012     8A     -0.799317     9A     -0.666085
      10A     -0.621041    11A     -0.606300    12A     -0.566367
      13A     -0.531339    14A     -0.490102    15A     -0.477916
      16A     -0.467808    17A     -0.381188

  @DF-RHF Final Energy:  -173.28070596847712

   => Energetics <=

    Nuclear Repulsion Energy =            131.7481841370453424
    One-Electron Energy =                -494.2382491889819107
    Two-Electron Energy =                 189.2093590834594750
    DFT Exchange-Correlation Energy =       0.0000000000000000
    Empirical Dispersion Energy =           0.0000000000000000
    PCM Polarization Energy =               0.0000000000000000
    EFP Energy =                            0.0000000000000000
    Total Energy =                       -173.2807059684770650
    Molecular point group: c1
  Basis Set: 6-31G*
  Basis Set:

  -Total Gradient:
     Atom            X                  Y                   Z
    ------   -----------------  -----------------  -----------------
       1       -0.000015236690     0.000030266020     0.000010661762
       2        0.000000059860    -0.000073982061    -0.000016846696
       3        0.003936686029    -0.004309089535     0.000686685000
       4        0.000018318136    -0.000023181228    -0.000039285508
       5       -0.003584230692     0.004179512376     0.002176120031
       6       -0.002803341625     0.003054211258    -0.000879651797
       7        0.000019647791     0.000022825600    -0.000015642078
       8        0.000005780919     0.000022097648     0.000038989569
       9        0.002380824430    -0.002844858453    -0.001963943395
      10       -0.000001793081    -0.000041806391    -0.000002005600
      11       -0.000010497922    -0.000003735149     0.000007734173
      12        0.000016097711    -0.000003301160    -0.000010978248
      13        0.000037685134    -0.000008958924     0.000008162786

  **** Optimization is complete! (in 4 steps) ****
    Final optimized geometry and variables:
    Molecular point group: c1

    Geometry (in Angstrom), charge = 0, multiplicity = 1:

    H           -2.591410550705    -0.485074131319     0.246452251885
    N           -1.823817354038     0.157316701529     0.287156090284
    C           -0.576219342451    -0.500704162096    -0.078966061569
    H           -1.779578194436     0.498228503567     1.228625733912
    C            0.559720157259     0.520413405836    -0.159901730621
    H           -0.735300926956    -0.936181234264    -1.060182345402
    H           -0.302037006136    -1.309782509012     0.601264116151
    C            1.941833852236    -0.133590054983    -0.118038149776
    H            0.463996169688     1.077508378823    -1.086374186428
    H            0.467970126502     1.232073269771     0.656476307781
    H            2.058753962889    -0.856311575344    -0.921321028721
    H            2.729003341092     0.605939596482    -0.225600342680
    H            2.104730181272    -0.656254342977     0.820430100599

  Mulliken Charges: (a.u.)
   Center  Symbol    Alpha    Beta     Spin     Total
       1     H     0.33285  0.33285  0.00000  0.33429
       2     N     3.92222  3.92222  0.00000 -0.84443
       3     C     3.06122  3.06122  0.00000 -0.12244
       4     H     0.33557  0.33557  0.00000  0.32885
       5     C     3.14891  3.14891  0.00000 -0.29781
       6     H     0.41972  0.41972  0.00000  0.16055
       7     H     0.43365  0.43365  0.00000  0.13270
       8     C     3.24467  3.24467  0.00000 -0.48933
       9     H     0.41491  0.41491  0.00000  0.17018
      10     H     0.42354  0.42354  0.00000  0.15293
      11     H     0.42192  0.42192  0.00000  0.15617
      12     H     0.41828  0.41828  0.00000  0.16343
      13     H     0.42254  0.42254  0.00000  0.15491

   Total alpha = 17.00000, Total beta = 17.00000, Total charge = -0.00000
