  ==> Input File <==

--------------------------------------------------------------------------
set {
	reference rhf
	basis 6-31G*
}

set_num_threads( 1 )
memory 2 gb

molecule MOL {
0 1

O	 3.225979	 0.970355	 -0.599647
C	 2.701189	 0.057885	 -0.047330
C	 1.245376	 -0.013843	 0.345420
O	 3.347903	 -1.046386	 0.304773
C	 0.455112	 1.231400	 -0.050772
H	 0.838542	 -0.913825	 -0.103701
H	 1.208210	 -0.175333	 1.419774
C	 -0.998893	 1.219485	 0.433193
H	 0.482531	 1.345121	 -1.130325
H	 0.957290	 2.103070	 0.354729
C	 -1.725559	 2.563255	 0.326666
H	 -1.004967	 0.902838	 1.473587
H	 -1.557422	 0.462473	 -0.115432
C	 -3.134281	 2.526722	 0.922625
H	 -1.139949	 3.327838	 0.834891
H	 -1.792643	 2.871448	 -0.714242
C	 -3.871902	 3.862725	 0.817065
H	 -3.074735	 2.231777	 1.968902
H	 -3.717110	 1.755027	 0.422127
C	 -5.276447	 3.818816	 1.417919
H	 -3.290377	 4.635194	 1.315824
H	 -3.936254	 4.157075	 -0.228400
H	 -5.773463	 4.779794	 1.327903
H	 -5.243688	 3.561038	 2.472753
H	 -5.894257	 3.078788	 0.916977
C	 4.728119	 -1.109107	 -0.004993
H	 4.882018	 -1.033965	 -1.071845
H	 5.068212	 -2.067527	 0.355250
H	 5.265056	 -0.311663	 0.488280

	symmetry c1
}
set optking {
	frozen_dihedral = ("
		21 17 14 11,
		17 14 11 15,
		15 11 8 5,
		6 3 5 9,
		2 4 26 27,
		1 2 4 26,
		6 3 2 1
	")
}

ee = energy('scf')
oeprop('DIPOLE', 'QUADRUPOLE', 'MULLIKEN_CHARGES')
f=open( 'psi4out.xyz', 'w' )
f.write( "29  " )
f.write( str(ee) + "\n" )
f.write( MOL.save_string_xyz() )
f.close()
--------------------------------------------------------------------------

    Molecular point group: c1

    Geometry (in Angstrom), charge = 0, multiplicity = 1:

       Center              X                  Y                   Z               Mass
    ------------   -----------------  -----------------  -----------------  -----------------
           O          3.119993493341    -0.292027575619    -0.949144217193    15.994914619560
           C          2.595203493341    -1.204497575619    -0.396827217193    12.000000000000
           C          1.139390493341    -1.276225575619    -0.004077217193    12.000000000000
           O          3.241917493341    -2.308768575619    -0.044724217193    15.994914619560
           C          0.349126493341    -0.030982575619    -0.400269217193    12.000000000000
           H          0.732556493341    -2.176207575619    -0.453198217193     1.007825032070
           H          1.102224493341    -1.437715575619     1.070276782807     1.007825032070
           C         -1.104878506659    -0.042897575619     0.083695782807    12.000000000000
           H          0.376545493341     0.082738424381    -1.479822217193     1.007825032070
           H          0.851304493341     0.840687424381     0.005231782807     1.007825032070
           C         -1.831544506659     1.300872424381    -0.022831217193    12.000000000000
           H         -1.110952506659    -0.359544575619     1.124089782807     1.007825032070
           H         -1.663407506659    -0.799909575619    -0.464929217193     1.007825032070
           C         -3.240266506659     1.264339424381     0.573127782807    12.000000000000
           H         -1.245934506659     2.065455424381     0.485393782807     1.007825032070
           H         -1.898628506659     1.609065424381    -1.063739217193     1.007825032070
           C         -3.977887506659     2.600342424381     0.467567782807    12.000000000000
           H         -3.180720506659     0.969394424381     1.619404782807     1.007825032070
           H         -3.823095506659     0.492644424381     0.072629782807     1.007825032070
           C         -5.382432506659     2.556433424381     1.068421782807    12.000000000000
           H         -3.396362506659     3.372811424381     0.966326782807     1.007825032070
           H         -4.042239506659     2.894692424381    -0.577897217193     1.007825032070
           H         -5.879448506659     3.517411424381     0.978405782807     1.007825032070
           H         -5.349673506659     2.298655424381     2.123255782807     1.007825032070
           H         -6.000242506659     1.816405424381     0.567479782807     1.007825032070
           C          4.622133493341    -2.371489575619    -0.354490217193    12.000000000000
           H          4.776032493341    -2.296347575619    -1.421342217193     1.007825032070
           H          4.962226493341    -3.329909575619     0.005752782807     1.007825032070
           H          5.159070493341    -1.574045575619     0.138782782807     1.007825032070

  Charge       = 0
  Multiplicity = 1
  Basis Set: 6-31G*
  Basis Set:

    Orbital Energies (a.u.)
    -----------------------

    Doubly Occupied:

       1A    -20.603677     2A    -20.545496     3A    -11.372459
       4A    -11.280900     5A    -11.235964     6A    -11.218886
       7A    -11.217482     8A    -11.214821     9A    -11.214685
      10A    -11.213377    11A    -11.208218    12A     -1.469384
      13A     -1.362802    14A     -1.096199    15A     -1.067239
      16A     -1.020299    17A     -0.977659    18A     -0.927223
      19A     -0.856306    20A     -0.800732    21A     -0.789912
      22A     -0.766704    23A     -0.696685    24A     -0.683904
      25A     -0.671579    26A     -0.657345    27A     -0.630291
      28A     -0.597460    29A     -0.591649    30A     -0.584102
      31A     -0.566050    32A     -0.550645    33A     -0.530267
      34A     -0.521529    35A     -0.518555    36A     -0.514841
      37A     -0.490397    38A     -0.478580    39A     -0.468596
      40A     -0.461577    41A     -0.460138    42A     -0.455601
      43A     -0.446854    44A     -0.432535

  @DF-RHF Final Energy:  -501.04458202486705

   => Energetics <=

    Nuclear Repulsion Energy =            601.4393237327786892
    One-Electron Energy =               -1874.0285724079142256
    Two-Electron Energy =                 771.5446666502665494
    DFT Exchange-Correlation Energy =       0.0000000000000000
    Empirical Dispersion Energy =           0.0000000000000000
    PCM Polarization Energy =               0.0000000000000000
    EFP Energy =                            0.0000000000000000
    Total Energy =                       -501.0445820248688733

  Mulliken Charges: (a.u.)
   Center  Symbol    Alpha    Beta     Spin     Total
       1     O     4.28581  4.28581  0.00000 -0.57162
       2     C     2.60494  2.60494  0.00000  0.79012
       3     C     3.20831  3.20831  0.00000 -0.41662
       4     O     4.30762  4.30762  0.00000 -0.61525
       5     C     3.15273  3.15273  0.00000 -0.30546
       6     H     0.40022  0.40022  0.00000  0.19956
       7     H     0.40075  0.40075  0.00000  0.19849
       8     C     3.15414  3.15414  0.00000 -0.30828
       9     H     0.41269  0.41269  0.00000  0.17463
      10     H     0.41108  0.41108  0.00000  0.17784
      11     C     3.15193  3.15193  0.00000 -0.30385
      12     H     0.42520  0.42520  0.00000  0.14960
      13     H     0.42291  0.42291  0.00000  0.15418
      14     C     3.15113  3.15113  0.00000 -0.30226
      15     H     0.42226  0.42226  0.00000  0.15548
      16     H     0.42175  0.42175  0.00000  0.15650
      17     C     3.15155  3.15155  0.00000 -0.30310
      18     H     0.42415  0.42415  0.00000  0.15171
      19     H     0.42409  0.42409  0.00000  0.15181
      20     C     3.23928  3.23928  0.00000 -0.47856
      21     H     0.42269  0.42269  0.00000  0.15463
      22     H     0.42274  0.42274  0.00000  0.15452
      23     H     0.41919  0.41919  0.00000  0.16161
      24     H     0.42194  0.42194  0.00000  0.15613
      25     H     0.42191  0.42191  0.00000  0.15617
      26     C     3.09244  3.09244  0.00000 -0.18488
      27     H     0.40903  0.40903  0.00000  0.18195
      28     H     0.40843  0.40843  0.00000  0.18314
      29     H     0.40909  0.40909  0.00000  0.18182

   Total alpha = 44.00000, Total beta = 44.00000, Total charge = -0.00000
