  ==> Input File <==

--------------------------------------------------------------------------
set {
	reference rhf
	basis 6-31G*
}

set_num_threads( 4 )
memory 2 gb

molecule MOL {
0 1

O	 1.846825	 1.296220	 0.000415
C	 1.705091	 0.115954	 0.001797
C	 0.381791	 -0.609817	 0.001258
O	 2.721346	 -0.737485	 -0.000216
C	 -0.823008	 0.326187	 0.001381
H	 0.371250	 -1.265087	 -0.865474
H	 0.370908	 -1.265746	 0.867490
C	 -0.505695	 1.680586	 0.636974
H	 -1.643423	 -0.147075	 0.531599
H	 -1.165468	 0.468439	 -1.018812
C	 -1.703564	 2.631838	 0.646282
H	 -0.159434	 1.530929	 1.658592
H	 0.319295	 2.149031	 0.102341
C	 -1.385566	 3.985376	 1.280366
H	 -2.527740	 2.166391	 1.182225
H	 -2.050061	 2.783022	 -0.373630
H	 -1.068873	 3.870155	 2.313151
H	 -2.253765	 4.636996	 1.271818
H	 -0.587016	 4.491511	 0.745150
C	 4.024888	 -0.184556	 -0.001949
H	 4.179030	 0.422472	 -0.882452
H	 4.701782	 -1.024608	 -0.003642
H	 4.181981	 0.421185	 0.878906

	symmetry c1
}
set optking {
	frozen_dihedral = ("
		9 5 3 6
	")
}

ee = optimize('scf')
oeprop('DIPOLE', 'QUADRUPOLE', 'MULLIKEN_CHARGES')
f=open( 'psi4out.xyz', 'w' )
f.write( "23  " )
f.write( str(ee) + "\n" )
f.write( MOL.save_string_xyz() )
f.close()
--------------------------------------------------------------------------

    Molecular point group: c1
  Charge       = 0
  Multiplicity = 1
  Basis Set: 6-31G*
  Basis Set:
  @DF-RHF Final Energy:  -422.94637072656343
    Total Energy =                       -422.9463707265632593
    Molecular point group: c1
  Basis Set: 6-31G*
  Basis Set:
  Basis Set: 6-31G*
  Basis Set:
  @DF-RHF Final Energy:  -422.96297581834307
    Total Energy =                       -422.9629758183432386
  Basis Set: 6-31G*
  Basis Set:
  Basis Set: 6-31G*
  Basis Set:
  @DF-RHF Final Energy:  -422.96589487316061
    Total Energy =                       -422.9658948731604369
  Basis Set: 6-31G*
  Basis Set:
  Basis Set: 6-31G*
  Basis Set:
  @DF-RHF Final Energy:  -422.96390136243195
    Total Energy =                       -422.9639013624318977
  Basis Set: 6-31G*
  Basis Set:
  @DF-RHF Final Energy:  -422.96753609950940
    Total Energy =                       -422.9675360995095161
  @DF-RHF Final Energy:  -422.96784155420175
    Total Energy =                       -422.9678415542020957
  @DF-RHF Final Energy:  -422.96806887467443
    Total Energy =                       -422.9680688746750548
  @DF-RHF Final Energy:  -422.96867627240937
    Total Energy =                       -422.9686762724084019
  @DF-RHF Final Energy:  -422.96919229464061
    Total Energy =                       -422.9691922946408340
  @DF-RHF Final Energy:  -422.96963053535609
    Total Energy =                       -422.9696305353561456
  @DF-RHF Final Energy:  -422.96975468614482
    Total Energy =                       -422.9697546861453930
  @DF-RHF Final Energy:  -422.96984285080254
    Total Energy =                       -422.9698428508019106
  @DF-RHF Final Energy:  -422.96993361503519
    Total Energy =                       -422.9699336150358704
  @DF-RHF Final Energy:  -422.97003431211959
    Total Energy =                       -422.9700343121190826
  @DF-RHF Final Energy:  -422.97006139033272
    Total Energy =                       -422.9700613903330577
  Basis Set: 6-31G*
  Basis Set:
  @DF-RHF Final Energy:  -422.97008069335914
    Total Energy =                       -422.9700806933589092
  Basis Set: 6-31G*
  Basis Set:
  Basis Set: 6-31G*
  Basis Set:
  @DF-RHF Final Energy:  -422.97012327734575
    Total Energy =                       -422.9701232773459196
  Basis Set: 6-31G*
  Basis Set:
  Basis Set: 6-31G*
  Basis Set:
  @DF-RHF Final Energy:  -422.97014634956054
    Total Energy =                       -422.9701463495607641
  Basis Set: 6-31G*
  Basis Set:
  Charge       = 0
  Multiplicity = 1
  Basis Set: 6-31G*
  Basis Set:

    Orbital Energies (a.u.)
    -----------------------

    Doubly Occupied:

       1A    -20.605440     2A    -20.541181     3A    -11.370518
       4A    -11.280539     5A    -11.233840     6A    -11.229248
       7A    -11.218251     8A    -11.217433     9A    -11.210151
      10A     -1.468888    11A     -1.360483    12A     -1.093804
      13A     -1.042083    14A     -0.984018    15A     -0.935049
      16A     -0.846847    17A     -0.800763    18A     -0.767337
      19A     -0.692447    20A     -0.677412    21A     -0.671891
      22A     -0.649704    23A     -0.607671    24A     -0.600263
      25A     -0.575457    26A     -0.566417    27A     -0.550278
      28A     -0.529405    29A     -0.524578    30A     -0.505987
      31A     -0.492684    32A     -0.471649    33A     -0.467793
      34A     -0.457704    35A     -0.450026    36A     -0.431008

  @DF-RHF Final Energy:  -422.97014727817509

   => Energetics <=

    Nuclear Repulsion Energy =            470.8514833275631872
    One-Electron Energy =               -1509.3867628923508164
    Two-Electron Energy =                 615.5651322866119699
    DFT Exchange-Correlation Energy =       0.0000000000000000
    Empirical Dispersion Energy =           0.0000000000000000
    PCM Polarization Energy =               0.0000000000000000
    EFP Energy =                            0.0000000000000000
    Total Energy =                       -422.9701472781757730
    Molecular point group: c1
  Basis Set: 6-31G*
  Basis Set:

  -Total Gradient:
     Atom            X                  Y                   Z
    ------   -----------------  -----------------  -----------------
       1        0.000005517935     0.000066720606     0.000008803955
       2        0.000007213698    -0.000132415381     0.000007559447
       3       -0.003575576190    -0.004242176544     0.004715536795
       4        0.000000772906     0.000102516672    -0.000016302473
       5       -0.002266013162    -0.001367370080    -0.006580654480
       6        0.003264457260     0.003760808657    -0.003016944352
       7        0.000012836601     0.000017144669    -0.000002375053
       8       -0.000054819171    -0.000035675351     0.000043507001
       9        0.002444630445     0.001782368184     0.004862635652
      10        0.000032404100     0.000002686976     0.000009093788
      11        0.000015653135     0.000039911732    -0.000004370116
      12        0.000007954134    -0.000019952886    -0.000031547713
      13        0.000044513925     0.000063681863    -0.000020164669
      14        0.000003921369     0.000006973459    -0.000011486753
      15        0.000029741104    -0.000023945817     0.000004711955
      16        0.000001342747    -0.000015869256     0.000012780933
      17       -0.000009083977     0.000002161000    -0.000000458268
      18        0.000003440783     0.000006869909    -0.000005476714
      19        0.000007180407     0.000002579625     0.000005055180
      20        0.000006430521    -0.000044797137     0.000010799820
      21        0.000008468374     0.000009055836     0.000005964078
      22        0.000009420725     0.000011091213     0.000003107553
      23       -0.000000407668     0.000007632058     0.000000224433

  **** Optimization is complete! (in 19 steps) ****
    Final optimized geometry and variables:
    Molecular point group: c1

    Geometry (in Angstrom), charge = 0, multiplicity = 1:

    O            1.281492953020    -0.510952836707    -1.692486005802
    C            0.915086057967    -1.033495411645    -0.687815765650
    C           -0.462507489475    -1.623817991086    -0.490957392515
    O            1.679683791583    -1.149044925401     0.388647211934
    C           -1.555889173242    -0.540421636540    -0.330663965331
    H           -0.649523467529    -2.187849056349    -1.397111567409
    H           -0.447855229502    -2.291355935008     0.359253508555
    C           -1.111929316782     0.720950138382     0.420570497476
    H           -2.368650383081    -0.981049202224     0.239151989786
    H           -1.939728915065    -0.263518108721    -1.305780546419
    C           -2.266442208760     1.696730161611     0.655947648281
    H           -0.676807642491     0.439870742038     1.377648479725
    H           -0.330998739851     1.227576838296    -0.140508295309
    C           -1.831154250593     2.967385776664     1.384908995340
    H           -3.047238773542     1.201444012797     1.229270071046
    H           -2.711602162967     1.963861006760    -0.299961774872
    H           -1.411608647193     2.735921101356     2.359904597712
    H           -2.669731529296     3.639743598592     1.537013283504
    H           -1.075145224550     3.504070960372     0.819013760826
    C            2.986481933470    -0.608939105644     0.308576799410
    H            3.547141387033    -1.087895901383    -0.480997096382
    H            3.445413535335    -0.803558280100     1.265351508168
    H            2.946644529432     0.454465011949     0.121266777752

  Mulliken Charges: (a.u.)
   Center  Symbol    Alpha    Beta     Spin     Total
       1     O     4.28754  4.28754  0.00000 -0.57507
       2     C     2.61520  2.61520  0.00000  0.76960
       3     C     3.19929  3.19929  0.00000 -0.39858
       4     O     4.30271  4.30271  0.00000 -0.60542
       5     C     3.15460  3.15460  0.00000 -0.30921
       6     H     0.39886  0.39886  0.00000  0.20228
       7     H     0.40164  0.40164  0.00000  0.19671
       8     C     3.16739  3.16739  0.00000 -0.33478
       9     H     0.41628  0.41628  0.00000  0.16745
      10     H     0.41013  0.41013  0.00000  0.17973
      11     C     3.15163  3.15163  0.00000 -0.30326
      12     H     0.41796  0.41796  0.00000  0.16408
      13     H     0.41305  0.41305  0.00000  0.17390
      14     C     3.23968  3.23968  0.00000 -0.47935
      15     H     0.42314  0.42314  0.00000  0.15372
      16     H     0.42102  0.42102  0.00000  0.15796
      17     H     0.42173  0.42173  0.00000  0.15654
      18     H     0.41868  0.41868  0.00000  0.16264
      19     H     0.42017  0.42017  0.00000  0.15965
      20     C     3.09324  3.09324  0.00000 -0.18648
      21     H     0.40829  0.40829  0.00000  0.18342
      22     H     0.40868  0.40868  0.00000  0.18265
      23     H     0.40909  0.40909  0.00000  0.18183

   Total alpha = 36.00000, Total beta = 36.00000, Total charge =  0.00000
