  ==> Input File <==

--------------------------------------------------------------------------
set {
	reference rhf
	basis 6-31G*
}

set_num_threads( 4 )
memory 2 gb

molecule MOL {
0 1

H	 -1.465381	 -1.538504	 1.269563
C	 -2.114582	 -1.083215	 0.524317
O	 -1.392607	 -0.295399	 -0.366433
H	 -2.594067	 -1.865878	 -0.047236
H	 -2.880257	 -0.505524	 1.040498
C	 -0.719715	 0.768384	 0.229244
C	 0.719720	 0.768376	 -0.229267
H	 -1.185038	 1.714362	 -0.050570
H	 -0.750528	 0.687237	 1.313896
O	 1.392611	 -0.295398	 0.366430
H	 0.750534	 0.687200	 -1.313918
H	 1.185043	 1.714359	 0.050526
C	 2.706965	 -0.449871	 -0.062409
H	 2.756559	 -0.644779	 -1.131878
H	 3.305899	 0.433456	 0.155466
H	 3.125548	 -1.294566	 0.467107

	symmetry c1
}
set optking {
	frozen_dihedral = ("
		2 3 6 7
	")
}

ee = optimize('scf')
oeprop('DIPOLE', 'QUADRUPOLE', 'MULLIKEN_CHARGES')
f=open( 'psi4out.xyz', 'w' )
f.write( "16  " )
f.write( str(ee) + "\n" )
f.write( MOL.save_string_xyz() )
f.close()
--------------------------------------------------------------------------

    Molecular point group: c1
  Charge       = 0
  Multiplicity = 1
  Basis Set: 6-31G*
  Basis Set:
  @DF-RHF Final Energy:  -306.97557145014207
    Total Energy =                       -306.9755714501424109
    Molecular point group: c1
  Basis Set: 6-31G*
  Basis Set:
  Basis Set: 6-31G*
  Basis Set:
  @DF-RHF Final Energy:  -306.97581604619739
    Total Energy =                       -306.9758160461972807
  Basis Set: 6-31G*
  Basis Set:
  Basis Set: 6-31G*
  Basis Set:
  @DF-RHF Final Energy:  -306.97587974846238
    Total Energy =                       -306.9758797484623756
  Basis Set: 6-31G*
  Basis Set:
  Basis Set: 6-31G*
  Basis Set:
  @DF-RHF Final Energy:  -306.97588117333112
    Total Energy =                       -306.9758811733311177
  Basis Set: 6-31G*
  Basis Set:
  Charge       = 0
  Multiplicity = 1
  Basis Set: 6-31G*
  Basis Set:

    Orbital Energies (a.u.)
    -----------------------

    Doubly Occupied:

       1A    -20.555408     2A    -20.549132     3A    -11.267801
       4A    -11.267144     5A    -11.264996     6A    -11.260344
       7A     -1.386722     8A     -1.366759     9A     -1.029432
      10A     -0.937867    11A     -0.889954    12A     -0.823131
      13A     -0.681584    14A     -0.679803    15A     -0.656033
      16A     -0.631656    17A     -0.627347    18A     -0.601226
      19A     -0.544757    20A     -0.537492    21A     -0.512929
      22A     -0.475744    23A     -0.464630    24A     -0.416875
      25A     -0.407111

  @DF-RHF Final Energy:  -306.97588133886023

   => Energetics <=

    Nuclear Repulsion Energy =            260.9775694026286033
    One-Electron Energy =                -936.2351464393362903
    Two-Electron Energy =                 368.2816956978472831
    DFT Exchange-Correlation Energy =       0.0000000000000000
    Empirical Dispersion Energy =           0.0000000000000000
    PCM Polarization Energy =               0.0000000000000000
    EFP Energy =                            0.0000000000000000
    Total Energy =                       -306.9758813388604608
    Molecular point group: c1
  Basis Set: 6-31G*
  Basis Set:

  -Total Gradient:
     Atom            X                  Y                   Z
    ------   -----------------  -----------------  -----------------
       1       -0.000002066869     0.000001388635    -0.000000025210
       2        0.000095304462    -0.000060242815    -0.000000348926
       3       -0.000119019577     0.000082913178     0.000000434496
       4        0.000000286827    -0.000002930436     0.000008226107
       5       -0.000003041262    -0.000001944988     0.000007728622
       6       -0.000008093781     0.000013746698    -0.000103749654
       7        0.000030091159    -0.000090113852     0.000084187376
       8        0.000010862425     0.000007767668    -0.000000834463
       9        0.000001726676     0.000006377566     0.000012266844
      10       -0.000014251724     0.000032057740    -0.000011345108
      11        0.000001312565     0.000002851259     0.000000142105
      12        0.000008807313     0.000004730548     0.000001567137
      13        0.000002830314     0.000003773931     0.000002009376
      14       -0.000002682160     0.000000618564     0.000000355914
      15       -0.000000080060    -0.000000828218    -0.000000592531
      16       -0.000001986304    -0.000000165476    -0.000000022088

  **** Optimization is complete! (in 5 steps) ****
    Final optimized geometry and variables:
    Molecular point group: c1

    Geometry (in Angstrom), charge = 0, multiplicity = 1:

    H           -1.585350630673    -1.431014176991     1.201146907785
    C           -2.226114983374    -0.988421655817     0.443594830018
    O           -1.496499105108    -0.187294132163    -0.432419417141
    H           -2.675167538913    -1.778999382290    -0.142185025880
    H           -3.018409556553    -0.428411676432     0.936989756643
    C           -0.817430666314     0.888148557582     0.146676127359
    C            0.622976903093     0.895523994332    -0.312016780958
    H           -1.297022641869     1.819012933094    -0.147630693187
    H           -0.838217046367     0.828549604531     1.230610509219
    O            1.288215663765    -0.175099768352     0.283615221075
    H            0.656766997959     0.814712510652    -1.396510571684
    H            1.092406206963     1.838979806814    -0.029794319451
    C            2.598106582879    -0.349422428937    -0.152695799610
    H            2.637989069542    -0.548952890579    -1.221563273679
    H            3.209538981909     0.526682309177     0.058031910952
    H            3.009162918183    -1.197508034823     0.377533292913

  Mulliken Charges: (a.u.)
   Center  Symbol    Alpha    Beta     Spin     Total
       1     H     0.42240  0.42240  0.00000  0.15520
       2     C     3.07979  3.07979  0.00000 -0.15958
       3     O     4.30569  4.30569  0.00000 -0.61139
       4     H     0.41397  0.41397  0.00000  0.17206
       5     H     0.43194  0.43194  0.00000  0.13612
       6     C     2.99617  2.99617  0.00000  0.00766
       7     C     2.99275  2.99275  0.00000  0.01451
       8     H     0.42475  0.42475  0.00000  0.15050
       9     H     0.42214  0.42214  0.00000  0.15571
      10     O     4.30391  4.30391  0.00000 -0.60783
      11     H     0.42297  0.42297  0.00000  0.15406
      12     H     0.43353  0.43353  0.00000  0.13294
      13     C     3.07921  3.07921  0.00000 -0.15842
      14     H     0.42761  0.42761  0.00000  0.14477
      15     H     0.43116  0.43116  0.00000  0.13768
      16     H     0.41200  0.41200  0.00000  0.17600

   Total alpha = 25.00000, Total beta = 25.00000, Total charge = -0.00000
