  ==> Input File <==

--------------------------------------------------------------------------
set {
	reference rhf
	basis 6-31G*
}

set_num_threads( 4 )
memory 2 gb

molecule MOL {
0 1

H	 1.977260	 1.199629	 -2.458942
C	 1.793313	 0.808663	 -1.462174
C	 0.311496	 0.495713	 -1.279412
H	 2.109791	 1.549941	 -0.736838
H	 2.417626	 -0.069187	 -1.335107
N	 -0.000257	 -0.000071	 0.054619
H	 -0.246850	 1.408778	 -1.443544
H	 -0.021865	 -0.206424	 -2.049192
C	 -1.363055	 0.315058	 0.462241
C	 0.316347	 -1.413429	 0.212222
C	 -2.412078	 -0.285320	 -0.468531
H	 -1.482241	 1.391144	 0.451970
H	 -1.549931	 -0.001174	 1.492681
C	 0.664409	 -1.784418	 1.650436
H	 1.172419	 -1.642809	 -0.409614
H	 -0.500484	 -2.043859	 -0.151278
H	 -2.262839	 0.075384	 -1.480151
H	 -2.369300	 -1.368867	 -0.491760
H	 -3.410332	 -0.003975	 -0.144961
H	 1.512679	 -1.201175	 1.990875
H	 -0.159238	 -1.603468	 2.332648
H	 0.919939	 -2.838200	 1.718083

	symmetry c1
}
set optking {
	frozen_dihedral = ("
		3 6 9 11
	")
}

ee = optimize('scf')
oeprop('DIPOLE', 'QUADRUPOLE', 'MULLIKEN_CHARGES')
f=open( 'psi4out.xyz', 'w' )
f.write( "22  " )
f.write( str(ee) + "\n" )
f.write( MOL.save_string_xyz() )
f.close()
--------------------------------------------------------------------------

    Molecular point group: c1
  Charge       = 0
  Multiplicity = 1
  Basis Set: 6-31G*
  Basis Set:
  @DF-RHF Final Energy:  -290.36801121552219
    Total Energy =                       -290.3680112155223014
    Molecular point group: c1
  Basis Set: 6-31G*
  Basis Set:
  Basis Set: 6-31G*
  Basis Set:
  @DF-RHF Final Energy:  -290.36948008827034
    Total Energy =                       -290.3694800882707341
  Basis Set: 6-31G*
  Basis Set:
  Basis Set: 6-31G*
  Basis Set:
  @DF-RHF Final Energy:  -290.37079512404318
    Total Energy =                       -290.3707951240434113
  Basis Set: 6-31G*
  Basis Set:
  Basis Set: 6-31G*
  Basis Set:
  @DF-RHF Final Energy:  -290.37087873076570
    Total Energy =                       -290.3708787307659236
  Basis Set: 6-31G*
  Basis Set:
  @DF-RHF Final Energy:  -290.37090779060776
    Total Energy =                       -290.3709077906082712
  Basis Set: 6-31G*
  Basis Set:
  @DF-RHF Final Energy:  -290.37091451109501
    Total Energy =                       -290.3709145110951795
  Basis Set: 6-31G*
  Basis Set:
  Basis Set: 6-31G*
  Basis Set:
  @DF-RHF Final Energy:  -290.37091678481403
    Total Energy =                       -290.3709167848138577
  Basis Set: 6-31G*
  Basis Set:
  Basis Set: 6-31G*
  Basis Set:
  @DF-RHF Final Energy:  -290.37092078010147
    Total Energy =                       -290.3709207801013008
  Basis Set: 6-31G*
  Basis Set:
  Charge       = 0
  Multiplicity = 1
  Basis Set: 6-31G*
  Basis Set:

    Orbital Energies (a.u.)
    -----------------------

    Doubly Occupied:

       1A    -15.535602     2A    -11.240298     3A    -11.239808
       4A    -11.239185     5A    -11.206718     6A    -11.204758
       7A    -11.204304     8A     -1.221507     9A     -1.023234
      10A     -1.020563    11A     -0.954994    12A     -0.860399
      13A     -0.844416    14A     -0.758239    15A     -0.658679
      16A     -0.643459    17A     -0.615940    18A     -0.595571
      19A     -0.572367    20A     -0.550388    21A     -0.543499
      22A     -0.519130    23A     -0.512837    24A     -0.506575
      25A     -0.493533    26A     -0.482954    27A     -0.465762
      28A     -0.460373    29A     -0.335057

  @DF-RHF Final Energy:  -290.37092166377869

   => Energetics <=

    Nuclear Repulsion Energy =            338.3865882254291932
    One-Electron Energy =               -1062.4947197347173642
    Two-Electron Energy =                 433.7372098455092555
    DFT Exchange-Correlation Energy =       0.0000000000000000
    Empirical Dispersion Energy =           0.0000000000000000
    PCM Polarization Energy =               0.0000000000000000
    EFP Energy =                            0.0000000000000000
    Total Energy =                       -290.3709216637788586
    Molecular point group: c1
  Basis Set: 6-31G*
  Basis Set:

  -Total Gradient:
     Atom            X                  Y                   Z
    ------   -----------------  -----------------  -----------------
       1       -0.000000754126    -0.000005222423    -0.000001950552
       2        0.000001940066    -0.000011926363     0.000002950771
       3       -0.000322737417    -0.000817321575    -0.000397274433
       4       -0.000001859652     0.000003734831    -0.000003888588
       5        0.000004423632     0.000015741237    -0.000005558153
       6        0.000535299639     0.001552747627     0.000309202655
       7        0.000002729395     0.000013838839     0.000020015881
       8       -0.000002741575     0.000003895852    -0.000003837154
       9       -0.000283314996    -0.001476310117     0.000597578842
      10       -0.000014849020    -0.000057889833     0.000004243800
      11        0.000040174279     0.000768372459    -0.000519815497
      12        0.000010129761    -0.000005826277    -0.000005171190
      13        0.000006028607     0.000008606098    -0.000017626539
      14        0.000019621744    -0.000009720042     0.000001161591
      15       -0.000012220339    -0.000000751092     0.000007954379
      16        0.000014722408     0.000001234222     0.000005382592
      17       -0.000001541822     0.000001069985     0.000001488247
      18       -0.000009520603     0.000009826651     0.000002202235
      19        0.000003666387     0.000005441824     0.000003386358
      20        0.000001754246    -0.000001115631    -0.000004391608
      21        0.000014735758     0.000001532585    -0.000004264073
      22       -0.000005686373     0.000000041144     0.000008210438

  **** Optimization is complete! (in 9 steps) ****
    Final optimized geometry and variables:
    Molecular point group: c1

    Geometry (in Angstrom), charge = 0, multiplicity = 1:

    H            2.105254352210     1.508813752321    -2.318915964604
    C            1.910792967171     1.097709166447    -1.332165017155
    C            0.433857399853     0.739201921432    -1.189694071059
    H            2.188841768806     1.836882410646    -0.589193147562
    H            2.558071897286     0.236818415677    -1.205000428547
    N            0.103823666602     0.240173476532     0.137177838146
    H           -0.146519291076     1.639511954591    -1.360470515024
    H            0.147650481496     0.036070895031    -1.975645918165
    C           -1.247794151078     0.571648382790     0.564029503702
    C            0.478761279596    -1.151510130604     0.341030719429
    C           -2.401006335857     0.046922948719    -0.301224852692
    H           -1.316079861306     1.654459296344     0.612595858004
    H           -1.378875731849     0.219849068738     1.579944633435
    C            0.737337106273    -1.496123764804     1.805264763823
    H            1.393875330520    -1.331480859056    -0.208558416215
    H           -0.259738491973    -1.840941924117    -0.074477835303
    H           -2.351677599141     0.430970235035    -1.314785574896
    H           -2.411881902067    -1.036658065593    -0.355954100121
    H           -3.350165954027     0.362138163713     0.122794112452
    H            1.482914445134    -0.827796321703     2.221567577169
    H           -0.157670679068    -1.421835214186     2.412990825680
    H            1.101855757684    -2.515941509245     1.889713508688

  Mulliken Charges: (a.u.)
   Center  Symbol    Alpha    Beta     Spin     Total
       1     H     0.42388  0.42388  0.00000  0.15223
       2     C     3.23489  3.23489  0.00000 -0.46978
       3     C     3.05819  3.05819  0.00000 -0.11638
       4     H     0.41544  0.41544  0.00000  0.16911
       5     H     0.42154  0.42154  0.00000  0.15691
       6     N     3.78584  3.78584  0.00000 -0.57168
       7     H     0.41971  0.41971  0.00000  0.16057
       8     H     0.43131  0.43131  0.00000  0.13737
       9     C     3.06103  3.06103  0.00000 -0.12207
      10     C     3.05709  3.05709  0.00000 -0.11418
      11     C     3.24908  3.24908  0.00000 -0.49817
      12     H     0.41773  0.41773  0.00000  0.16453
      13     H     0.41713  0.41713  0.00000  0.16575
      14     C     3.23819  3.23819  0.00000 -0.47639
      15     H     0.41849  0.41849  0.00000  0.16302
      16     H     0.43186  0.43186  0.00000  0.13628
      17     H     0.41947  0.41947  0.00000  0.16106
      18     H     0.41944  0.41944  0.00000  0.16111
      19     H     0.42068  0.42068  0.00000  0.15865
      20     H     0.41451  0.41451  0.00000  0.17099
      21     H     0.42157  0.42157  0.00000  0.15685
      22     H     0.42290  0.42290  0.00000  0.15420

   Total alpha = 29.00000, Total beta = 29.00000, Total charge = -0.00000
