  ==> Input File <==

--------------------------------------------------------------------------
set {
	reference rhf
	basis 6-31G*
}

set_num_threads( 4 )
memory 2 gb

molecule MOL {
0 1

H	 2.866480	 -0.465706	 0.876907
C	 2.405773	 -0.024801	 0.000000
N	 0.988830	 -0.304158	 0.000000
H	 2.866480	 -0.465706	 -0.876907
H	 2.629928	 1.045948	 0.000000
C	 0.491012	 -0.639750	 -1.321183
C	 0.212043	 0.775228	 0.580945
H	 0.628499	 0.187176	 -2.025307
H	 1.043459	 -1.492856	 -1.702309
C	 -0.986592	 -0.986359	 -1.240331
H	 0.560216	 0.958232	 1.592642
H	 0.329202	 1.705262	 0.015428
C	 -1.258163	 0.391095	 0.611355
H	 -1.395655	 -1.152758	 -2.228255
H	 -1.116937	 -1.893647	 -0.653125
O	 -1.716580	 0.063425	 -0.670222
H	 -1.863109	 1.218243	 0.959037
H	 -1.401286	 -0.451385	 1.285680

	symmetry c1
}
set optking {
	frozen_dihedral = ("
		6 3 2 5
	")
}

ee = optimize('scf')
oeprop('DIPOLE', 'QUADRUPOLE', 'MULLIKEN_CHARGES')
f=open( 'psi4out.xyz', 'w' )
f.write( "18  " )
f.write( str(ee) + "\n" )
f.write( MOL.save_string_xyz() )
f.close()
--------------------------------------------------------------------------

    Molecular point group: c1
  Charge       = 0
  Multiplicity = 1
  Basis Set: 6-31G*
  Basis Set:
  @DF-RHF Final Energy:  -325.02394709372032
    Total Energy =                       -325.0239470937201531
    Molecular point group: c1
  Basis Set: 6-31G*
  Basis Set:
  Basis Set: 6-31G*
  Basis Set:
  @DF-RHF Final Energy:  -325.02449282542790
    Total Energy =                       -325.0244928254278420
  Basis Set: 6-31G*
  Basis Set:
  Basis Set: 6-31G*
  Basis Set:
  @DF-RHF Final Energy:  -325.02461099555524
    Total Energy =                       -325.0246109955553493
  Basis Set: 6-31G*
  Basis Set:
  Charge       = 0
  Multiplicity = 1
  Basis Set: 6-31G*
  Basis Set:

    Orbital Energies (a.u.)
    -----------------------

    Doubly Occupied:

       1A    -20.553509     2A    -15.545716     3A    -11.265646
       4A    -11.265494     5A    -11.244114     6A    -11.243932
       7A    -11.240988     8A     -1.382755     9A     -1.228225
      10A     -1.038428    11A     -0.980552    12A     -0.882911
      13A     -0.869389    14A     -0.773005    15A     -0.682877
      16A     -0.644570    17A     -0.643156    18A     -0.632983
      19A     -0.625669    20A     -0.570012    21A     -0.558757
      22A     -0.543188    23A     -0.528160    24A     -0.500531
      25A     -0.485996    26A     -0.451970    27A     -0.407350
      28A     -0.345000

  @DF-RHF Final Energy:  -325.02461684636182

   => Energetics <=

    Nuclear Repulsion Energy =            341.0203261490636351
    One-Electron Energy =               -1117.8201287639719794
    Two-Electron Energy =                 451.7751857685464643
    DFT Exchange-Correlation Energy =       0.0000000000000000
    Empirical Dispersion Energy =           0.0000000000000000
    PCM Polarization Energy =               0.0000000000000000
    EFP Energy =                            0.0000000000000000
    Total Energy =                       -325.0246168463618801
    Molecular point group: c1
  Basis Set: 6-31G*
  Basis Set:

  -Total Gradient:
     Atom            X                  Y                   Z
    ------   -----------------  -----------------  -----------------
       1       -0.000061111600    -0.000012622832     0.000009726556
       2        0.000754561536    -0.001441769419    -0.005756094673
       3       -0.000779352223     0.004809986247     0.000380209578
       4       -0.000064693542    -0.000029794923    -0.000001501016
       5       -0.000211312308     0.000084887652     0.004702741582
       6        0.000498357990    -0.003444295614     0.000643579025
       7       -0.000054571662     0.000085197828    -0.000037396451
       8       -0.000009991940    -0.000044075673     0.000066623830
       9       -0.000000092478     0.000021963418     0.000057404929
      10       -0.000030550614     0.000025637704    -0.000074633358
      11        0.000004262705    -0.000046591204    -0.000040107381
      12        0.000011708093    -0.000037814999     0.000014014954
      13       -0.000024318352     0.000041112672     0.000038143589
      14       -0.000075688892    -0.000028278700    -0.000039337895
      15        0.000028244158     0.000051165774     0.000000181657
      16        0.000082189385    -0.000058640277     0.000053405710
      17       -0.000072717165     0.000013183249     0.000010845377
      18        0.000005076910     0.000010749098    -0.000027806011

  **** Optimization is complete! (in 4 steps) ****
    Final optimized geometry and variables:
    Molecular point group: c1

    Geometry (in Angstrom), charge = 0, multiplicity = 1:

    H            2.811315342793    -0.340824598051     1.233311715636
    C            2.400144875371     0.061362399817     0.311370629470
    N            0.970884829942    -0.174426496371     0.259360481952
    H            2.899045837629    -0.427703129412    -0.515637782361
    H            2.649717986368     1.123068575156     0.293033741685
    C            0.461938772927    -0.533423072675    -1.049585519172
    C            0.192089398289     0.878006053486     0.876593965457
    H            0.577103594255     0.278901306006    -1.774593273919
    H            1.013963415971    -1.389942249444    -1.421489952625
    C           -1.010683001639    -0.893682026142    -0.938640068681
    H            0.553684119964     1.039851833649     1.887544185636
    H            0.291668484198     1.823721173891     0.334069396719
    C           -1.273110078605     0.476594142355     0.920820289339
    H           -1.438260617394    -1.069925096125    -1.917175358644
    H           -1.119455169188    -1.798490564359    -0.343348597330
    O           -1.740142608706     0.150996154690    -0.358227436278
    H           -1.885114136784     1.293625751750     1.280348334827
    H           -1.398939045301    -0.372486840330     1.590142692732

  Mulliken Charges: (a.u.)
   Center  Symbol    Alpha    Beta     Spin     Total
       1     H     0.41580  0.41580  0.00000  0.16840
       2     C     3.13820  3.13820  0.00000 -0.27641
       3     N     3.79428  3.79428  0.00000 -0.58857
       4     H     0.41813  0.41813  0.00000  0.16373
       5     H     0.42816  0.42816  0.00000  0.14368
       6     C     3.06456  3.06456  0.00000 -0.12912
       7     C     3.06534  3.06534  0.00000 -0.13068
       8     H     0.42910  0.42910  0.00000  0.14181
       9     H     0.41718  0.41718  0.00000  0.16564
      10     C     2.99805  2.99805  0.00000  0.00390
      11     H     0.41696  0.41696  0.00000  0.16608
      12     H     0.42851  0.42851  0.00000  0.14298
      13     C     2.99762  2.99762  0.00000  0.00475
      14     H     0.41354  0.41354  0.00000  0.17292
      15     H     0.42445  0.42445  0.00000  0.15110
      16     O     4.31224  4.31224  0.00000 -0.62447
      17     H     0.41350  0.41350  0.00000  0.17300
      18     H     0.42437  0.42437  0.00000  0.15125

   Total alpha = 28.00000, Total beta = 28.00000, Total charge = -0.00000
