  ==> Input File <==

--------------------------------------------------------------------------
set {
	reference rhf
	basis 6-31G*
}

set_num_threads( 1 )
memory 2 gb

molecule MOL {
0 1

O	 3.225979	 0.970355	 -0.599647
C	 2.701189	 0.057885	 -0.047330
C	 1.245376	 -0.013843	 0.345420
O	 3.347903	 -1.046386	 0.304773
C	 0.455112	 1.231400	 -0.050772
H	 0.838542	 -0.913825	 -0.103701
H	 1.208210	 -0.175333	 1.419774
C	 -0.998893	 1.219485	 0.433193
H	 0.482531	 1.345121	 -1.130325
H	 0.957290	 2.103070	 0.354729
C	 -1.883438	 0.145884	 -0.207175
H	 -1.431207	 2.195402	 0.224832
H	 -1.019646	 1.105716	 1.516076
C	 -3.362291	 0.300572	 0.153470
H	 -1.770988	 0.188594	 -1.289464
H	 -1.549921	 -0.844044	 0.095780
C	 -4.255039	 -0.769969	 -0.476668
H	 -3.707696	 1.284669	 -0.158753
H	 -3.474156	 0.268704	 1.236138
C	 -5.730781	 -0.606095	 -0.114686
H	 -4.143711	 -0.740182	 -1.558500
H	 -3.914034	 -1.754169	 -0.162268
H	 -6.337561	 -1.379196	 -0.575924
H	 -6.111550	 0.355471	 -0.447253
H	 -5.879910	 -0.665726	 0.959781
C	 4.728119	 -1.109107	 -0.004993
H	 4.882018	 -1.033965	 -1.071845
H	 5.068212	 -2.067527	 0.355250
H	 5.265056	 -0.311663	 0.488280

	symmetry c1
}
set optking {
	frozen_dihedral = ("
		21 17 14 11,
		17 14 11 15,
		6 3 5 9,
		11 8 5 9,
		2 4 26 27,
		1 2 4 26,
		6 3 2 1
	")
}

ee = energy('scf')
oeprop('DIPOLE', 'QUADRUPOLE', 'MULLIKEN_CHARGES')
f=open( 'psi4out.xyz', 'w' )
f.write( "29  " )
f.write( str(ee) + "\n" )
f.write( MOL.save_string_xyz() )
f.close()
--------------------------------------------------------------------------

    Molecular point group: c1

    Geometry (in Angstrom), charge = 0, multiplicity = 1:

       Center              X                  Y                   Z               Mass
    ------------   -----------------  -----------------  -----------------  -----------------
           O          3.231411777375     0.950046339103    -0.573104552300    15.994914619560
           C          2.706621777375     0.037576339103    -0.020787552300    12.000000000000
           C          1.250808777375    -0.034151660897     0.371962447700    12.000000000000
           O          3.353335777375    -1.066694660897     0.331315447700    15.994914619560
           C          0.460544777375     1.211091339103    -0.024229552300    12.000000000000
           H          0.843974777375    -0.934133660897    -0.077158552300     1.007825032070
           H          1.213642777375    -0.195641660897     1.446316447700     1.007825032070
           C         -0.993460222625     1.199176339103     0.459735447700    12.000000000000
           H          0.487963777375     1.324812339103    -1.103782552300     1.007825032070
           H          0.962722777375     2.082761339103     0.381271447700     1.007825032070
           C         -1.878005222625     0.125575339103    -0.180632552300    12.000000000000
           H         -1.425774222625     2.175093339103     0.251374447700     1.007825032070
           H         -1.014213222625     1.085407339103     1.542618447700     1.007825032070
           C         -3.356858222625     0.280263339103     0.180012447700    12.000000000000
           H         -1.765555222625     0.168285339103    -1.262921552300     1.007825032070
           H         -1.544488222625    -0.864352660897     0.122322447700     1.007825032070
           C         -4.249606222625    -0.790277660897    -0.450125552300    12.000000000000
           H         -3.702263222625     1.264360339103    -0.132210552300     1.007825032070
           H         -3.468723222625     0.248395339103     1.262680447700     1.007825032070
           C         -5.725348222625    -0.626403660897    -0.088143552300    12.000000000000
           H         -4.138278222625    -0.760490660897    -1.531957552300     1.007825032070
           H         -3.908601222625    -1.774477660897    -0.135725552300     1.007825032070
           H         -6.332128222625    -1.399504660897    -0.549381552300     1.007825032070
           H         -6.106117222625     0.335162339103    -0.420710552300     1.007825032070
           H         -5.874477222625    -0.686034660897     0.986323447700     1.007825032070
           C          4.733551777375    -1.129415660897     0.021549447700    12.000000000000
           H          4.887450777375    -1.054273660897    -1.045302552300     1.007825032070
           H          5.073644777375    -2.087835660897     0.381792447700     1.007825032070
           H          5.270488777375    -0.331971660897     0.514822447700     1.007825032070

  Charge       = 0
  Multiplicity = 1
  Basis Set: 6-31G*
  Basis Set:

    Orbital Energies (a.u.)
    -----------------------

    Doubly Occupied:

       1A    -20.603355     2A    -20.545196     3A    -11.371994
       4A    -11.280657     5A    -11.234745     6A    -11.219083
       7A    -11.217586     8A    -11.215976     9A    -11.215826
      10A    -11.214451    11A    -11.209044    12A     -1.469060
      13A     -1.362505    14A     -1.098047    15A     -1.066804
      16A     -1.019496    17A     -0.977218    18A     -0.928510
      19A     -0.861594    20A     -0.799300    21A     -0.790482
      22A     -0.763785    23A     -0.700572    24A     -0.682330
      25A     -0.672159    26A     -0.651107    27A     -0.628651
      28A     -0.604763    29A     -0.594643    30A     -0.581029
      31A     -0.566989    32A     -0.549199    33A     -0.531696
      34A     -0.530462    35A     -0.516182    36A     -0.512051
      37A     -0.495914    38A     -0.477872    39A     -0.470223
      40A     -0.462175    41A     -0.458966    42A     -0.455826
      43A     -0.441239    44A     -0.435278

  @DF-RHF Final Energy:  -501.04406064352702

   => Energetics <=

    Nuclear Repulsion Energy =            610.0255849339698671
    One-Electron Energy =               -1891.1712107712942270
    Two-Electron Energy =                 780.1015651937973416
    DFT Exchange-Correlation Energy =       0.0000000000000000
    Empirical Dispersion Energy =           0.0000000000000000
    PCM Polarization Energy =               0.0000000000000000
    EFP Energy =                            0.0000000000000000
    Total Energy =                       -501.0440606435270183

  Mulliken Charges: (a.u.)
   Center  Symbol    Alpha    Beta     Spin     Total
       1     O     4.28596  4.28596  0.00000 -0.57193
       2     C     2.60491  2.60491  0.00000  0.79018
       3     C     3.20964  3.20964  0.00000 -0.41928
       4     O     4.30747  4.30747  0.00000 -0.61493
       5     C     3.15388  3.15388  0.00000 -0.30776
       6     H     0.39870  0.39870  0.00000  0.20260
       7     H     0.40126  0.40126  0.00000  0.19748
       8     C     3.15667  3.15667  0.00000 -0.31334
       9     H     0.41305  0.41305  0.00000  0.17390
      10     H     0.40881  0.40881  0.00000  0.18238
      11     C     3.15506  3.15506  0.00000 -0.31012
      12     H     0.41825  0.41825  0.00000  0.16351
      13     H     0.42370  0.42370  0.00000  0.15260
      14     C     3.15041  3.15041  0.00000 -0.30081
      15     H     0.42276  0.42276  0.00000  0.15447
      16     H     0.42347  0.42347  0.00000  0.15305
      17     C     3.15148  3.15148  0.00000 -0.30296
      18     H     0.42327  0.42327  0.00000  0.15346
      19     H     0.42393  0.42393  0.00000  0.15214
      20     C     3.23936  3.23936  0.00000 -0.47871
      21     H     0.42281  0.42281  0.00000  0.15439
      22     H     0.42343  0.42343  0.00000  0.15314
      23     H     0.41923  0.41923  0.00000  0.16153
      24     H     0.42154  0.42154  0.00000  0.15691
      25     H     0.42182  0.42182  0.00000  0.15636
      26     C     3.09240  3.09240  0.00000 -0.18480
      27     H     0.40909  0.40909  0.00000  0.18183
      28     H     0.40852  0.40852  0.00000  0.18296
      29     H     0.40913  0.40913  0.00000  0.18174

   Total alpha = 44.00000, Total beta = 44.00000, Total charge = -0.00000
