  ==> Input File <==

--------------------------------------------------------------------------
set {
	reference rhf
	basis cc-pvtz
}

set_num_threads( 4 )
memory 2 gb

molecule MOL {
0 1

H	 -0.366580	 2.045936	 -0.305741
C	 0.351829	 1.335402	 0.083179
N	 -0.000018	 0.000080	 -0.334836
H	 1.327156	 1.599860	 -0.305475
H	 0.380566	 1.445403	 1.171445
C	 1.121940	 -0.696683	 -0.916309
C	 -0.611277	 -0.756079	 0.731385
H	 0.806365	 -1.665876	 -1.281235
H	 1.511722	 -0.134536	 -1.755503
H	 1.938866	 -0.852775	 -0.205438
H	 -1.488664	 -0.237518	 1.096717
H	 -0.924795	 -1.725322	 0.364780
H	 0.062946	 -0.916781	 1.577972

	symmetry c1
}
set optking {
	frozen_dihedral = ("
		6 3 2 1
	")
}

ee = optimize('scf')
oeprop('DIPOLE', 'QUADRUPOLE', 'MULLIKEN_CHARGES')
f=open( 'psi4out.xyz', 'w' )
f.write( "13  " )
f.write( str(ee) + "\n" )
f.write( MOL.save_string_xyz() )
f.close()
--------------------------------------------------------------------------

    Molecular point group: c1
  Charge       = 0
  Multiplicity = 1
  Basis Set: CC-PVTZ
  Basis Set:
  @DF-RHF Final Energy:  -173.32784776959397
    Total Energy =                       -173.3278477695939159
    Molecular point group: c1
  Basis Set: CC-PVTZ
  Basis Set:
  Basis Set: CC-PVTZ
  Basis Set:
  @DF-RHF Final Energy:  -173.32850978011248
    Total Energy =                       -173.3285097801124266
  Basis Set: CC-PVTZ
  Basis Set:
  Basis Set: CC-PVTZ
  Basis Set:
  @DF-RHF Final Energy:  -173.32865927783436
    Total Energy =                       -173.3286592778345039
  Basis Set: CC-PVTZ
  Basis Set:
  Basis Set: CC-PVTZ
  Basis Set:
  @DF-RHF Final Energy:  -173.32867325951170
    Total Energy =                       -173.3286732595116746
  Basis Set: CC-PVTZ
  Basis Set:
  Charge       = 0
  Multiplicity = 1
  Basis Set: CC-PVTZ
  Basis Set:

    Orbital Energies (a.u.)
    -----------------------

    Doubly Occupied:

       1A    -15.534581     2A    -11.234198     3A    -11.233974
       4A    -11.233784     5A     -1.221681     6A     -0.952651
       7A     -0.952182     8A     -0.805783     9A     -0.639048
      10A     -0.630393    11A     -0.628294    12A     -0.550313
      13A     -0.544856    14A     -0.514616    15A     -0.502982
      16A     -0.501687    17A     -0.339911

  @DF-RHF Final Energy:  -173.32867433904303

   => Energetics <=

    Nuclear Repulsion Energy =            138.9370943934410150
    One-Electron Energy =                -508.4896680853062207
    Two-Electron Energy =                 196.2238993528221727
    DFT Exchange-Correlation Energy =       0.0000000000000000
    Empirical Dispersion Energy =           0.0000000000000000
    PCM Polarization Energy =               0.0000000000000000
    EFP Energy =                            0.0000000000000000
    Total Energy =                       -173.3286743390430047
    Molecular point group: c1
  Basis Set: CC-PVTZ
  Basis Set:

  -Total Gradient:
     Atom            X                  Y                   Z
    ------   -----------------  -----------------  -----------------
       1        0.002081952456     0.000457884558    -0.003313210545
       2       -0.002993453858    -0.000121127764     0.003152557699
       3        0.001788648919    -0.001321362025     0.002893262477
       4        0.000000816970     0.000005162647    -0.000023787827
       5        0.000008352902    -0.000035630657    -0.000014123936
       6       -0.000854992576     0.001021308307    -0.002730316715
       7       -0.000021608563     0.000045472090     0.000027819948
       8        0.000005331123    -0.000003803088     0.000002893134
       9        0.000020759371    -0.000018280915    -0.000012232987
      10       -0.000013641642    -0.000003940423    -0.000003560152
      11       -0.000018360564    -0.000014472847     0.000024450165
      12       -0.000001714208    -0.000004316979     0.000007005964
      13       -0.000002090330    -0.000006892902    -0.000010757225

  **** Optimization is complete! (in 5 steps) ****
    Final optimized geometry and variables:
    Molecular point group: c1

    Geometry (in Angstrom), charge = 0, multiplicity = 1:

    H           -0.646935693528     2.077080093193    -0.192785565419
    C            0.106178149601     1.387995380351     0.174774504543
    N           -0.197823343481     0.024742674240    -0.215437828090
    H            1.048862630162     1.701943147574    -0.256426653046
    H            0.193135122610     1.504223313861     1.253121798105
    C            0.900850512810    -0.677431051634    -0.828047454131
    C           -0.861556008483    -0.728813949107     0.815653098640
    H            0.563712736222    -1.642456832303    -1.186066735543
    H            1.268693388265    -0.120443008151    -1.679931200486
    H            1.741489943255    -0.849687497531    -0.148008713106
    H           -1.738620763977    -0.193588612520     1.158643142956
    H           -1.189824090885    -1.684640890325     0.426363969611
    H           -0.224004415018    -0.918917992736     1.685025985076

  Mulliken Charges: (a.u.)
   Center  Symbol    Alpha    Beta     Spin     Total
       1     H     0.45136  0.45136  0.00000  0.09728
       2     C     3.08578  3.08578  0.00000 -0.17157
       3     N     3.59832  3.59832  0.00000 -0.19663
       4     H     0.45900  0.45900  0.00000  0.08200
       5     H     0.46650  0.46650  0.00000  0.06701
       6     C     3.08907  3.08907  0.00000 -0.17814
       7     C     3.09003  3.09003  0.00000 -0.18005
       8     H     0.45371  0.45371  0.00000  0.09257
       9     H     0.45257  0.45257  0.00000  0.09487
      10     H     0.47387  0.47387  0.00000  0.05227
      11     H     0.45234  0.45234  0.00000  0.09532
      12     H     0.45383  0.45383  0.00000  0.09234
      13     H     0.47363  0.47363  0.00000  0.05274

   Total alpha = 17.00000, Total beta = 17.00000, Total charge =  0.00000
