  ==> Input File <==

--------------------------------------------------------------------------
set {
	reference rhf
	basis 6-31G*
}

set_num_threads( 1 )
memory 2 gb

molecule MOL {
0 1

H	 3.161712	 0.804311	 -1.274125
O	 2.229777	 0.661665	 -1.140319
C	 2.077727	 -0.067559	 -0.035091
C	 0.624473	 -0.343591	 0.253101
O	 3.003995	 -0.433183	 0.612491
C	 -0.265902	 0.883932	 0.072916
H	 0.324016	 -1.163849	 -0.390541
H	 0.565024	 -0.726111	 1.268924
C	 -1.728698	 0.646073	 0.462102
H	 -0.209144	 1.219470	 -0.958188
H	 0.135059	 1.692851	 0.673903
C	 -2.482460	 -0.343073	 -0.431425
H	 -2.245265	 1.602650	 0.432430
H	 -1.779332	 0.308348	 1.496285
C	 -3.960546	 -0.461025	 -0.060175
H	 -2.395034	 -0.026811	 -1.468912
H	 -2.024850	 -1.327147	 -0.371646
H	 -4.472726	 -1.168004	 -0.705284
H	 -4.465146	 0.496508	 -0.151489
H	 -4.081218	 -0.800940	 0.964585

	symmetry c1
}
set optking {
	frozen_dihedral = ("
		16 12 9 6,
		7 4 6 10,
		12 9 6 10,
		1 2 3 5
	")
}

ee = energy('scf')
oeprop('DIPOLE', 'QUADRUPOLE', 'MULLIKEN_CHARGES')
f=open( 'psi4out.xyz', 'w' )
f.write( "20  " )
f.write( str(ee) + "\n" )
f.write( MOL.save_string_xyz() )
f.close()
--------------------------------------------------------------------------

    Molecular point group: c1

    Geometry (in Angstrom), charge = 0, multiplicity = 1:

       Center              X                  Y                   Z               Mass
    ------------   -----------------  -----------------  -----------------  -----------------
           H          3.185271505843     0.732379809702    -1.224219009023     1.007825032070
           O          2.253336505843     0.589733809702    -1.090413009023    15.994914619560
           C          2.101286505843    -0.139490190298     0.014814990977    12.000000000000
           C          0.648032505843    -0.415522190298     0.303006990977    12.000000000000
           O          3.027554505843    -0.505114190298     0.662396990977    15.994914619560
           C         -0.242342494157     0.812000809702     0.122821990977    12.000000000000
           H          0.347575505843    -1.235780190298    -0.340635009023     1.007825032070
           H          0.588583505843    -0.798042190298     1.318829990977     1.007825032070
           C         -1.705138494157     0.574141809702     0.512007990977    12.000000000000
           H         -0.185584494157     1.147538809702    -0.908282009023     1.007825032070
           H          0.158618505843     1.620919809702     0.723808990977     1.007825032070
           C         -2.458900494157    -0.415004190298    -0.381519009023    12.000000000000
           H         -2.221705494157     1.530718809702     0.482335990977     1.007825032070
           H         -1.755772494157     0.236416809702     1.546190990977     1.007825032070
           C         -3.936986494157    -0.532956190298    -0.010269009023    12.000000000000
           H         -2.371474494157    -0.098742190298    -1.419006009023     1.007825032070
           H         -2.001290494157    -1.399078190298    -0.321740009023     1.007825032070
           H         -4.449166494157    -1.239935190298    -0.655378009023     1.007825032070
           H         -4.441586494157     0.424576809702    -0.101583009023     1.007825032070
           H         -4.057658494157    -0.872871190298     1.014490990977     1.007825032070

  Charge       = 0
  Multiplicity = 1
  Basis Set: 6-31G*
  Basis Set:

    Orbital Energies (a.u.)
    -----------------------

    Doubly Occupied:

       1A    -20.613051     2A    -20.549842     3A    -11.380451
       4A    -11.239087     5A    -11.228630     6A    -11.223133
       7A    -11.222053     8A    -11.213725     9A     -1.474417
      10A     -1.364604    11A     -1.099400    12A     -1.042704
      13A     -0.960114    14A     -0.863008    15A     -0.824192
      16A     -0.791668    17A     -0.699725    18A     -0.683577
      19A     -0.657714    20A     -0.630327    21A     -0.610430
      22A     -0.591380    23A     -0.575664    24A     -0.553168
      25A     -0.548485    26A     -0.518287    27A     -0.498598
      28A     -0.481161    29A     -0.477646    30A     -0.469128
      31A     -0.459641    32A     -0.434471

  @DF-RHF Final Energy:  -383.94658694822334

   => Energetics <=

    Nuclear Repulsion Energy =            377.3575890596299018
    One-Electron Energy =               -1270.6493993747410514
    Two-Electron Energy =                 509.3452233668886038
    DFT Exchange-Correlation Energy =       0.0000000000000000
    Empirical Dispersion Energy =           0.0000000000000000
    PCM Polarization Energy =               0.0000000000000000
    EFP Energy =                            0.0000000000000000
    Total Energy =                       -383.9465869482226026

  Mulliken Charges: (a.u.)
   Center  Symbol    Alpha    Beta     Spin     Total
       1     H     0.26763  0.26763  0.00000  0.46474
       2     O     4.34714  4.34714  0.00000 -0.69428
       3     C     2.62651  2.62651  0.00000  0.74698
       4     C     3.20820  3.20820  0.00000 -0.41641
       5     O     4.28054  4.28054  0.00000 -0.56108
       6     C     3.16210  3.16210  0.00000 -0.32420
       7     H     0.39845  0.39845  0.00000  0.20310
       8     H     0.39779  0.39779  0.00000  0.20441
       9     C     3.15468  3.15468  0.00000 -0.30936
      10     H     0.40588  0.40588  0.00000  0.18825
      11     H     0.41408  0.41408  0.00000  0.17184
      12     C     3.15495  3.15495  0.00000 -0.30990
      13     H     0.41815  0.41815  0.00000  0.16369
      14     H     0.42178  0.42178  0.00000  0.15644
      15     C     3.23943  3.23943  0.00000 -0.47885
      16     H     0.42117  0.42117  0.00000  0.15766
      17     H     0.42209  0.42209  0.00000  0.15583
      18     H     0.41793  0.41793  0.00000  0.16413
      19     H     0.42075  0.42075  0.00000  0.15850
      20     H     0.42075  0.42075  0.00000  0.15850

   Total alpha = 32.00000, Total beta = 32.00000, Total charge =  0.00000
