                              Psi4 1.0.54 Driver

  ==> Input File <==

--------------------------------------------------------------------------
set {
	reference rhf
	basis cc-pvtz
}

set_num_threads( 4 )
memory 2 gb

molecule MOL {
0 1

H	 -3.708436	 -0.127100	 -0.495206
O	 -2.873795	 0.207680	 -0.766011
C	 -2.021813	 0.336996	 0.342658
C	 -0.669613	 0.837286	 -0.127252
H	 -2.440168	 1.039342	 1.059187
H	 -1.907689	 -0.620240	 0.847692
C	 0.490865	 -0.082543	 0.241244
H	 -0.708709	 0.967192	 -1.204587
H	 -0.507562	 1.822272	 0.303070
C	 1.839800	 0.429565	 -0.255472
H	 0.305636	 -1.070211	 -0.165276
H	 0.527397	 -0.195943	 1.322876
C	 3.001144	 -0.485193	 0.119072
H	 1.804373	 0.541073	 -1.335756
H	 2.020437	 1.423114	 0.146921
H	 2.866892	 -1.477297	 -0.298806
H	 3.943543	 -0.095749	 -0.249061
H	 3.085064	 -0.590459	 1.195790

	symmetry c1
}
set optking {
	frozen_dihedral = ("
		2 3 4 8
	")
}

ee,wfn = optimize('scf', return_wfn=True)
oeprop( wfn, 'DIPOLE', 'QUADRUPOLE', 'MULLIKEN_CHARGES')
f=open( 'psi4out.xyz', 'w' )
f.write( "18  " )
f.write( str(ee) + "\n" )
f.write( MOL.save_string_xyz() )
f.close()
--------------------------------------------------------------------------

    Molecular point group: c1
  Charge       = 0
  Multiplicity = 1
  Basis Set: CC-PVTZ
  Basis Set:
  @DF-RHF Final Energy:  -271.28087730420089
    Total Energy =                       -271.2808773042009989
    Molecular point group: c1
  Basis Set: CC-PVTZ
  Basis Set:
  Basis Set: CC-PVTZ
  Basis Set:
  @DF-RHF Final Energy:  -271.28121980851836
    Total Energy =                       -271.2812198085181308
  Basis Set: CC-PVTZ
  Basis Set:
  Basis Set: CC-PVTZ
  Basis Set:
  @DF-RHF Final Energy:  -271.28128507986014
    Total Energy =                       -271.2812850798602540
  Basis Set: CC-PVTZ
  Basis Set:
  Basis Set: CC-PVTZ
  Basis Set:
  @DF-RHF Final Energy:  -271.28128694784442
    Total Energy =                       -271.2812869478444782
  Basis Set: CC-PVTZ
  Basis Set:
  Charge       = 0
  Multiplicity = 1
  Basis Set: CC-PVTZ
  Basis Set:

    Orbital Energies (a.u.)
    -----------------------

    Doubly Occupied:

       1A    -20.545239     2A    -11.265490     3A    -11.212295
       4A    -11.211662     5A    -11.209087     6A    -11.205764
       7A     -1.362269     8A     -1.079330     9A     -1.009547
      10A     -0.913769    11A     -0.821198    12A     -0.791327
      13A     -0.703763    14A     -0.645991    15A     -0.628183
      16A     -0.582718    17A     -0.572551    18A     -0.561328
      19A     -0.528933    20A     -0.498373    21A     -0.490045
      22A     -0.469573    23A     -0.463167    24A     -0.453556
      25A     -0.429320

  @DF-RHF Final Energy:  -271.28128731724883

   => Energetics <=

    Nuclear Repulsion Energy =            246.0664379583722905
    One-Electron Energy =                -855.3864928790267186
    Two-Electron Energy =                 338.0387676034059723
    DFT Exchange-Correlation Energy =       0.0000000000000000
    Empirical Dispersion Energy =           0.0000000000000000
    PCM Polarization Energy =               0.0000000000000000
    EFP Energy =                            0.0000000000000000
    Total Energy =                       -271.2812873172484842
    Molecular point group: c1
  Basis Set: CC-PVTZ
  Basis Set:

  -Total Gradient:
     Atom            X                  Y                   Z
    ------   -----------------  -----------------  -----------------
       1       -0.000029038587    -0.000006147249    -0.000025424029
       2        0.000091598399    -0.000287733254     0.000046940792
       3       -0.000054277158     0.000494688382     0.000064575216
       4        0.000193709411    -0.000577584676    -0.000084281538
       5       -0.000023093318     0.000008108828    -0.000030610268
       6       -0.000011271301     0.000011677612    -0.000020120967
       7       -0.000015158072    -0.000018102797    -0.000039870559
       8       -0.000115048768     0.000356775814     0.000037806948
       9       -0.000046662403    -0.000014248790     0.000041272114
      10        0.000005268176     0.000001955914     0.000006912913
      11       -0.000008051131     0.000012384095    -0.000002735804
      12       -0.000015347759     0.000003530730    -0.000006936696
      13        0.000013030503     0.000009539897     0.000005132517
      14       -0.000002022845    -0.000008128763     0.000007122611
      15        0.000010221569     0.000012292718    -0.000003397598
      16       -0.000002964113     0.000005607812    -0.000000126152
      17        0.000007260420    -0.000002424231     0.000003104318
      18        0.000001846979    -0.000002192042     0.000000636185

  **** Optimization is complete! (in 5 steps) ****
    Final optimized geometry and variables:
    Molecular point group: c1

    Geometry (in Angstrom), charge = 0, multiplicity = 1:

    H           -3.624746349450    -0.300748055550    -0.379832586255
    O           -2.781840395982     0.002651436764    -0.663063413632
    C           -1.926011002788     0.144084937080     0.443472110314
    C           -0.563368801536     0.648477323363    -0.042089990742
    H           -2.355929441198     0.838074034624     1.159888189224
    H           -1.812359299560    -0.812236949077     0.947136455643
    C            0.597678032233    -0.275628172924     0.314935233962
    H           -0.624451120493     0.762184249013    -1.117534605033
    H           -0.371469923030     1.637261355692     0.361642250862
    C            1.947494654890     0.234588177584    -0.179540339752
    H            0.409334913998    -1.261042853977    -0.104169258721
    H            0.639239577654    -0.406298515086     1.394281894091
    C            3.105587118594    -0.692012596687     0.175376291587
    H            1.906902618910     0.364626231266    -1.257385982600
    H            2.133850133716     1.220172514680     0.238581228893
    H            2.965791777551    -1.676607044800    -0.258335937768
    H            4.048083017650    -0.300914067300    -0.190303158477
    H            3.193569829672    -0.815122551871     1.249841654192

  Mulliken Charges: (a.u.)
   Center  Symbol    Alpha    Beta     Spin     Total
       1     H     0.39560  0.39560  0.00000  0.20880
       2     O     4.19727  4.19727  0.00000 -0.39453
       3     C     2.96537  2.96537  0.00000  0.06925
       4     C     3.09072  3.09072  0.00000 -0.18145
       5     H     0.47258  0.47258  0.00000  0.05485
       6     H     0.47527  0.47527  0.00000  0.04946
       7     C     3.09460  3.09460  0.00000 -0.18920
       8     H     0.44471  0.44471  0.00000  0.11058
       9     H     0.45345  0.45345  0.00000  0.09310
      10     C     3.08520  3.08520  0.00000 -0.17040
      11     H     0.45176  0.45176  0.00000  0.09647
      12     H     0.45639  0.45639  0.00000  0.08722
      13     C     3.14970  3.14970  0.00000 -0.29941
      14     H     0.45305  0.45305  0.00000  0.09390
      15     H     0.45507  0.45507  0.00000  0.08987
      16     H     0.45487  0.45487  0.00000  0.09026
      17     H     0.44853  0.44853  0.00000  0.10295
      18     H     0.45586  0.45586  0.00000  0.08828

   Total alpha = 25.00000, Total beta = 25.00000, Total charge =  0.00000

*** Psi4 exiting successfully. Buy a developer a beer!
