  ==> Input File <==

--------------------------------------------------------------------------
set {
	reference rhf
	basis 6-31G*
}

set_num_threads( 4 )
memory 2 gb

molecule MOL {
0 1

O	 1.073434	 4.162437	 1.082808
C	 0.085481	 4.489398	 1.665736
C	 -1.180777	 3.652060	 1.645919
C	 0.031809	 5.772361	 2.469652
C	 -1.068086	 2.373823	 0.820300
H	 -1.444312	 3.422098	 2.677449
H	 -1.989759	 4.279975	 1.274875
C	 -2.361601	 1.557389	 0.824219
H	 -0.250709	 1.772448	 1.205491
H	 -0.797001	 2.631234	 -0.198720
C	 -2.259874	 0.272531	 0.000494
H	 -2.629466	 1.305644	 1.849363
H	 -3.177427	 2.166942	 0.438291
C	 -3.549786	 -0.549746	 -0.000374
H	 -1.445093	 -0.337919	 0.385854
H	 -1.992995	 0.523034	 -1.024699
C	 -4.809590	 0.315458	 -0.000369
H	 -3.560515	 -1.202009	 -0.871156
H	 -3.561123	 -1.202955	 0.869711
H	 -4.844746	 0.956611	 -0.876632
H	 -5.706986	 -0.295590	 -0.001609
H	 -4.845960	 0.954827	 0.877144
H	 -0.202819	 5.559164	 3.508457
H	 0.984893	 6.279406	 2.411585
H	 -0.749418	 6.424560	 2.090238

	symmetry c1
}
set optking {
	frozen_dihedral = ("
		15 11 14 18
	")
}

ee = optimize('scf')
oeprop('DIPOLE', 'QUADRUPOLE', 'MULLIKEN_CHARGES')
f=open( 'psi4out.xyz', 'w' )
f.write( "25  " )
f.write( str(ee) + "\n" )
f.write( MOL.save_string_xyz() )
f.close()
--------------------------------------------------------------------------

    Molecular point group: c1
  Charge       = 0
  Multiplicity = 1
  Basis Set: 6-31G*
  Basis Set:
  @DF-RHF Final Energy:  -387.12972637612341
    Total Energy =                       -387.1297263761231306
    Molecular point group: c1
  Basis Set: 6-31G*
  Basis Set:
  Basis Set: 6-31G*
  Basis Set:
  @DF-RHF Final Energy:  -387.13043965790854
    Total Energy =                       -387.1304396579084823
  Basis Set: 6-31G*
  Basis Set:
  Basis Set: 6-31G*
  Basis Set:
  @DF-RHF Final Energy:  -387.13187656401465
    Total Energy =                       -387.1318765640148740
  Basis Set: 6-31G*
  Basis Set:
  Basis Set: 6-31G*
  Basis Set:
  @DF-RHF Final Energy:  -387.13200190476402
    Total Energy =                       -387.1320019047643655
  Basis Set: 6-31G*
  Basis Set:
  Basis Set: 6-31G*
  Basis Set:
  @DF-RHF Final Energy:  -387.13174716470070
    Total Energy =                       -387.1317471647010962
  Basis Set: 6-31G*
  Basis Set:
  Basis Set: 6-31G*
  Basis Set:
  @DF-RHF Final Energy:  -387.13193552628110
    Total Energy =                       -387.1319355262810404
  Basis Set: 6-31G*
  Basis Set:
  Basis Set: 6-31G*
  Basis Set:
  @DF-RHF Final Energy:  -387.13203425177880
    Total Energy =                       -387.1320342517792596
  Basis Set: 6-31G*
  Basis Set:
  Charge       = 0
  Multiplicity = 1
  Basis Set: 6-31G*
  Basis Set:

    Orbital Energies (a.u.)
    -----------------------

    Doubly Occupied:

       1A    -20.550391     2A    -11.326220     3A    -11.231745
       4A    -11.228288     5A    -11.216700     6A    -11.216049
       7A    -11.215915     8A    -11.214057     9A    -11.208747
      10A     -1.395692    11A     -1.093223    12A     -1.054854
      13A     -1.013105    14A     -0.966441    15A     -0.896601
      16A     -0.825593    17A     -0.773921    18A     -0.729234
      19A     -0.660133    20A     -0.651965    21A     -0.629029
      22A     -0.623438    23A     -0.602682    24A     -0.592450
      25A     -0.563505    26A     -0.556285    27A     -0.545480
      28A     -0.522105    29A     -0.510509    30A     -0.493887
      31A     -0.489919    32A     -0.477338    33A     -0.457725
      34A     -0.455743    35A     -0.450514    36A     -0.399333

  @DF-RHF Final Energy:  -387.13203479332543

   => Energetics <=

    Nuclear Repulsion Energy =            443.4960896910847055
    One-Electron Energy =               -1403.5786204966948389
    Two-Electron Energy =                 572.9504960122841339
    DFT Exchange-Correlation Energy =       0.0000000000000000
    Empirical Dispersion Energy =           0.0000000000000000
    PCM Polarization Energy =               0.0000000000000000
    EFP Energy =                            0.0000000000000000
    Total Energy =                       -387.1320347933259427
    Molecular point group: c1
  Basis Set: 6-31G*
  Basis Set:

  -Total Gradient:
     Atom            X                  Y                   Z
    ------   -----------------  -----------------  -----------------
       1       -0.000006543747     0.000006158573    -0.000005050661
       2        0.000015022117    -0.000024039911     0.000014385188
       3       -0.000022812659    -0.000005685438    -0.000001823635
       4       -0.000010051221    -0.000002613207    -0.000007814547
       5        0.000013952187    -0.000028385068    -0.000019736586
       6        0.000002942728     0.000005384950     0.000000475225
       7       -0.000004175856     0.000000240689    -0.000000874579
       8       -0.000039535503     0.000015562811     0.000019389884
       9        0.000012687273     0.000004541223     0.000006884961
      10        0.000002229356    -0.000005300292    -0.000002585861
      11        0.000743848036    -0.001371877146    -0.007060585499
      12        0.000001009318    -0.000003894019     0.000007539636
      13        0.000008619580     0.000013344573     0.000013052564
      14        0.003262630704    -0.004257060466     0.004903964051
      15       -0.001160358878     0.001811003294     0.005203144807
      16        0.000002059517     0.000004354161    -0.000015424347
      17        0.000010183075     0.000042575614    -0.000031117654
      18       -0.002823663409     0.003821103090    -0.003022082135
      19        0.000000952534    -0.000026356262    -0.000000845423
      20       -0.000037507968    -0.000013489840    -0.000017298727
      21        0.000029411713    -0.000010918785     0.000014679651
      22        0.000000834384     0.000030088964     0.000004865968
      23       -0.000000226528    -0.000001925321    -0.000001015010
      24        0.000000046776    -0.000004855390    -0.000002698118
      25       -0.000001553532     0.000002043200     0.000000570844

  **** Optimization is complete! (in 8 steps) ****
    Final optimized geometry and variables:
    Molecular point group: c1

    Geometry (in Angstrom), charge = 0, multiplicity = 1:

    O            2.682202814931     1.667525098852     0.176509766594
    C            1.693757055122     2.028359476228     0.738229624675
    C            0.401877007196     1.231996416863     0.695925196293
    C            1.665141460020     3.315875094188     1.536126676276
    C            0.489973489816    -0.052730547788    -0.122585871543
    H            0.110607031543     1.014963427856     1.722820115501
    H           -0.378843495922     1.884092044004     0.306571300203
    C           -0.828805903927    -0.828332420367    -0.139791103197
    H            1.281909168443    -0.676632378473     0.279396129328
    H            0.787272653356     0.192019802167    -1.137603849165
    C           -0.738636229650    -2.109480351213    -0.977334304410
    H           -1.112000977822    -1.083131833495     0.881009164362
    H           -1.616320092311    -0.184841424140    -0.523440003717
    C           -1.982232336247    -3.015494290924    -0.925781363589
    H            0.107946328525    -2.674560432404    -0.594530326112
    H           -0.515297090927    -1.845302879817    -2.007832119349
    C           -3.326082658438    -2.281485311503    -0.981986422386
    H           -1.952368517529    -3.679227564450    -1.785910411509
    H           -1.951059633562    -3.635342566134    -0.034073338876
    H           -3.388903077814    -1.640281360221    -1.857300121023
    H           -4.143025115273    -2.994329501708    -1.039253599228
    H           -3.493913240252    -1.663980619580    -0.106196784537
    H            1.403208692846     3.114770666428     2.570809117342
    H            2.634927920113     3.791970803127     1.495297555436
    H            0.912876278806     3.991040296973     1.138760169453

  Mulliken Charges: (a.u.)
   Center  Symbol    Alpha    Beta     Spin     Total
       1     O     4.26119  4.26119  0.00000 -0.52237
       2     C     2.73573  2.73573  0.00000  0.52854
       3     C     3.21062  3.21062  0.00000 -0.42124
       4     C     3.28664  3.28664  0.00000 -0.57329
       5     C     3.14778  3.14778  0.00000 -0.29555
       6     H     0.41010  0.41010  0.00000  0.17979
       7     H     0.41008  0.41008  0.00000  0.17984
       8     C     3.15747  3.15747  0.00000 -0.31494
       9     H     0.41233  0.41233  0.00000  0.17534
      10     H     0.41239  0.41239  0.00000  0.17521
      11     C     3.15276  3.15276  0.00000 -0.30552
      12     H     0.42545  0.42545  0.00000  0.14909
      13     H     0.42209  0.42209  0.00000  0.15583
      14     C     3.15217  3.15217  0.00000 -0.30434
      15     H     0.42054  0.42054  0.00000  0.15891
      16     H     0.42130  0.42130  0.00000  0.15740
      17     C     3.24293  3.24293  0.00000 -0.48585
      18     H     0.42040  0.42040  0.00000  0.15920
      19     H     0.42184  0.42184  0.00000  0.15631
      20     H     0.42244  0.42244  0.00000  0.15513
      21     H     0.41929  0.41929  0.00000  0.16141
      22     H     0.42052  0.42052  0.00000  0.15897
      23     H     0.40876  0.40876  0.00000  0.18248
      24     H     0.39647  0.39647  0.00000  0.20706
      25     H     0.40870  0.40870  0.00000  0.18259

   Total alpha = 36.00000, Total beta = 36.00000, Total charge =  0.00000
