  ==> Input File <==

--------------------------------------------------------------------------
set {
	reference rhf
	basis 6-31G*
}

set_num_threads( 4 )
memory 2 gb

molecule MOL {
0 1

H	 -3.261111	 -0.295142	 1.469456
C	 -3.306842	 -0.277400	 0.373456
C	 -2.660244	 0.921717	 -0.272021
O	 -3.838538	 -1.161155	 -0.216482
C	 -1.551638	 1.531687	 0.596991
H	 -2.286453	 0.626216	 -1.245504
H	 -3.443311	 1.663165	 -0.426022
C	 -0.334405	 0.618459	 0.763298
H	 -1.239929	 2.470098	 0.148096
H	 -1.957413	 1.784409	 1.575375
C	 0.766840	 1.243672	 1.621892
H	 0.064982	 0.375333	 -0.219162
H	 -0.640477	 -0.327532	 1.205971
C	 1.989225	 0.334309	 1.772834
H	 1.061079	 2.192673	 1.180812
H	 0.367264	 1.474917	 2.608426
C	 3.085425	 0.883858	 2.692841
H	 2.412811	 0.134188	 0.789868
H	 1.661556	 -0.627089	 2.162783
C	 3.777303	 2.145503	 2.174019
H	 3.834973	 0.109127	 2.833968
H	 2.664654	 1.080813	 3.676753
H	 4.193976	 1.982714	 1.183487
H	 3.095225	 2.986862	 2.111906
H	 4.591892	 2.435554	 2.830761

	symmetry c1
}
set optking {
	frozen_dihedral = ("
		6 3 2 4
	")
}

ee = optimize('scf')
oeprop('DIPOLE', 'QUADRUPOLE', 'MULLIKEN_CHARGES')
f=open( 'psi4out.xyz', 'w' )
f.write( "25  " )
f.write( str(ee) + "\n" )
f.write( MOL.save_string_xyz() )
f.close()
--------------------------------------------------------------------------

    Molecular point group: c1
  Charge       = 0
  Multiplicity = 1
  Basis Set: 6-31G*
  Basis Set:
  @DF-RHF Final Energy:  -387.12126841879984
    Total Energy =                       -387.1212684188002413
    Molecular point group: c1
  Basis Set: 6-31G*
  Basis Set:
  Basis Set: 6-31G*
  Basis Set:
  @DF-RHF Final Energy:  -387.11932142059260
    Total Energy =                       -387.1193214205927688
  Basis Set: 6-31G*
  Basis Set:
  Basis Set: 6-31G*
  Basis Set:
  @DF-RHF Final Energy:  -387.12139379339720
    Total Energy =                       -387.1213937933978286
  Basis Set: 6-31G*
  Basis Set:
  Basis Set: 6-31G*
  Basis Set:
  @DF-RHF Final Energy:  -387.12118733192324
    Total Energy =                       -387.1211873319233518
  Basis Set: 6-31G*
  Basis Set:
  @DF-RHF Final Energy:  -387.12144815212207
    Total Energy =                       -387.1214481521219568
  Basis Set: 6-31G*
  Basis Set:
  @DF-RHF Final Energy:  -387.12146598194533
    Total Energy =                       -387.1214659819452208
  Basis Set: 6-31G*
  Basis Set:
  Basis Set: 6-31G*
  Basis Set:
  @DF-RHF Final Energy:  -387.12145924377495
    Total Energy =                       -387.1214592437743249
  Basis Set: 6-31G*
  Basis Set:
  Basis Set: 6-31G*
  Basis Set:
  @DF-RHF Final Energy:  -387.12146630625455
    Total Energy =                       -387.1214663062547743
  Basis Set: 6-31G*
  Basis Set:
  Charge       = 0
  Multiplicity = 1
  Basis Set: 6-31G*
  Basis Set:

    Orbital Energies (a.u.)
    -----------------------

    Doubly Occupied:

       1A    -20.561140     2A    -11.326778     3A    -11.235139
       4A    -11.233699     5A    -11.226355     6A    -11.221325
       7A    -11.219260     8A    -11.218474     9A    -11.211655
      10A     -1.401818    11A     -1.105205    12A     -1.070591
      13A     -1.013919    14A     -0.942660    15A     -0.875469
      16A     -0.822545    17A     -0.789689    18A     -0.783063
      19A     -0.664107    20A     -0.656796    21A     -0.633463
      22A     -0.630331    23A     -0.607530    24A     -0.596418
      25A     -0.571784    26A     -0.550351    27A     -0.538881
      28A     -0.525953    29A     -0.506633    30A     -0.498005
      31A     -0.490625    32A     -0.480534    33A     -0.466070
      34A     -0.460375    35A     -0.442521    36A     -0.409210

  @DF-RHF Final Energy:  -387.12146679176800

   => Energetics <=

    Nuclear Repulsion Energy =            437.3369753287265098
    One-Electron Energy =               -1390.9401402752905597
    Two-Electron Energy =                 566.4816981547955947
    DFT Exchange-Correlation Energy =       0.0000000000000000
    Empirical Dispersion Energy =           0.0000000000000000
    PCM Polarization Energy =               0.0000000000000000
    EFP Energy =                            0.0000000000000000
    Total Energy =                       -387.1214667917683983
    Molecular point group: c1
  Basis Set: 6-31G*
  Basis Set:

  -Total Gradient:
     Atom            X                  Y                   Z
    ------   -----------------  -----------------  -----------------
       1       -0.000014893600    -0.000008728083     0.000012144026
       2        0.001817637537    -0.000979134908     0.000053269362
       3       -0.001711358512     0.000681198327    -0.000623389735
       4       -0.001081966298     0.000641257976     0.000044868012
       5       -0.000027542137    -0.000022759035     0.000033583377
       6        0.001020536772    -0.000318538833     0.000483349970
       7        0.000004742245    -0.000006561846     0.000001977886
       8       -0.000000355850     0.000005672059    -0.000008141703
       9       -0.000002847214    -0.000019156517    -0.000006726594
      10        0.000005468729     0.000021153629     0.000022953106
      11       -0.000003377151    -0.000000338039     0.000000867197
      12        0.000007674574    -0.000000761616    -0.000000027200
      13       -0.000012389642    -0.000001452116    -0.000002050259
      14        0.000003274123     0.000004723320    -0.000017202391
      15       -0.000005291874    -0.000011996787    -0.000003486563
      16        0.000000342507     0.000004648610     0.000000996318
      17       -0.000013678351     0.000008341371     0.000012698579
      18        0.000002870222     0.000003486116    -0.000004393644
      19       -0.000001194007     0.000000847967    -0.000005582821
      20        0.000007510959    -0.000001601917    -0.000001611131
      21       -0.000005940479    -0.000000417021    -0.000000145076
      22        0.000000982571     0.000004070980     0.000004499024
      23        0.000001255830     0.000001654051    -0.000001994272
      24        0.000008783285    -0.000003516686     0.000004697684
      25       -0.000000244226    -0.000002091001    -0.000001153148

  **** Optimization is complete! (in 9 steps) ****
    Final optimized geometry and variables:
    Molecular point group: c1

    Geometry (in Angstrom), charge = 0, multiplicity = 1:

    H           -3.110623728328    -0.972359282090     0.424405511911
    C           -3.102579628343    -0.968332999296    -0.672485762820
    C           -2.427435092456     0.219549095264    -1.318617736261
    O           -3.639140148690    -1.839866368595    -1.275711063734
    C           -1.320145392377     0.837683707631    -0.460820609153
    H           -2.049918702230    -0.093123165038    -2.286271727966
    H           -3.208885330997     0.955345354025    -1.502369975199
    C           -0.099290153426    -0.071614218873    -0.297303043018
    H           -1.010858842952     1.775789465957    -0.912620340596
    H           -1.720880831652     1.092248364742     0.519089967100
    C            1.002905589738     0.552962271146     0.560430327685
    H            0.299368055480    -0.310834888810    -1.281323327637
    H           -0.401368736958    -1.020246253180     0.144339349122
    C            2.226798048184    -0.354811659429     0.708750578738
    H            1.294663840420     1.503308125149     0.120815845341
    H            0.604002092476     0.781602460281     1.547639513004
    C            3.319513695935     0.190964893960     1.635099646334
    H            2.653631019118    -0.546892385179    -0.274335974420
    H            1.900565719433    -1.319785829052     1.091114915454
    C            4.008760047499     1.458789169969     1.127342747640
    H            4.070709461473    -0.582732073975     1.772573853148
    H            2.895427060542     0.379335075959     2.619337208407
    H            4.431683947925     1.303594599598     0.138374300278
    H            3.323685805457     2.297932703132     1.066468565925
    H            4.818480033587     1.748331263476     1.789951405784

  Mulliken Charges: (a.u.)
   Center  Symbol    Alpha    Beta     Spin     Total
       1     H     0.43080  0.43080  0.00000  0.13841
       2     C     2.83356  2.83356  0.00000  0.33288
       3     C     3.20822  3.20822  0.00000 -0.41644
       4     O     4.23969  4.23969  0.00000 -0.47939
       5     C     3.16678  3.16678  0.00000 -0.33356
       6     H     0.39899  0.39899  0.00000  0.20201
       7     H     0.40051  0.40051  0.00000  0.19899
       8     C     3.15507  3.15507  0.00000 -0.31015
       9     H     0.41335  0.41335  0.00000  0.17329
      10     H     0.41990  0.41990  0.00000  0.16019
      11     C     3.15381  3.15381  0.00000 -0.30762
      12     H     0.41864  0.41864  0.00000  0.16272
      13     H     0.42158  0.42158  0.00000  0.15683
      14     C     3.15311  3.15311  0.00000 -0.30622
      15     H     0.42030  0.42030  0.00000  0.15939
      16     H     0.42341  0.42341  0.00000  0.15318
      17     C     3.15280  3.15280  0.00000 -0.30560
      18     H     0.42307  0.42307  0.00000  0.15386
      19     H     0.42116  0.42116  0.00000  0.15767
      20     C     3.24144  3.24144  0.00000 -0.48288
      21     H     0.41987  0.41987  0.00000  0.16026
      22     H     0.42311  0.42311  0.00000  0.15378
      23     H     0.42184  0.42184  0.00000  0.15632
      24     H     0.42053  0.42053  0.00000  0.15893
      25     H     0.41844  0.41844  0.00000  0.16311

   Total alpha = 36.00000, Total beta = 36.00000, Total charge =  0.00000
