  ==> Input File <==

--------------------------------------------------------------------------
set {
	reference rhf
	basis 6-31G*
}

set_num_threads( 4 )
memory 2 gb

molecule MOL {
0 1

H	 3.893188	 0.355400	 -0.101367
N	 3.092854	 -0.246221	 -0.068770
C	 1.865559	 0.531981	 0.018834
H	 3.199514	 -0.826043	 0.741946
C	 0.645745	 -0.382037	 -0.029944
H	 1.841966	 1.207024	 -0.831236
H	 1.815756	 1.155410	 0.915079
C	 -0.679275	 0.379305	 0.025956
H	 0.698998	 -0.976915	 -0.937203
H	 0.693479	 -1.083846	 0.802235
C	 -1.881873	 -0.523786	 0.306239
H	 -0.836160	 0.900149	 -0.917420
H	 -0.624762	 1.149931	 0.793426
C	 -3.204241	 0.240582	 0.357174
H	 -1.939132	 -1.293717	 -0.460013
H	 -1.729132	 -1.043641	 1.249678
H	 -3.402503	 0.744163	 -0.584853
H	 -4.037182	 -0.426464	 0.556835
H	 -3.190979	 0.995876	 1.138036

	symmetry c1
}
set optking {
	frozen_dihedral = ("
		12 8 5 9
	")
}

ee = optimize('scf')
oeprop('DIPOLE', 'QUADRUPOLE', 'MULLIKEN_CHARGES')
f=open( 'psi4out.xyz', 'w' )
f.write( "19  " )
f.write( str(ee) + "\n" )
f.write( MOL.save_string_xyz() )
f.close()
--------------------------------------------------------------------------

    Molecular point group: c1
  Charge       = 0
  Multiplicity = 1
  Basis Set: 6-31G*
  Basis Set:
  @DF-RHF Final Energy:  -251.35112029435339
    Total Energy =                       -251.3511202943534499
    Molecular point group: c1
  Basis Set: 6-31G*
  Basis Set:
  Basis Set: 6-31G*
  Basis Set:
  @DF-RHF Final Energy:  -251.35117084998240
    Total Energy =                       -251.3511708499822817
  Basis Set: 6-31G*
  Basis Set:
  Basis Set: 6-31G*
  Basis Set:
  @DF-RHF Final Energy:  -251.35121645857316
    Total Energy =                       -251.3512164585732762
  Basis Set: 6-31G*
  Basis Set:
  Basis Set: 6-31G*
  Basis Set:
  @DF-RHF Final Energy:  -251.35121828357205
    Total Energy =                       -251.3512182835720523
  Basis Set: 6-31G*
  Basis Set:
  Charge       = 0
  Multiplicity = 1
  Basis Set: 6-31G*
  Basis Set:

    Orbital Energies (a.u.)
    -----------------------

    Doubly Occupied:

       1A    -15.532412     2A    -11.239607     3A    -11.213942
       4A    -11.212735     5A    -11.209431     6A    -11.207478
       7A     -1.176530     8A     -1.072782     9A     -0.998234
      10A     -0.900083    11A     -0.812764    12A     -0.789140
      13A     -0.664771    14A     -0.642320    15A     -0.615634
      16A     -0.590466    17A     -0.562935    18A     -0.547706
      19A     -0.532767    20A     -0.496023    21A     -0.482587
      22A     -0.464721    23A     -0.461308    24A     -0.448701
      25A     -0.380959

  @DF-RHF Final Energy:  -251.35121861890568

   => Energetics <=

    Nuclear Repulsion Energy =            245.6616144057668691
    One-Electron Energy =                -825.5135944693713554
    Two-Electron Energy =                 328.5007614446988100
    DFT Exchange-Correlation Energy =       0.0000000000000000
    Empirical Dispersion Energy =           0.0000000000000000
    PCM Polarization Energy =               0.0000000000000000
    EFP Energy =                            0.0000000000000000
    Total Energy =                       -251.3512186189057047
    Molecular point group: c1
  Basis Set: 6-31G*
  Basis Set:

  -Total Gradient:
     Atom            X                  Y                   Z
    ------   -----------------  -----------------  -----------------
       1       -0.000000732676     0.000002533609    -0.000005946701
       2       -0.000004102965    -0.000004806397    -0.000019492642
       3        0.000002244513    -0.000003653726     0.000052419328
       4       -0.000010571579     0.000006084146    -0.000000911024
       5       -0.001394406628    -0.002511914151     0.001135196872
       6        0.000006818491    -0.000009848574    -0.000001460419
       7       -0.000002038268     0.000008310989     0.000001615696
       8        0.001522099149     0.002563914156     0.000750515379
       9        0.000940013731     0.001691652356    -0.001059479912
      10        0.000002889633    -0.000004115026    -0.000014738835
      11        0.000004302933     0.000005987504    -0.000015614412
      12       -0.001078559084    -0.001763746050    -0.000800903741
      13        0.000008520711     0.000011830289    -0.000010950835
      14       -0.000001354733     0.000003529932     0.000004439173
      15       -0.000003104394     0.000004470853    -0.000005450157
      16        0.000007951049     0.000000631582    -0.000004591334
      17       -0.000006416404    -0.000003233756    -0.000003772546
      18        0.000002327238     0.000000504139     0.000005691590
      19        0.000004119285     0.000001868124    -0.000006565481

  **** Optimization is complete! (in 5 steps) ****
    Final optimized geometry and variables:
    Molecular point group: c1

    Geometry (in Angstrom), charge = 0, multiplicity = 1:

    H            3.883717768206     0.353899210520    -0.270961634205
    N            3.085088388136    -0.249127066678    -0.225062544777
    C            1.860769090818     0.525582628911    -0.083000143567
    H            3.217674266108    -0.844895976094     0.570190122045
    C            0.639710963641    -0.389337182759    -0.105387056327
    H            1.807651820693     1.214985210397    -0.920386457350
    H            1.840639151542     1.133683955228     0.824722733220
    C           -0.682855527493     0.378902807328    -0.047686883460
    H            0.687128114521    -0.981827457190    -1.014081717300
    H            0.699824925838    -1.083522112741     0.731786573826
    C           -1.891110287793    -0.525676950383     0.206919980614
    H           -0.833907452479     0.900221629773    -0.991176662246
    H           -0.637647002480     1.140747645166     0.728667367054
    C           -3.216451333720     0.235037400148     0.215022668648
    H           -1.925061088200    -1.302291476212    -0.554198350029
    H           -1.762868195721    -1.037174934687     1.158459429714
    H           -3.393500638574     0.724825427657    -0.738397624931
    H           -4.052196692679    -0.431666247632     0.404067297681
    H           -3.224036285404     1.001287184004     0.985301579982

  Mulliken Charges: (a.u.)
   Center  Symbol    Alpha    Beta     Spin     Total
       1     H     0.33249  0.33249  0.00000  0.33502
       2     N     3.92193  3.92193  0.00000 -0.84385
       3     C     3.06059  3.06059  0.00000 -0.12118
       4     H     0.33540  0.33540  0.00000  0.32919
       5     C     3.15211  3.15211  0.00000 -0.30423
       6     H     0.42098  0.42098  0.00000  0.15803
       7     H     0.43477  0.43477  0.00000  0.13045
       8     C     3.15500  3.15500  0.00000 -0.31001
       9     H     0.41229  0.41229  0.00000  0.17542
      10     H     0.42748  0.42748  0.00000  0.14504
      11     C     3.15125  3.15125  0.00000 -0.30251
      12     H     0.42255  0.42255  0.00000  0.15490
      13     H     0.42476  0.42476  0.00000  0.15049
      14     C     3.23936  3.23936  0.00000 -0.47872
      15     H     0.42200  0.42200  0.00000  0.15601
      16     H     0.42354  0.42354  0.00000  0.15292
      17     H     0.42175  0.42175  0.00000  0.15651
      18     H     0.41942  0.41942  0.00000  0.16117
      19     H     0.42232  0.42232  0.00000  0.15536

   Total alpha = 25.00000, Total beta = 25.00000, Total charge = -0.00000
