  ==> Input File <==

--------------------------------------------------------------------------
set {
	reference rhf
	basis cc-pvtz
}

set_num_threads( 4 )
memory 2 gb

molecule MOL {
0 1

H	 2.672000	 0.755000	 0.000000
O	 2.284000	 -0.109000	 -0.000000
C	 0.934000	 -0.024000	 0.000000
C	 0.219000	 -1.215000	 -0.000000
C	 0.265000	 1.189000	 -0.000000
H	 0.757000	 -2.144000	 -0.000000
C	 -1.162000	 -1.180000	 0.000000
H	 0.821000	 2.112000	 -0.000000
C	 -1.122000	 1.209000	 -0.000000
H	 -1.712000	 -2.105000	 0.000000
C	 -1.844000	 0.030000	 -0.000000
H	 -1.634000	 2.155000	 0.000000
H	 -2.919000	 0.049000	 0.000000

	symmetry c1
}
ee = optimize('scf')
oeprop('DIPOLE', 'QUADRUPOLE', 'MULLIKEN_CHARGES')
f=open( 'psi4out.xyz', 'w' )
f.write( "13  " )
f.write( str(ee) + "\n" )
f.write( MOL.save_string_xyz() )
f.close()
--------------------------------------------------------------------------

    Molecular point group: c1
  Charge       = 0
  Multiplicity = 1
  Basis Set: CC-PVTZ
  Basis Set:
  @DF-RHF Final Energy:  -305.67039112974834
    Total Energy =                       -305.6703911297481682
    Molecular point group: c1
  Basis Set: CC-PVTZ
  Basis Set:
  Basis Set: CC-PVTZ
  Basis Set:
  @DF-RHF Final Energy:  -305.67055457662912
    Total Energy =                       -305.6705545766291152
  Basis Set: CC-PVTZ
  Basis Set:
  Charge       = 0
  Multiplicity = 1
  Basis Set: CC-PVTZ
  Basis Set:

    Orbital Energies (a.u.)
    -----------------------

    Doubly Occupied:

       1A    -20.585086     2A    -11.297752     3A    -11.235265
       4A    -11.233462     5A    -11.226151     6A    -11.220558
       7A    -11.219364     8A     -1.415752     9A     -1.152665
      10A     -1.022846    11A     -1.008406    12A     -0.851570
      13A     -0.826710    14A     -0.741620    15A     -0.688379
      16A     -0.654920    17A     -0.612272    18A     -0.595494
      19A     -0.592292    20A     -0.568783    21A     -0.517582
      22A     -0.492816    23A     -0.485765    24A     -0.343278
      25A     -0.314628

  @DF-RHF Final Energy:  -305.67055859331674

   => Energetics <=

    Nuclear Repulsion Energy =            273.8411216690464016
    One-Electron Energy =                -957.2165220039177029
    Two-Electron Energy =                 377.7048417415545600
    DFT Exchange-Correlation Energy =       0.0000000000000000
    Empirical Dispersion Energy =           0.0000000000000000
    PCM Polarization Energy =               0.0000000000000000
    EFP Energy =                            0.0000000000000000
    Total Energy =                       -305.6705585933167413
    Molecular point group: c1
  Basis Set: CC-PVTZ
  Basis Set:

  -Total Gradient:
     Atom            X                  Y                   Z
    ------   -----------------  -----------------  -----------------
       1        0.000007336622    -0.000080087607     0.000000000000
       2        0.000257351578     0.000089939488     0.000000000000
       3       -0.000288287434     0.000147396452    -0.000000000000
       4       -0.000121270405    -0.000103090939     0.000000000000
       5        0.000194265072    -0.000064924196     0.000000000000
       6        0.000019125516     0.000034107917    -0.000000000000
       7        0.000099233211    -0.000103124432     0.000000000000
       8       -0.000016980167    -0.000016495470     0.000000000000
       9       -0.000154622637    -0.000052717033    -0.000000000000
      10       -0.000013021859     0.000022541325     0.000000000000
      11       -0.000000185526     0.000143485897     0.000000000000
      12        0.000000162789    -0.000012358403     0.000000000000
      13        0.000016893242    -0.000004673000    -0.000000000000

  **** Optimization is complete! (in 3 steps) ****
    Final optimized geometry and variables:
    Molecular point group: c1

    Geometry (in Angstrom), charge = 0, multiplicity = 1:

    H            2.646708642137     0.758098743146     0.000000000001
    O            2.258157883809    -0.097743136601     0.000000000000
    C            0.911161942191    -0.015915591492    -0.000000000000
    C            0.197397321021    -1.203072073962    -0.000000000000
    C            0.242941545505     1.194002874501    -0.000000000000
    H            0.732428616656    -2.132180711492    -0.000000000000
    C           -1.180237747815    -1.168487448247     0.000000000000
    H            0.796735051049     2.115394936224     0.000000000000
    C           -1.140561109940     1.213547853059    -0.000000000000
    H           -1.728157786921    -2.091625967422     0.000000000000
    C           -1.861129122027     0.037659358544     0.000000000000
    H           -1.651613491340     2.157555072694     0.000000000000
    H           -2.933293924889     0.056572009699     0.000000000000

  Mulliken Charges: (a.u.)
   Center  Symbol    Alpha    Beta     Spin     Total
       1     H     0.38746  0.38746  0.00000  0.22507
       2     O     4.17477  4.17477  0.00000 -0.34953
       3     C     2.84884  2.84884  0.00000  0.30232
       4     C     3.11110  3.11110  0.00000 -0.22219
       5     C     3.13454  3.13454  0.00000 -0.26909
       6     H     0.41954  0.41954  0.00000  0.16093
       7     C     3.05641  3.05641  0.00000 -0.11282
       8     H     0.43514  0.43514  0.00000  0.12972
       9     C     3.06466  3.06466  0.00000 -0.12933
      10     H     0.42242  0.42242  0.00000  0.15515
      11     C     3.09881  3.09881  0.00000 -0.19763
      12     H     0.42237  0.42237  0.00000  0.15525
      13     H     0.42394  0.42394  0.00000  0.15213

   Total alpha = 25.00000, Total beta = 25.00000, Total charge = -0.00000
