                              Psi4 1.0.54 Driver

  ==> Input File <==

--------------------------------------------------------------------------
set {
	reference rhf
	basis cc-pvtz
}

set_num_threads( 4 )
memory 2 gb

molecule MOL {
0 1

H	 -2.750716	 1.567060	 1.565472
O	 -1.927510	 1.488719	 2.013408
C	 -0.880839	 1.654997	 1.107616
C	 -0.793473	 0.591216	 0.050087
H	 0.032515	 1.653934	 1.690786
H	 -0.937968	 2.628091	 0.623339
C	 -1.534243	 -0.493009	 -0.013340
H	 -0.044194	 0.768238	 -0.703896
H	 -1.101195	 -1.466332	 -0.144046
H	 -2.604242	 -0.437780	 0.050785

	symmetry c1
}
set optking {
	frozen_dihedral = ("
		3 4 7 9
	")
}

ee,wfn = optimize('scf', return_wfn=True)
oeprop( wfn, 'DIPOLE', 'QUADRUPOLE', 'MULLIKEN_CHARGES')
f=open( 'psi4out.xyz', 'w' )
f.write( "10  " )
f.write( str(ee) + "\n" )
f.write( MOL.save_string_xyz() )
f.close()
--------------------------------------------------------------------------

    Molecular point group: c1
  Charge       = 0
  Multiplicity = 1
  Basis Set: CC-PVTZ
  Basis Set:
  @DF-RHF Final Energy:  -191.94037241171384
    Total Energy =                       -191.9403724117138950
    Molecular point group: c1
  Basis Set: CC-PVTZ
  Basis Set:
  Basis Set: CC-PVTZ
  Basis Set:
  @DF-RHF Final Energy:  -191.96074832190828
    Total Energy =                       -191.9607483219083690
  Basis Set: CC-PVTZ
  Basis Set:
  Basis Set: CC-PVTZ
  Basis Set:
  @DF-RHF Final Energy:  -191.97266824696587
    Total Energy =                       -191.9726682469658385
  Basis Set: CC-PVTZ
  Basis Set:
  Basis Set: CC-PVTZ
  Basis Set:
  @DF-RHF Final Energy:  -191.97500791122422
    Total Energy =                       -191.9750079112241963
  Basis Set: CC-PVTZ
  Basis Set:
  Basis Set: CC-PVTZ
  Basis Set:
  @DF-RHF Final Energy:  -191.97508052623741
    Total Energy =                       -191.9750805262374058
  Basis Set: CC-PVTZ
  Basis Set:
  Basis Set: CC-PVTZ
  Basis Set:
  @DF-RHF Final Energy:  -191.97508362611168
    Total Energy =                       -191.9750836261115694
  Basis Set: CC-PVTZ
  Basis Set:
  Charge       = 0
  Multiplicity = 1
  Basis Set: CC-PVTZ
  Basis Set:

    Orbital Energies (a.u.)
    -----------------------

    Doubly Occupied:

       1A    -20.556133     2A    -11.283581     3A    -11.232991
       4A    -11.215912     5A     -1.376269     6A     -1.062916
       7A     -0.932929     8A     -0.771946     9A     -0.693355
      10A     -0.658453    11A     -0.622954    12A     -0.578124
      13A     -0.540116    14A     -0.490713    15A     -0.455714
      16A     -0.357554

  @DF-RHF Final Energy:  -191.97508449295796

   => Energetics <=

    Nuclear Repulsion Energy =            119.0519281677972288
    One-Electron Energy =                -496.3947071994463727
    Two-Electron Energy =                 185.3676945386912394
    DFT Exchange-Correlation Energy =       0.0000000000000000
    Empirical Dispersion Energy =           0.0000000000000000
    PCM Polarization Energy =               0.0000000000000000
    EFP Energy =                            0.0000000000000000
    Total Energy =                       -191.9750844929578761
    Molecular point group: c1
  Basis Set: CC-PVTZ
  Basis Set:

  -Total Gradient:
     Atom            X                  Y                   Z
    ------   -----------------  -----------------  -----------------
       1       -0.000017884602    -0.000001171655     0.000000220229
       2        0.000023917319     0.000006745320     0.000000635244
       3        0.018085936348    -0.010445577998     0.009995064011
       4       -0.027813417647     0.015308643562    -0.003479230246
       5        0.000000556196    -0.000003666172     0.000003518519
       6        0.000006161868    -0.000016671353     0.000003596677
       7        0.003733103477     0.000219534243    -0.036499229502
       8       -0.000089155063     0.000075891198    -0.000082240255
       9        0.006004162831    -0.005106712571     0.030040388458
      10        0.000066619273    -0.000037014574     0.000017276864

  **** Optimization is complete! (in 7 steps) ****
    Final optimized geometry and variables:
    Molecular point group: c1

    Geometry (in Angstrom), charge = 0, multiplicity = 1:

    H           -1.441076590451     0.935584296236     0.694674805555
    O           -0.662476789019     0.665990614507     1.147429620672
    C            0.440405622656     0.772781480823     0.301247641616
    C            0.486981819969    -0.224065412001    -0.826766705768
    H            1.315650850466     0.560392150906     0.901682468222
    H            0.548363584272     1.791703985335    -0.064817552263
    C           -0.142067767052    -1.381070599737    -0.895403368318
    H            1.392727670415    -0.114170113805    -1.407235909782
    H            0.351150814983    -2.300905607461    -1.150571491557
    H           -1.003495779377    -1.531656257226    -0.265593093163

  Mulliken Charges: (a.u.)
   Center  Symbol    Alpha    Beta     Spin     Total
       1     H     0.39114  0.39114  0.00000  0.21773
       2     O     4.19727  4.19727  0.00000 -0.39455
       3     C     2.95338  2.95338  0.00000  0.09325
       4     C     3.08801  3.08801  0.00000 -0.17603
       5     H     0.44983  0.44983  0.00000  0.10035
       6     H     0.46425  0.46425  0.00000  0.07150
       7     C     3.16487  3.16487  0.00000 -0.32975
       8     H     0.43084  0.43084  0.00000  0.13832
       9     H     0.42433  0.42433  0.00000  0.15135
      10     H     0.43608  0.43608  0.00000  0.12783

   Total alpha = 16.00000, Total beta = 16.00000, Total charge =  0.00000

*** Psi4 exiting successfully. Buy a developer a beer!
