  ==> Input File <==

--------------------------------------------------------------------------
set {
	reference rhf
	basis 6-31G*
}

set_num_threads( 4 )
memory 2 gb

molecule MOL {
0 1

O	 3.225979	 0.970355	 -0.599647
C	 2.701189	 0.057885	 -0.047330
C	 1.245376	 -0.013843	 0.345420
O	 3.347903	 -1.046386	 0.304773
C	 0.455112	 1.231400	 -0.050772
H	 0.838542	 -0.913825	 -0.103701
H	 1.208210	 -0.175333	 1.419774
C	 -0.998893	 1.219485	 0.433193
H	 0.482531	 1.345121	 -1.130325
H	 0.957290	 2.103070	 0.354729
C	 -1.883438	 0.145884	 -0.207175
H	 -1.431207	 2.195402	 0.224832
H	 -1.019646	 1.105716	 1.516076
C	 -1.236535	 -1.240640	 -0.198954
H	 -2.833649	 0.102377	 0.322943
H	 -2.118527	 0.417480	 -1.233792
C	 -2.109290	 -2.320502	 -0.841082
H	 -1.010076	 -1.525884	 0.827003
H	 -0.281256	 -1.195396	 -0.719621
C	 -1.457663	 -3.702832	 -0.825380
H	 -3.064670	 -2.366363	 -0.322634
H	 -2.333106	 -2.039278	 -1.868019
H	 -2.100057	 -4.446251	 -1.287186
H	 -1.252854	 -4.028149	 0.190699
H	 -0.515381	 -3.698286	 -1.366082
C	 4.728119	 -1.109107	 -0.004993
H	 4.882018	 -1.033965	 -1.071845
H	 5.068212	 -2.067527	 0.355250
H	 5.265056	 -0.311663	 0.488280

	symmetry c1
}
set optking {
	frozen_dihedral = ("
		15 11 8 5
	")
}

ee = optimize('scf')
oeprop('DIPOLE', 'QUADRUPOLE', 'MULLIKEN_CHARGES')
f=open( 'psi4out.xyz', 'w' )
f.write( "29  " )
f.write( str(ee) + "\n" )
f.write( MOL.save_string_xyz() )
f.close()
--------------------------------------------------------------------------

    Molecular point group: c1
  Charge       = 0
  Multiplicity = 1
  Basis Set: 6-31G*
  Basis Set:
  @DF-RHF Final Energy:  -501.01117456803888
    Total Energy =                       -501.0111745680392232
    Molecular point group: c1
  Basis Set: 6-31G*
  Basis Set:
  Basis Set: 6-31G*
  Basis Set:
  @DF-RHF Final Energy:  -501.03098469664758
    Total Energy =                       -501.0309846966468967
  Basis Set: 6-31G*
  Basis Set:
  Basis Set: 6-31G*
  Basis Set:
  @DF-RHF Final Energy:  -501.03587872141179
    Total Energy =                       -501.0358787214128142
  Basis Set: 6-31G*
  Basis Set:
  Basis Set: 6-31G*
  Basis Set:
  @DF-RHF Final Energy:  -501.03542571728940
    Total Energy =                       -501.0354257172891721
  Basis Set: 6-31G*
  Basis Set:
  @DF-RHF Final Energy:  -501.03773905312778
    Total Energy =                       -501.0377390531282344
  @DF-RHF Final Energy:  -501.03830904561096
    Total Energy =                       -501.0383090456111859
  @DF-RHF Final Energy:  -501.03832849178627
    Total Energy =                       -501.0383284917868423
  @DF-RHF Final Energy:  -501.03848991227892
    Total Energy =                       -501.0384899122780098
  Basis Set: 6-31G*
  Basis Set:
  @DF-RHF Final Energy:  -501.03850857083773
    Total Energy =                       -501.0385085708376209
  Basis Set: 6-31G*
  Basis Set:
  Basis Set: 6-31G*
  Basis Set:
  @DF-RHF Final Energy:  -501.03851336241451
    Total Energy =                       -501.0385133624154150
  Basis Set: 6-31G*
  Basis Set:
  Basis Set: 6-31G*
  Basis Set:
  @DF-RHF Final Energy:  -501.03851493607601
    Total Energy =                       -501.0385149360761261
  Basis Set: 6-31G*
  Basis Set:
  Charge       = 0
  Multiplicity = 1
  Basis Set: 6-31G*
  Basis Set:

    Orbital Energies (a.u.)
    -----------------------

    Doubly Occupied:

       1A    -20.603088     2A    -20.544911     3A    -11.371509
       4A    -11.280475     5A    -11.233840     6A    -11.218938
       7A    -11.218070     8A    -11.216433     9A    -11.216134
      10A    -11.215347    11A    -11.209603    12A     -1.468731
      13A     -1.362177    14A     -1.096983    15A     -1.064993
      16A     -1.019064    17A     -0.975946    18A     -0.930776
      19A     -0.863619    20A     -0.807675    21A     -0.778937
      22A     -0.765066    23A     -0.697651    24A     -0.682434
      25A     -0.671919    26A     -0.650208    27A     -0.629443
      28A     -0.605286    29A     -0.593864    30A     -0.580506
      31A     -0.564305    32A     -0.556494    33A     -0.535687
      34A     -0.527018    35A     -0.520749    36A     -0.504863
      37A     -0.491748    38A     -0.483993    39A     -0.473321
      40A     -0.459178    41A     -0.456017    42A     -0.455902
      43A     -0.438666    44A     -0.434282

  @DF-RHF Final Energy:  -501.03851558448537

   => Energetics <=

    Nuclear Repulsion Energy =            628.5783190170398029
    One-Electron Energy =               -1928.2819617633749658
    Two-Electron Energy =                 798.6651271618494548
    DFT Exchange-Correlation Energy =       0.0000000000000000
    Empirical Dispersion Energy =           0.0000000000000000
    PCM Polarization Energy =               0.0000000000000000
    EFP Energy =                            0.0000000000000000
    Total Energy =                       -501.0385155844857081
    Molecular point group: c1
  Basis Set: 6-31G*
  Basis Set:

  -Total Gradient:
     Atom            X                  Y                   Z
    ------   -----------------  -----------------  -----------------
       1       -0.000026151944     0.000024996045    -0.000038315806
       2        0.000021542920     0.000011831535     0.000057048103
       3       -0.000023003458    -0.000008879958     0.000002412388
       4       -0.000007559526    -0.000034516733    -0.000003323837
       5        0.000877230264    -0.002116225415     0.002059062659
       6        0.000007096917    -0.000024350011     0.000003707017
       7        0.000021828620     0.000018528109    -0.000013595277
       8       -0.000882787667     0.002488653542    -0.002449781862
       9       -0.000002100716    -0.000021911095    -0.000044241032
      10       -0.000020041493    -0.000023851459     0.000009076400
      11       -0.001598103342     0.002725380719    -0.001757786765
      12        0.000020320087     0.000012772628    -0.000004020572
      13        0.000005181827     0.000003081380    -0.000002917254
      14        0.000003312032     0.000020585588     0.000001294693
      15        0.001637114680    -0.003059692606     0.002149825341
      16       -0.000012302872    -0.000006594414     0.000026626544
      17        0.000000676581     0.000005724290    -0.000006659277
      18        0.000019014084    -0.000017065422     0.000029959031
      19       -0.000013389647     0.000015718575    -0.000017621354
      20       -0.000016335662    -0.000010515972     0.000001414733
      21       -0.000008484489    -0.000004096579    -0.000010294652
      22        0.000003909990    -0.000004210125     0.000005546296
      23        0.000004555874    -0.000011555948    -0.000000534638
      24        0.000000877108     0.000000680594    -0.000000800396
      25       -0.000005292304     0.000004692482    -0.000000314032
      26        0.000012852476     0.000018746398    -0.000002642862
      27       -0.000004924092    -0.000001526332     0.000001286745
      28       -0.000016208199    -0.000002719487     0.000005755681
      29        0.000001171934    -0.000003680327    -0.000000166015

  **** Optimization is complete! (in 12 steps) ****
    Final optimized geometry and variables:
    Molecular point group: c1

    Geometry (in Angstrom), charge = 0, multiplicity = 1:

    O            2.447317314933     1.367276685851    -0.769423687914
    C            2.104382884653     0.686959347589     0.143225319819
    C            0.713424312044     0.632732422502     0.727393297477
    O            2.925645540153    -0.136066553692     0.783537500883
    C           -0.266929370301     1.572427033357     0.026949645761
    H            0.391450564011    -0.401463832591     0.694609186545
    H            0.797986858145     0.881682263999     1.781800623247
    C           -1.687993935371     1.555746091288     0.621069401159
    H           -0.297049074263     1.343404595986    -1.033642856266
    H            0.134466706788     2.577551404657     0.095278877108
    C           -2.689617924069     0.573496087036    -0.009381671176
    H           -2.112929941720     2.551436372500     0.534186263728
    H           -1.622206187468     1.357323958542     1.689675551068
    C           -2.215383005732    -0.873747708842    -0.174099644668
    H           -3.573750330692     0.551756765340     0.624191890964
    H           -3.001544842803     0.953592174658    -0.979698550737
    C           -3.307370667881    -1.788227559298    -0.734449716379
    H           -1.887580575134    -1.262774731549     0.788811160487
    H           -1.353552692536    -0.914403112066    -0.835649462207
    C           -2.845147556419    -3.234636209745    -0.907537212085
    H           -4.172308472220    -1.762546381072    -0.075158882147
    H           -3.643594440670    -1.399936196294    -1.693457059637
    H           -3.640862569049    -3.857160128653    -1.304841269317
    H           -2.532859844008    -3.662918168577     0.040847509512
    H           -2.003299085990    -3.298379626132    -1.591260470428
    C            4.267907766711    -0.181959585458     0.335258251901
    H            4.313626145002    -0.501747749250    -0.695846253397
    H            4.766965367897    -0.896761022338     0.970867056283
    H            4.732751795594     0.789164472239     0.426806813116

  Mulliken Charges: (a.u.)
   Center  Symbol    Alpha    Beta     Spin     Total
       1     O     4.28620  4.28620  0.00000 -0.57239
       2     C     2.60602  2.60602  0.00000  0.78796
       3     C     3.20987  3.20987  0.00000 -0.41974
       4     O     4.30740  4.30740  0.00000 -0.61480
       5     C     3.15822  3.15822  0.00000 -0.31643
       6     H     0.39660  0.39660  0.00000  0.20679
       7     H     0.40102  0.40102  0.00000  0.19797
       8     C     3.15836  3.15836  0.00000 -0.31671
       9     H     0.41014  0.41014  0.00000  0.17971
      10     H     0.40968  0.40968  0.00000  0.18064
      11     C     3.15127  3.15127  0.00000 -0.30255
      12     H     0.41636  0.41636  0.00000  0.16729
      13     H     0.42405  0.42405  0.00000  0.15189
      14     C     3.15616  3.15616  0.00000 -0.31233
      15     H     0.42212  0.42212  0.00000  0.15577
      16     H     0.42176  0.42176  0.00000  0.15648
      17     C     3.15073  3.15073  0.00000 -0.30146
      18     H     0.42527  0.42527  0.00000  0.14946
      19     H     0.42246  0.42246  0.00000  0.15508
      20     C     3.23943  3.23943  0.00000 -0.47886
      21     H     0.42288  0.42288  0.00000  0.15424
      22     H     0.42221  0.42221  0.00000  0.15558
      23     H     0.41888  0.41888  0.00000  0.16224
      24     H     0.42208  0.42208  0.00000  0.15584
      25     H     0.42160  0.42160  0.00000  0.15679
      26     C     3.09233  3.09233  0.00000 -0.18466
      27     H     0.40918  0.40918  0.00000  0.18163
      28     H     0.40855  0.40855  0.00000  0.18291
      29     H     0.40917  0.40917  0.00000  0.18165

   Total alpha = 44.00000, Total beta = 44.00000, Total charge = -0.00000
