  ==> Input File <==

--------------------------------------------------------------------------
set {
	reference rhf
	basis 6-31G*
}

set_num_threads( 1 )
memory 2 gb

molecule MOL {
0 1

H	 3.780450	 -0.573468	 0.526315
O	 2.879711	 -0.787032	 0.749509
C	 2.077727	 -0.067559	 -0.035091
C	 0.624473	 -0.343591	 0.253101
O	 2.501441	 0.687056	 -0.848749
C	 -0.265902	 0.883932	 0.072916
H	 0.324016	 -1.163849	 -0.390541
H	 0.565024	 -0.726111	 1.268924
C	 -1.728698	 0.646073	 0.462102
H	 -0.209144	 1.219470	 -0.958188
H	 0.135059	 1.692851	 0.673903
C	 -2.482460	 -0.343073	 -0.431425
H	 -2.245265	 1.602650	 0.432430
H	 -1.779332	 0.308348	 1.496285
C	 -3.960546	 -0.461025	 -0.060175
H	 -2.395034	 -0.026811	 -1.468912
H	 -2.024850	 -1.327147	 -0.371646
H	 -4.472726	 -1.168004	 -0.705284
H	 -4.465146	 0.496508	 -0.151489
H	 -4.081218	 -0.800940	 0.964585

	symmetry c1
}
set optking {
	frozen_dihedral = ("
		16 12 9 6,
		7 4 6 10,
		12 9 6 10,
		1 2 3 5
	")
}

ee = energy('scf')
oeprop('DIPOLE', 'QUADRUPOLE', 'MULLIKEN_CHARGES')
f=open( 'psi4out.xyz', 'w' )
f.write( "20  " )
f.write( str(ee) + "\n" )
f.write( MOL.save_string_xyz() )
f.close()
--------------------------------------------------------------------------

    Molecular point group: c1

    Geometry (in Angstrom), charge = 0, multiplicity = 1:

       Center              X                  Y                   Z               Mass
    ------------   -----------------  -----------------  -----------------  -----------------
           H          3.778330539713    -0.588179992978     0.501535615207     1.007825032070
           O          2.877591539713    -0.801743992978     0.724729615207    15.994914619560
           C          2.075607539713    -0.082270992978    -0.059870384793    12.000000000000
           C          0.622353539713    -0.358302992978     0.228321615207    12.000000000000
           O          2.499321539713     0.672344007022    -0.873528384793    15.994914619560
           C         -0.268021460287     0.869220007022     0.048136615207    12.000000000000
           H          0.321896539713    -1.178560992978    -0.415320384793     1.007825032070
           H          0.562904539713    -0.740822992978     1.244144615207     1.007825032070
           C         -1.730817460287     0.631361007022     0.437322615207    12.000000000000
           H         -0.211263460287     1.204758007022    -0.982967384793     1.007825032070
           H          0.132939539713     1.678139007022     0.649123615207     1.007825032070
           C         -2.484579460287    -0.357784992978    -0.456204384793    12.000000000000
           H         -2.247384460287     1.587938007022     0.407650615207     1.007825032070
           H         -1.781451460287     0.293636007022     1.471505615207     1.007825032070
           C         -3.962665460287    -0.475736992978    -0.084954384793    12.000000000000
           H         -2.397153460287    -0.041522992978    -1.493691384793     1.007825032070
           H         -2.026969460287    -1.341858992978    -0.396425384793     1.007825032070
           H         -4.474845460287    -1.182715992978    -0.730063384793     1.007825032070
           H         -4.467265460287     0.481796007022    -0.176268384793     1.007825032070
           H         -4.083337460287    -0.815651992978     0.939805615207     1.007825032070

  Charge       = 0
  Multiplicity = 1
  Basis Set: 6-31G*
  Basis Set:

    Orbital Energies (a.u.)
    -----------------------

    Doubly Occupied:

       1A    -20.613250     2A    -20.550353     3A    -11.380916
       4A    -11.239316     5A    -11.226020     6A    -11.221778
       7A    -11.220872     8A    -11.212843     9A     -1.474460
      10A     -1.365136    11A     -1.097243    12A     -1.041352
      13A     -0.961556    14A     -0.868925    15A     -0.817817
      16A     -0.779060    17A     -0.700502    18A     -0.688792
      19A     -0.660511    20A     -0.633246    21A     -0.607163
      22A     -0.594433    23A     -0.576454    24A     -0.557072
      25A     -0.538883    26A     -0.515268    27A     -0.495108
      28A     -0.481722    29A     -0.469923    30A     -0.467457
      31A     -0.460191    32A     -0.440427

  @DF-RHF Final Energy:  -383.94758437298117

   => Energetics <=

    Nuclear Repulsion Energy =            375.7793825415632227
    One-Electron Energy =               -1267.5379601057488799
    Two-Electron Energy =                 507.8109931912042612
    DFT Exchange-Correlation Energy =       0.0000000000000000
    Empirical Dispersion Energy =           0.0000000000000000
    PCM Polarization Energy =               0.0000000000000000
    EFP Energy =                            0.0000000000000000
    Total Energy =                       -383.9475843729813960

  Mulliken Charges: (a.u.)
   Center  Symbol    Alpha    Beta     Spin     Total
       1     H     0.26840  0.26840  0.00000  0.46319
       2     O     4.35041  4.35041  0.00000 -0.70081
       3     C     2.62196  2.62196  0.00000  0.75608
       4     C     3.21345  3.21345  0.00000 -0.42690
       5     O     4.27942  4.27942  0.00000 -0.55884
       6     C     3.15781  3.15781  0.00000 -0.31561
       7     H     0.39595  0.39595  0.00000  0.20810
       8     H     0.39964  0.39964  0.00000  0.20072
       9     C     3.15487  3.15487  0.00000 -0.30975
      10     H     0.40645  0.40645  0.00000  0.18709
      11     H     0.41327  0.41327  0.00000  0.17345
      12     C     3.15494  3.15494  0.00000 -0.30989
      13     H     0.41782  0.41782  0.00000  0.16435
      14     H     0.42300  0.42300  0.00000  0.15400
      15     C     3.23936  3.23936  0.00000 -0.47871
      16     H     0.42053  0.42053  0.00000  0.15893
      17     H     0.42279  0.42279  0.00000  0.15442
      18     H     0.41808  0.41808  0.00000  0.16384
      19     H     0.42060  0.42060  0.00000  0.15881
      20     H     0.42124  0.42124  0.00000  0.15753

   Total alpha = 32.00000, Total beta = 32.00000, Total charge =  0.00000
