  ==> Input File <==

--------------------------------------------------------------------------
set {
	reference rhf
	basis cc-pvtz
}

set_num_threads( 4 )
memory 2 gb

molecule MOL {
0 1

H	 3.297027	 -0.410652	 -0.013670
C	 2.238345	 -0.234170	 -0.010427
C	 1.374029	 -1.236727	 0.403299
C	 1.745157	 0.989021	 -0.417963
H	 1.764897	 -2.184676	 0.718588
C	 0.015220	 -1.014443	 0.408979
H	 2.416064	 1.762524	 -0.737420
C	 0.380253	 1.210764	 -0.411707
H	 -0.668682	 -1.776637	 0.725198
C	 -0.486398	 0.214248	 0.000000
H	 -0.010429	 2.160370	 -0.727602
C	 -1.946525	 0.470130	 0.000000
O	 -2.779618	 -0.371226	 0.000000
H	 -2.227127	 1.528393	 0.000000

	symmetry c1
}
set optking {
	frozen_dihedral = ("
		8 10 12 14
	")
}

ee = optimize('scf')
oeprop('DIPOLE', 'QUADRUPOLE', 'MULLIKEN_CHARGES')
f=open( 'psi4out.xyz', 'w' )
f.write( "14  " )
f.write( str(ee) + "\n" )
f.write( MOL.save_string_xyz() )
f.close()
--------------------------------------------------------------------------

    Molecular point group: c1
  Charge       = 0
  Multiplicity = 1
  Basis Set: CC-PVTZ
  Basis Set:
  @DF-RHF Final Energy:  -343.54868567184974
    Total Energy =                       -343.5486856718500803
    Molecular point group: c1
  Basis Set: CC-PVTZ
  Basis Set:
  Basis Set: CC-PVTZ
  Basis Set:
  @DF-RHF Final Energy:  -343.54681104555158
    Total Energy =                       -343.5468110455518058
  Basis Set: CC-PVTZ
  Basis Set:
  Basis Set: CC-PVTZ
  Basis Set:
  @DF-RHF Final Energy:  -343.54887818733965
    Total Energy =                       -343.5488781873397102
  Basis Set: CC-PVTZ
  Basis Set:
  Basis Set: CC-PVTZ
  Basis Set:
  @DF-RHF Final Energy:  -343.54891203179545
    Total Energy =                       -343.5489120317954530
  Basis Set: CC-PVTZ
  Basis Set:
  Charge       = 0
  Multiplicity = 1
  Basis Set: CC-PVTZ
  Basis Set:

    Orbital Energies (a.u.)
    -----------------------

    Doubly Occupied:

       1A    -20.553577     2A    -11.327379     3A    -11.252275
       4A    -11.249538     5A    -11.246711     6A    -11.245480
       7A    -11.243762     8A    -11.242173     9A     -1.409327
      10A     -1.176899    11A     -1.051547    12A     -1.035961
      13A     -0.892528    14A     -0.848145    15A     -0.794812
      16A     -0.725556    17A     -0.682137    18A     -0.656675
      19A     -0.624590    20A     -0.622268    21A     -0.606097
      22A     -0.559697    23A     -0.530244    24A     -0.510206
      25A     -0.508502    26A     -0.425758    27A     -0.355445
      28A     -0.352439

  @DF-RHF Final Energy:  -343.54891244066192

   => Energetics <=

    Nuclear Repulsion Energy =            323.9685986443703882
    One-Electron Energy =               -1107.5755702681969979
    Two-Electron Energy =                 440.0580591831648007
    DFT Exchange-Correlation Energy =       0.0000000000000000
    Empirical Dispersion Energy =           0.0000000000000000
    PCM Polarization Energy =               0.0000000000000000
    EFP Energy =                            0.0000000000000000
    Total Energy =                       -343.5489124406618657
    Molecular point group: c1
  Basis Set: CC-PVTZ
  Basis Set:

  -Total Gradient:
     Atom            X                  Y                   Z
    ------   -----------------  -----------------  -----------------
       1       -0.000000924025    -0.000003597123    -0.000020540116
       2        0.000002137493     0.000006281984     0.000063447121
       3        0.000016361191     0.000021299159     0.000044117065
       4       -0.000017321145    -0.000009138340    -0.000060158055
       5       -0.000002067492    -0.000000372262    -0.000004793538
       6       -0.000015242907    -0.000027228563    -0.000113555276
       7        0.000003960011     0.000002350297     0.000010803301
       8       -0.000089696394    -0.001056837696    -0.002756773988
       9        0.000001459528     0.000017937381     0.000034999100
      10        0.000107869780     0.001561546243     0.005183417304
      11       -0.000000798589    -0.000004068360     0.000000560138
      12        0.000063998958    -0.000566546754    -0.005996137873
      13       -0.000003968430    -0.000021315594    -0.000002047775
      14       -0.000065767981     0.000079689627     0.003616662590

  **** Optimization is complete! (in 5 steps) ****
    Final optimized geometry and variables:
    Molecular point group: c1

    Geometry (in Angstrom), charge = 0, multiplicity = 1:

    H            3.295135377086    -0.415821671950    -0.025394513890
    C            2.237060862558    -0.235785820908    -0.015803475167
    C            1.371844273272    -1.235665176516     0.401926455542
    C            1.744881089742     0.988597164702    -0.421049977093
    H            1.761306483454    -2.185312610746     0.714034177634
    C            0.013064204136    -1.011374698529     0.408659157263
    H            2.415641249209     1.758482809416    -0.749657096819
    C            0.381273649059     1.217922106340    -0.398826419258
    H           -0.671600042674    -1.777531162904     0.713874739693
    C           -0.485770784982     0.224332294174     0.018789932828
    H           -0.007500779817     2.171028868347    -0.706939245980
    C           -1.948777099221     0.468520816537    -0.016336474980
    O           -2.772877848882    -0.380222819405     0.023342616713
    H           -2.239582676678     1.523815806108    -0.046802190046

  Mulliken Charges: (a.u.)
   Center  Symbol    Alpha    Beta     Spin     Total
       1     H     0.41960  0.41960  0.00000  0.16080
       2     C     3.07074  3.07074  0.00000 -0.14148
       3     C     3.07134  3.07134  0.00000 -0.14267
       4     C     3.07371  3.07371  0.00000 -0.14742
       5     H     0.41966  0.41966  0.00000  0.16068
       6     C     3.08161  3.08161  0.00000 -0.16321
       7     H     0.42057  0.42057  0.00000  0.15886
       8     C     3.08789  3.08789  0.00000 -0.17579
       9     H     0.40949  0.40949  0.00000  0.18103
      10     C     2.98034  2.98034  0.00000  0.03931
      11     H     0.42307  0.42307  0.00000  0.15386
      12     C     2.91306  2.91306  0.00000  0.17389
      13     O     4.17095  4.17095  0.00000 -0.34190
      14     H     0.45798  0.45798  0.00000  0.08404

   Total alpha = 28.00000, Total beta = 28.00000, Total charge =  0.00000
