  ==> Input File <==

--------------------------------------------------------------------------
set {
	reference rhf
	basis 6-31G*
}

set_num_threads( 4 )
memory 2 gb

molecule MOL {
0 1

H	 2.591676	 2.013956	 0.335017
O	 3.341076	 1.666752	 -0.126416
C	 3.569581	 0.339145	 0.272707
C	 2.539767	 -0.640285	 -0.279495
H	 4.553106	 0.084646	 -0.100901
H	 3.608576	 0.269204	 1.359154
C	 1.115811	 -0.397273	 0.226630
H	 2.556196	 -0.582511	 -1.364741
H	 2.852081	 -1.648031	 -0.010655
C	 1.076917	 0.464837	 1.491570
H	 0.639097	 -1.353317	 0.424338
H	 0.531746	 0.088834	 -0.554976
C	 -0.330283	 0.810025	 1.992542
H	 1.627915	 -0.037780	 2.284428
H	 1.609374	 1.392900	 1.294366
C	 -1.144978	 -0.383525	 2.498694
H	 -0.237680	 1.533769	 2.799658
H	 -0.881218	 1.312266	 1.198778
C	 -2.498450	 0.024103	 3.084688
H	 -0.571243	 -0.913971	 3.257355
H	 -1.311239	 -1.092586	 1.691296
C	 -3.316421	 -1.166047	 3.584819
H	 -2.340411	 0.722568	 3.903625
H	 -3.069262	 0.562756	 2.331090
H	 -2.785896	 -1.706913	 4.363427
H	 -4.268514	 -0.844637	 3.995732
H	 -3.523310	 -1.866020	 2.780085

	symmetry c1
}
set optking {
	frozen_dihedral = ("
		10 7 4 8
	")
}

ee = optimize('scf')
oeprop('DIPOLE', 'QUADRUPOLE', 'MULLIKEN_CHARGES')
f=open( 'psi4out.xyz', 'w' )
f.write( "27  " )
f.write( str(ee) + "\n" )
f.write( MOL.save_string_xyz() )
f.close()
--------------------------------------------------------------------------

    Molecular point group: c1
  Charge       = 0
  Multiplicity = 1
  Basis Set: 6-31G*
  Basis Set:
  @DF-RHF Final Energy:  -388.26393098309666
    Total Energy =                       -388.2639309830974526
    Molecular point group: c1
  Basis Set: 6-31G*
  Basis Set:
  Basis Set: 6-31G*
  Basis Set:
  @DF-RHF Final Energy:  -388.27111090608582
    Total Energy =                       -388.2711109060857098
  Basis Set: 6-31G*
  Basis Set:
  Basis Set: 6-31G*
  Basis Set:
  @DF-RHF Final Energy:  -388.27267841940693
    Total Energy =                       -388.2726784194067022
  Basis Set: 6-31G*
  Basis Set:
  Basis Set: 6-31G*
  Basis Set:
  @DF-RHF Final Energy:  -388.27284441922802
    Total Energy =                       -388.2728444192277948
  Basis Set: 6-31G*
  Basis Set:
  @DF-RHF Final Energy:  -388.27288965133420
    Total Energy =                       -388.2728896513350492
  @DF-RHF Final Energy:  -388.27288061167553
    Total Energy =                       -388.2728806116745091
  Basis Set: 6-31G*
  Basis Set:
  @DF-RHF Final Energy:  -388.27290295221951
    Total Energy =                       -388.2729029522196242
  Basis Set: 6-31G*
  Basis Set:
  Basis Set: 6-31G*
  Basis Set:
  @DF-RHF Final Energy:  -388.27290577904432
    Total Energy =                       -388.2729057790448906
  Basis Set: 6-31G*
  Basis Set:
  Basis Set: 6-31G*
  Basis Set:
  @DF-RHF Final Energy:  -388.27290778008944
    Total Energy =                       -388.2729077800890991
  Basis Set: 6-31G*
  Basis Set:
  Charge       = 0
  Multiplicity = 1
  Basis Set: 6-31G*
  Basis Set:

    Orbital Energies (a.u.)
    -----------------------

    Doubly Occupied:

       1A    -20.550101     2A    -11.264896     3A    -11.224390
       4A    -11.220571     5A    -11.219602     6A    -11.217786
       7A    -11.216580     8A    -11.215990     9A    -11.210674
      10A     -1.356948    11A     -1.096754    12A     -1.059931
      13A     -1.011814    14A     -0.948334    15A     -0.894031
      16A     -0.829956    17A     -0.800143    18A     -0.774168
      19A     -0.688378    20A     -0.653128    21A     -0.644469
      22A     -0.611323    23A     -0.602001    24A     -0.581434
      25A     -0.571668    26A     -0.566502    27A     -0.543238
      28A     -0.528959    29A     -0.520535    30A     -0.496505
      31A     -0.482349    32A     -0.471981    33A     -0.465308
      34A     -0.461705    35A     -0.455511    36A     -0.441176
      37A     -0.422019

  @DF-RHF Final Energy:  -388.27290798739830

   => Energetics <=

    Nuclear Repulsion Energy =            464.2383748874989351
    One-Electron Energy =               -1446.3808508600604910
    Two-Electron Energy =                 593.8695679851628029
    DFT Exchange-Correlation Energy =       0.0000000000000000
    Empirical Dispersion Energy =           0.0000000000000000
    PCM Polarization Energy =               0.0000000000000000
    EFP Energy =                            0.0000000000000000
    Total Energy =                       -388.2729079873987530
    Molecular point group: c1
  Basis Set: 6-31G*
  Basis Set:

  -Total Gradient:
     Atom            X                  Y                   Z
    ------   -----------------  -----------------  -----------------
       1       -0.000017360334     0.000005025020     0.000025856154
       2        0.000027830095    -0.000014958791    -0.000055232782
       3        0.000001279912     0.000014722123     0.000042610649
       4       -0.002124819316    -0.006045857254    -0.001883892262
       5       -0.000003068531     0.000004103824    -0.000000424601
       6        0.000016093897    -0.000008782915     0.000002308863
       7        0.000515989463    -0.004744114316     0.004092477184
       8        0.001684902853     0.006502711207     0.000510081319
       9        0.000005658846     0.000011907526    -0.000004664663
      10       -0.000116013188     0.004244346725    -0.002716812588
      11        0.000001783817    -0.000005792106    -0.000010680547
      12        0.000003215534    -0.000001633128     0.000002373102
      13       -0.000005539768     0.000007151042     0.000013423051
      14       -0.000007480680     0.000004629231     0.000003577882
      15        0.000006233656     0.000027267543    -0.000008955491
      16        0.000004782757    -0.000008352239    -0.000008508487
      17       -0.000000948002     0.000003695285     0.000007736451
      18        0.000005314619    -0.000000835193    -0.000001320711
      19        0.000004518059     0.000006672004    -0.000013398125
      20       -0.000003470784    -0.000004687396    -0.000001045702
      21        0.000000977792     0.000001003582    -0.000004118865
      22        0.000006178293     0.000000044972     0.000011624115
      23       -0.000003329112     0.000004527373    -0.000004292314
      24       -0.000003029245    -0.000003163171    -0.000001986586
      25       -0.000000241413    -0.000004397734    -0.000000782712
      26        0.000000769625    -0.000000072120     0.000004077350
      27       -0.000000228843     0.000004838899    -0.000000029679

  **** Optimization is complete! (in 10 steps) ****
    Final optimized geometry and variables:
    Molecular point group: c1

    Geometry (in Angstrom), charge = 0, multiplicity = 1:

    H            2.346003983537     1.951832582750    -1.429585038475
    O            3.085490263677     1.474698436719    -1.775961734206
    C            3.143346416137     0.192348349855    -1.202735777499
    C            1.992985326413    -0.712786590495    -1.644009719687
    H            4.073815463480    -0.234546079101    -1.554360543066
    H            3.211970243634     0.257158745254    -0.120089400824
    C            0.579769245797    -0.389668687619    -1.091150357141
    H            1.973360052025    -0.621789384414    -2.725268864896
    H            2.260306177987    -1.736114533987    -1.395814118705
    C            0.504287076246     0.436722386548     0.199743183232
    H            0.048529134019    -1.324611304989    -0.952437112631
    H            0.023600841107     0.150982908745    -1.853964101823
    C           -0.927933316023     0.736334808185     0.661568130415
    H            1.036193296032    -0.070269063110     1.002685305208
    H            1.011604229229     1.387869807154     0.061855512237
    C           -1.718677636088    -0.481669306178     1.147163903797
    H           -0.879725494522     1.461387268333     1.471272927901
    H           -1.472206762404     1.221661748516    -0.146965731946
    C           -3.098409393362    -0.113117881152     1.696923733039
    H           -1.149400656239    -0.992861542190     1.922272652740
    H           -1.843129371104    -1.196275797484     0.337745680322
    C           -3.891616858304    -1.326157215667     2.181610658345
    H           -2.982889815899     0.593030063161     2.516373120858
    H           -3.666087575437     0.404429332405     0.926468177705
    H           -3.364593327276    -1.847452535653     2.975810115168
    H           -4.863089140779    -1.032572984676     2.567056573842
    H           -4.056537605966    -2.034941441568     1.374982792033

  Mulliken Charges: (a.u.)
   Center  Symbol    Alpha    Beta     Spin     Total
       1     H     0.27733  0.27733  0.00000  0.44534
       2     O     4.37530  4.37530  0.00000 -0.75061
       3     C     2.99889  2.99889  0.00000  0.00222
       4     C     3.16888  3.16888  0.00000 -0.33775
       5     H     0.41456  0.41456  0.00000  0.17088
       6     H     0.42856  0.42856  0.00000  0.14288
       7     C     3.16376  3.16376  0.00000 -0.32752
       8     H     0.41113  0.41113  0.00000  0.17775
       9     H     0.42168  0.42168  0.00000  0.15663
      10     C     3.15771  3.15771  0.00000 -0.31541
      11     H     0.41475  0.41475  0.00000  0.17051
      12     H     0.42015  0.42015  0.00000  0.15969
      13     C     3.15295  3.15295  0.00000 -0.30590
      14     H     0.42038  0.42038  0.00000  0.15925
      15     H     0.43314  0.43314  0.00000  0.13371
      16     C     3.15314  3.15314  0.00000 -0.30629
      17     H     0.42064  0.42064  0.00000  0.15873
      18     H     0.42296  0.42296  0.00000  0.15408
      19     C     3.15146  3.15146  0.00000 -0.30292
      20     H     0.42406  0.42406  0.00000  0.15188
      21     H     0.42152  0.42152  0.00000  0.15697
      22     C     3.23934  3.23934  0.00000 -0.47869
      23     H     0.42284  0.42284  0.00000  0.15432
      24     H     0.42263  0.42263  0.00000  0.15474
      25     H     0.42167  0.42167  0.00000  0.15666
      26     H     0.41887  0.41887  0.00000  0.16226
      27     H     0.42170  0.42170  0.00000  0.15659

   Total alpha = 37.00000, Total beta = 37.00000, Total charge = -0.00000
