                              Psi4 1.0.54 Driver

  ==> Input File <==

--------------------------------------------------------------------------
set {
	reference rhf
	basis cc-pvtz
}

set_num_threads( 4 )
memory 2 gb

molecule MOL {
0 1

H	 -1.925349	 -0.408060	 -2.128521
C	 -1.370784	 -0.263705	 -1.225441
C	 -1.942595	 0.386184	 -0.085340
C	 -0.109010	 -0.689272	 -1.126183
H	 -2.955300	 0.740200	 -0.132860
C	 -1.227305	 0.553802	 1.031281
H	 0.387832	 -1.184478	 -1.936775
N	 0.640204	 -0.530428	 -0.000115
H	 -1.622025	 1.034828	 1.902356
C	 0.148076	 0.088400	 1.135971
C	 2.006991	 -1.033007	 -0.000020
O	 0.822348	 0.220252	 2.120966
H	 2.182444	 -1.636914	 -0.880881
H	 2.678769	 -0.195442	 -0.002236
H	 2.183828	 -1.633244	 0.883082

	symmetry c1
}
set optking {
	frozen_dihedral = ("
		10 8 11 13
	")
}

ee,wfn = optimize('scf', return_wfn=True)
oeprop( wfn, 'DIPOLE', 'QUADRUPOLE', 'MULLIKEN_CHARGES')
f=open( 'psi4out.xyz', 'w' )
f.write( "15  " )
f.write( str(ee) + "\n" )
f.write( MOL.save_string_xyz() )
f.close()
--------------------------------------------------------------------------

    Molecular point group: c1
  Charge       = 0
  Multiplicity = 1
  Basis Set: CC-PVTZ
  Basis Set:
  @DF-RHF Final Energy:  -360.72268678981834
    Total Energy =                       -360.7226867898179989
    Molecular point group: c1
  Basis Set: CC-PVTZ
  Basis Set:
  Basis Set: CC-PVTZ
  Basis Set:
  @DF-RHF Final Energy:  -360.72346181956755
    Total Energy =                       -360.7234618195672056
  Basis Set: CC-PVTZ
  Basis Set:
  Basis Set: CC-PVTZ
  Basis Set:
  @DF-RHF Final Energy:  -360.72354824336855
    Total Energy =                       -360.7235482433685547
  Basis Set: CC-PVTZ
  Basis Set:
  Basis Set: CC-PVTZ
  Basis Set:
  @DF-RHF Final Energy:  -360.72351065281345
    Total Energy =                       -360.7235106528131610
  Basis Set: CC-PVTZ
  Basis Set:
  Charge       = 0
  Multiplicity = 1
  Basis Set: CC-PVTZ
  Basis Set:

    Orbital Energies (a.u.)
    -----------------------

    Doubly Occupied:

       1A    -20.501977     2A    -15.617830     3A    -11.337590
       4A    -11.294628     5A    -11.266007     6A    -11.258155
       7A    -11.229497     8A    -11.227788     9A     -1.391280
      10A     -1.285873    11A     -1.118832    12A     -1.029374
      13A     -0.972640    14A     -0.876607    15A     -0.838977
      16A     -0.719677    17A     -0.701971    18A     -0.664042
      19A     -0.653460    20A     -0.626318    21A     -0.611919
      22A     -0.575148    23A     -0.552325    24A     -0.550949
      25A     -0.531394    26A     -0.484829    27A     -0.420446
      28A     -0.410742    29A     -0.310071

  @DF-RHF Final Energy:  -360.72355885441925

   => Energetics <=

    Nuclear Repulsion Energy =            358.8830548232344881
    One-Electron Energy =               -1201.0925379336540573
    Two-Electron Energy =                 481.4859242560002031
    DFT Exchange-Correlation Energy =       0.0000000000000000
    Empirical Dispersion Energy =           0.0000000000000000
    PCM Polarization Energy =               0.0000000000000000
    EFP Energy =                            0.0000000000000000
    Total Energy =                       -360.7235588544193661
    Molecular point group: c1
  Basis Set: CC-PVTZ
  Basis Set:

  -Total Gradient:
     Atom            X                  Y                   Z
    ------   -----------------  -----------------  -----------------
       1       -0.000003871898     0.000000256441    -0.000002994882
       2        0.000259579777    -0.000077172039    -0.000035742343
       3       -0.000045571702     0.000091022395     0.000233728703
       4       -0.000295369906    -0.000040043239    -0.000257707993
       5        0.000008906043    -0.000002599709    -0.000009705883
       6       -0.000217675473     0.000065323116    -0.000089962822
       7        0.000021526551     0.000014561813     0.000025192558
       8        0.000241968869     0.000663184157     0.000167771157
       9        0.000017468542     0.000007084877     0.000021846825
      10       -0.000046963482    -0.000747535696    -0.000300655051
      11        0.000148805020     0.000309089378    -0.000255589331
      12        0.000088842805     0.000115446832     0.000257713702
      13       -0.000166985103    -0.000475921686     0.000270482819
      14       -0.000001561668     0.000030733205     0.000013216706
      15       -0.000009098373     0.000046570156    -0.000037594166

  **** Optimization is complete! (in 5 steps) ****
    Final optimized geometry and variables:
    Molecular point group: c1

    Geometry (in Angstrom), charge = 0, multiplicity = 1:

    H           -1.883426476187    -0.224732938551    -2.378825258834
    C           -1.321275295665    -0.085682415396    -1.479632517724
    C           -1.883659882875     0.557828960477    -0.332396095279
    C           -0.058875178059    -0.517219497632    -1.394631051269
    H           -2.896691830781     0.912001634067    -0.371496799692
    C           -1.161040208639     0.720060903122     0.781492031129
    H            0.427084491580    -1.009497859159    -2.212355403307
    N            0.694323604407    -0.365211752012    -0.272510312557
    H           -1.548745338932     1.197466027601     1.657827469786
    C            0.214096751420     0.256440941085     0.865012849465
    C            2.065984329567    -0.847748922558    -0.229455514230
    O            0.917533215762     0.385370586686     1.830284980741
    H            2.251686160497    -1.458203714315    -1.099829182504
    H            2.760621942050    -0.019822876873    -0.209861023465
    H            2.217780535975    -1.435304191759     0.661526310737

  Mulliken Charges: (a.u.)
   Center  Symbol    Alpha    Beta     Spin     Total
       1     H     0.41401  0.41401  0.00000  0.17198
       2     C     3.10682  3.10682  0.00000 -0.21365
       3     C     3.05938  3.05938  0.00000 -0.11875
       4     C     3.03880  3.03880  0.00000 -0.07759
       5     H     0.41843  0.41843  0.00000  0.16315
       6     C     3.11834  3.11834  0.00000 -0.23668
       7     H     0.41901  0.41901  0.00000  0.16199
       8     N     3.50855  3.50855  0.00000 -0.01710
       9     H     0.40934  0.40934  0.00000  0.18132
      10     C     2.84568  2.84568  0.00000  0.30865
      11     C     3.09210  3.09210  0.00000 -0.18420
      12     O     4.23569  4.23569  0.00000 -0.47138
      13     H     0.45541  0.45541  0.00000  0.08919
      14     H     0.44267  0.44267  0.00000  0.11466
      15     H     0.43580  0.43580  0.00000  0.12841

   Total alpha = 29.00000, Total beta = 29.00000, Total charge = -0.00000

*** Psi4 exiting successfully. Buy a developer a beer!
