  ==> Input File <==

--------------------------------------------------------------------------
set {
	reference rhf
	basis 6-31G*
}

set_num_threads( 4 )
memory 2 gb

molecule MOL {
0 1

O	 -2.042549	 -1.228399	 -0.269030
C	 -1.653912	 -0.146171	 0.050137
C	 -0.332303	 0.024011	 0.778412
C	 -2.438579	 1.106236	 -0.272369
C	 -0.557903	 0.231896	 2.284321
H	 0.306351	 -0.839763	 0.615939
H	 0.162908	 0.894377	 0.362296
C	 0.748367	 0.438394	 3.052467
H	 -1.085934	 -0.624997	 2.699052
H	 -1.205435	 1.092687	 2.421734
C	 0.526388	 0.654298	 4.548902
H	 1.395778	 -0.422981	 2.903070
H	 1.275834	 1.294107	 2.637617
H	 0.030361	 -0.200530	 4.999767
H	 -0.091387	 1.528747	 4.730938
H	 1.468712	 0.800854	 5.067142
H	 -3.277823	 0.863061	 -0.908988
H	 -1.806773	 1.843019	 -0.759671
H	 -2.802853	 1.554979	 0.648059

	symmetry c1
}
set optking {
	frozen_dihedral = ("
		5 3 2 4
	")
}

ee = optimize('scf')
oeprop('DIPOLE', 'QUADRUPOLE', 'MULLIKEN_CHARGES')
f=open( 'psi4out.xyz', 'w' )
f.write( "19  " )
f.write( str(ee) + "\n" )
f.write( MOL.save_string_xyz() )
f.close()
--------------------------------------------------------------------------

    Molecular point group: c1
  Charge       = 0
  Multiplicity = 1
  Basis Set: 6-31G*
  Basis Set:
  @DF-RHF Final Energy:  -309.06395080322028
    Total Energy =                       -309.0639508032201093
    Molecular point group: c1
  Basis Set: 6-31G*
  Basis Set:
  Basis Set: 6-31G*
  Basis Set:
  @DF-RHF Final Energy:  -309.06326859268557
    Total Energy =                       -309.0632685926855174
  Basis Set: 6-31G*
  Basis Set:
  Basis Set: 6-31G*
  Basis Set:
  @DF-RHF Final Energy:  -309.06433558042977
    Total Energy =                       -309.0643355804299404
  Basis Set: 6-31G*
  Basis Set:
  Basis Set: 6-31G*
  Basis Set:
  @DF-RHF Final Energy:  -309.06480740667160
    Total Energy =                       -309.0648074066715481
  Basis Set: 6-31G*
  Basis Set:
  @DF-RHF Final Energy:  -309.06459157810508
    Total Energy =                       -309.0645915781051372
  @DF-RHF Final Energy:  -309.06486107636005
    Total Energy =                       -309.0648610763602733
  Basis Set: 6-31G*
  Basis Set:
  @DF-RHF Final Energy:  -309.06489783508073
    Total Energy =                       -309.0648978350807283
  Basis Set: 6-31G*
  Basis Set:
  Basis Set: 6-31G*
  Basis Set:
  @DF-RHF Final Energy:  -309.06490758120947
    Total Energy =                       -309.0649075812096953
  Basis Set: 6-31G*
  Basis Set:
  Basis Set: 6-31G*
  Basis Set:
  @DF-RHF Final Energy:  -309.06491129631399
    Total Energy =                       -309.0649112963139942
  Basis Set: 6-31G*
  Basis Set:
  Charge       = 0
  Multiplicity = 1
  Basis Set: 6-31G*
  Basis Set:

    Orbital Energies (a.u.)
    -----------------------

    Doubly Occupied:

       1A    -20.547961     2A    -11.324390     3A    -11.232662
       4A    -11.229669     5A    -11.227672     6A    -11.226177
       7A    -11.216156     8A     -1.393232     9A     -1.093084
      10A     -1.029289    11A     -0.982983    12A     -0.891935
      13A     -0.808573    14A     -0.733346    15A     -0.664225
      16A     -0.645633    17A     -0.623865    18A     -0.613635
      19A     -0.581811    20A     -0.574577    21A     -0.553299
      22A     -0.536248    23A     -0.509325    24A     -0.503602
      25A     -0.484306    26A     -0.476978    27A     -0.469408
      28A     -0.397041

  @DF-RHF Final Energy:  -309.06491136768028

   => Energetics <=

    Nuclear Repulsion Energy =            301.1104653470940207
    One-Electron Energy =               -1015.2085917463890610
    Two-Electron Energy =                 405.0332150316144180
    DFT Exchange-Correlation Energy =       0.0000000000000000
    Empirical Dispersion Energy =           0.0000000000000000
    PCM Polarization Energy =               0.0000000000000000
    EFP Energy =                            0.0000000000000000
    Total Energy =                       -309.0649113676806792
    Molecular point group: c1
  Basis Set: 6-31G*
  Basis Set:

  -Total Gradient:
     Atom            X                  Y                   Z
    ------   -----------------  -----------------  -----------------
       1        0.000004266308     0.000009631184     0.000000788054
       2        0.000448353790     0.000332457478    -0.000897362854
       3       -0.000077772833    -0.000891602258     0.000408480681
       4       -0.000321160992    -0.000081732257     0.000595162116
       5       -0.000055320063     0.000610915284    -0.000094434171
       6       -0.000000976643    -0.000002533926    -0.000004307679
       7       -0.000002806423    -0.000002519073    -0.000000123890
       8        0.000002737848     0.000028379183    -0.000002879977
       9       -0.000009056992    -0.000003905039    -0.000009611431
      10        0.000006614767    -0.000000906683     0.000007181566
      11        0.000000646022    -0.000008336895    -0.000000625263
      12       -0.000003776485     0.000001563272     0.000001970961
      13        0.000004941737     0.000002210194    -0.000002263804
      14       -0.000005858671     0.000004024239    -0.000000184320
      15        0.000005166481     0.000003234559     0.000000439542
      16        0.000000953252    -0.000005384468     0.000001785770
      17        0.000001315008    -0.000000156239    -0.000001125316
      18        0.000002452730     0.000002535048    -0.000005294215
      19       -0.000000718839     0.000002126402     0.000002404230

  **** Optimization is complete! (in 10 steps) ****
    Final optimized geometry and variables:
    Molecular point group: c1

    Geometry (in Angstrom), charge = 0, multiplicity = 1:

    O           -1.159472154831    -1.395662662159    -1.748992252998
    C           -0.806813291620    -0.299855945010    -1.434288582826
    C            0.490547726957    -0.079679469641    -0.677633648932
    C           -1.640996985392     0.920259543646    -1.764160412021
    C            0.256088887716     0.107802165278     0.829959402469
    H            1.116136164570    -0.947736576463    -0.847848777736
    H            1.003690644261     0.793070232777    -1.075045161944
    C            1.563049326080     0.272726999002     1.607752461748
    H           -0.287120674104    -0.752816601460     1.211922701089
    H           -0.374097800545     0.976666931178     1.004457525602
    C            1.339721032761     0.453577542668     3.108561097823
    H            2.192953103108    -0.596973042391     1.437612993642
    H            2.109253911592     1.128479059703     1.216949489469
    H            0.822582201772    -0.401660423976     3.533616138697
    H            0.741570698318     1.336987406974     3.313288331248
    H            2.283061414569     0.564318223943     3.633718982595
    H           -2.595877030365     0.611100867452    -2.165886697713
    H           -1.122240669540     1.526105509556    -2.502569852061
    H           -1.795453470400     1.542762435971    -0.889109394107

  Mulliken Charges: (a.u.)
   Center  Symbol    Alpha    Beta     Spin     Total
       1     O     4.26049  4.26049  0.00000 -0.52099
       2     C     2.73680  2.73680  0.00000  0.52641
       3     C     3.20126  3.20126  0.00000 -0.40252
       4     C     3.28989  3.28989  0.00000 -0.57977
       5     C     3.16283  3.16283  0.00000 -0.32566
       6     H     0.39990  0.39990  0.00000  0.20020
       7     H     0.41613  0.41613  0.00000  0.16774
       8     C     3.15152  3.15152  0.00000 -0.30305
       9     H     0.40998  0.40998  0.00000  0.18003
      10     H     0.42031  0.42031  0.00000  0.15937
      11     C     3.24042  3.24042  0.00000 -0.48084
      12     H     0.41843  0.41843  0.00000  0.16313
      13     H     0.42182  0.42182  0.00000  0.15637
      14     H     0.41905  0.41905  0.00000  0.16190
      15     H     0.42124  0.42124  0.00000  0.15752
      16     H     0.41699  0.41699  0.00000  0.16602
      17     H     0.39660  0.39660  0.00000  0.20681
      18     H     0.40709  0.40709  0.00000  0.18582
      19     H     0.40924  0.40924  0.00000  0.18151

   Total alpha = 28.00000, Total beta = 28.00000, Total charge =  0.00000
