  ==> Input File <==

--------------------------------------------------------------------------
set {
	reference rhf
	basis 6-31G*
}

set_num_threads( 4 )
memory 2 gb

molecule MOL {
0 1

O	 -2.821601	 1.309235	 -0.001213
C	 -2.668563	 0.129746	 -0.000350
C	 -3.801572	 -0.864014	 -0.000442
O	 -1.481751	 -0.454642	 0.000584
H	 -4.417280	 -0.689587	 -0.874708
H	 -3.443784	 -1.883046	 -0.000565
H	 -4.417179	 -0.689832	 0.873954
C	 -0.334255	 0.388708	 0.000906
C	 0.891947	 -0.504646	 0.000751
H	 -0.365390	 1.025305	 -0.873475
H	 -0.365484	 1.024911	 0.875569
C	 2.191998	 0.301789	 0.000897
H	 0.855148	 -1.151283	 -0.871571
H	 0.855132	 -1.151660	 0.872805
C	 3.381034	 -0.484653	 0.555902
H	 2.419305	 0.625676	 -1.013260
H	 2.057486	 1.208651	 0.587914
C	 4.679780	 0.320408	 0.554779
H	 3.517096	 -1.391042	 -0.029777
H	 3.156518	 -0.807119	 1.570140
H	 4.949188	 0.628897	 -0.451336
H	 5.503608	 -0.263315	 0.953290
H	 4.586021	 1.217005	 1.160858

	symmetry c1
}
set optking {
	frozen_dihedral = ("
		16 12 9 13
	")
}

ee = optimize('scf')
oeprop('DIPOLE', 'QUADRUPOLE', 'MULLIKEN_CHARGES')
f=open( 'psi4out.xyz', 'w' )
f.write( "23  " )
f.write( str(ee) + "\n" )
f.write( MOL.save_string_xyz() )
f.close()
--------------------------------------------------------------------------

    Molecular point group: c1
  Charge       = 0
  Multiplicity = 1
  Basis Set: 6-31G*
  Basis Set:
  @DF-RHF Final Energy:  -422.97787240718719
    Total Energy =                       -422.9778724071870784
    Molecular point group: c1
  Basis Set: 6-31G*
  Basis Set:
  Basis Set: 6-31G*
  Basis Set:
  @DF-RHF Final Energy:  -422.97802091085168
    Total Energy =                       -422.9780209108510007
  Basis Set: 6-31G*
  Basis Set:
  Basis Set: 6-31G*
  Basis Set:
  @DF-RHF Final Energy:  -422.97806543567106
    Total Energy =                       -422.9780654356706009
  Basis Set: 6-31G*
  Basis Set:
  Basis Set: 6-31G*
  Basis Set:
  @DF-RHF Final Energy:  -422.97792516186172
    Total Energy =                       -422.9779251618621174
  Basis Set: 6-31G*
  Basis Set:
  Basis Set: 6-31G*
  Basis Set:
  @DF-RHF Final Energy:  -422.97808349102058
    Total Energy =                       -422.9780834910211524
  Basis Set: 6-31G*
  Basis Set:
  Basis Set: 6-31G*
  Basis Set:
  @DF-RHF Final Energy:  -422.97808374761416
    Total Energy =                       -422.9780837476141642
  Basis Set: 6-31G*
  Basis Set:
  Basis Set: 6-31G*
  Basis Set:
  @DF-RHF Final Energy:  -422.97808543597921
    Total Energy =                       -422.9780854359793238
  Basis Set: 6-31G*
  Basis Set:
  Charge       = 0
  Multiplicity = 1
  Basis Set: 6-31G*
  Basis Set:

    Orbital Energies (a.u.)
    -----------------------

    Doubly Occupied:

       1A    -20.602878     2A    -20.540482     3A    -11.374043
       4A    -11.281369     5A    -11.232349     6A    -11.224472
       7A    -11.223878     8A    -11.221573     9A    -11.212831
      10A     -1.467880    11A     -1.360682    12A     -1.093746
      13A     -1.042138    14A     -1.003252    15A     -0.930530
      16A     -0.841777    17A     -0.802328    18A     -0.774716
      19A     -0.691635    20A     -0.684930    21A     -0.668460
      22A     -0.645350    23A     -0.607504    24A     -0.587525
      25A     -0.581614    26A     -0.568061    27A     -0.558252
      28A     -0.536664    29A     -0.524306    30A     -0.503746
      31A     -0.492192    32A     -0.477967    33A     -0.470525
      34A     -0.464508    35A     -0.451110    36A     -0.435155

  @DF-RHF Final Energy:  -422.97808543913584

   => Energetics <=

    Nuclear Repulsion Energy =            449.7385415267370945
    One-Electron Energy =               -1467.0723908277882401
    Two-Electron Energy =                 594.3557638619156478
    DFT Exchange-Correlation Energy =       0.0000000000000000
    Empirical Dispersion Energy =           0.0000000000000000
    PCM Polarization Energy =               0.0000000000000000
    EFP Energy =                            0.0000000000000000
    Total Energy =                       -422.9780854391354978
    Molecular point group: c1
  Basis Set: 6-31G*
  Basis Set:

  -Total Gradient:
     Atom            X                  Y                   Z
    ------   -----------------  -----------------  -----------------
       1       -0.000000345800    -0.000000288681    -0.000001477606
       2        0.000000432036     0.000001416589    -0.000000148738
       3        0.000000092169    -0.000000114790     0.000006421480
       4        0.000001911284    -0.000000429821    -0.000011553067
       5        0.000001086891    -0.000001124786    -0.000001913347
       6        0.000000022727     0.000000046150    -0.000000492183
       7       -0.000000927313     0.000001186640    -0.000001997504
       8       -0.000000800587     0.000001324985     0.000029834315
       9        0.002369361477    -0.003686995631     0.002053056007
      10       -0.000003797945    -0.000001282250    -0.000005045497
      11        0.000002113239     0.000000316552    -0.000004247072
      12       -0.002564077978     0.004069986453     0.000202337937
      13       -0.001572012818     0.002432807615    -0.001756263091
      14       -0.000003641785     0.000003441478     0.000000260881
      15       -0.000002003350     0.000003535589     0.000010108369
      16        0.001769843623    -0.002818399041    -0.000516706417
      17        0.000002964191    -0.000003521924     0.000000953657
      18        0.000001114495    -0.000002640846    -0.000006694493
      19        0.000002071866     0.000002109278     0.000001255017
      20       -0.000002525873    -0.000001336278     0.000002002796
      21       -0.000000381767     0.000003505779    -0.000000009207
      22        0.000000195473    -0.000000980268    -0.000002160341
      23       -0.000000694246    -0.000002562792     0.000002478103

  **** Optimization is complete! (in 8 steps) ****
    Final optimized geometry and variables:
    Molecular point group: c1

    Geometry (in Angstrom), charge = 0, multiplicity = 1:

    O           -2.814165819445     1.284592350852    -0.138362371816
    C           -2.659694353245     0.105316267387    -0.147120090470
    C           -3.791071217973    -0.889269027353    -0.192801223273
    O           -1.472744894603    -0.478079183608    -0.117595625754
    H           -4.381261867059    -0.704310273569    -1.082361331368
    H           -3.432253512499    -1.907942240536    -0.195265336336
    H           -4.432109398620    -0.726634578454     0.665399897089
    C           -0.326525621499     0.365697678770    -0.072426974431
    C            0.901665725280    -0.526434159271    -0.044308089863
    H           -0.330507971784     1.012203722654    -0.940398558300
    H           -0.385187333864     0.992150050311     0.807724626094
    C            2.198419335948     0.292458711885    -0.071204044115
    H            0.857801527152    -1.179522686419    -0.910598888098
    H            0.860372618161    -1.153142519611     0.841416312009
    C            3.407529440048    -0.496720193545     0.438424721844
    H            2.402411386719     0.606962362158    -1.092153952132
    H            2.086913466088     1.196231801305     0.524599449185
    C            4.713390828658     0.291633714270     0.351500772573
    H            3.501738786652    -1.417483714506    -0.133436380358
    H            3.232480387766    -0.794644140961     1.469685165167
    H            4.936294664751     0.570367987815    -0.674496303104
    H            5.549536529973    -0.291346260694     0.724651239042
    H            4.659611731805     1.205087994332     0.937109307237

  Mulliken Charges: (a.u.)
   Center  Symbol    Alpha    Beta     Spin     Total
       1     O     4.28387  4.28387  0.00000 -0.56774
       2     C     2.61536  2.61536  0.00000  0.76928
       3     C     3.28774  3.28774  0.00000 -0.57548
       4     O     4.31275  4.31275  0.00000 -0.62549
       5     H     0.39751  0.39751  0.00000  0.20497
       6     H     0.39989  0.39989  0.00000  0.20022
       7     H     0.39751  0.39751  0.00000  0.20497
       8     C     2.99737  2.99737  0.00000  0.00527
       9     C     3.16464  3.16464  0.00000 -0.32927
      10     H     0.41070  0.41070  0.00000  0.17859
      11     H     0.41062  0.41062  0.00000  0.17877
      12     C     3.16078  3.16078  0.00000 -0.32155
      13     H     0.41291  0.41291  0.00000  0.17418
      14     H     0.41379  0.41379  0.00000  0.17241
      15     C     3.15225  3.15225  0.00000 -0.30450
      16     H     0.41906  0.41906  0.00000  0.16187
      17     H     0.42048  0.42048  0.00000  0.15904
      18     C     3.24007  3.24007  0.00000 -0.48015
      19     H     0.42136  0.42136  0.00000  0.15729
      20     H     0.42149  0.42149  0.00000  0.15702
      21     H     0.42102  0.42102  0.00000  0.15797
      22     H     0.41798  0.41798  0.00000  0.16404
      23     H     0.42085  0.42085  0.00000  0.15831

   Total alpha = 36.00000, Total beta = 36.00000, Total charge =  0.00000
