                              Psi4 1.0.54 Driver

  ==> Input File <==

--------------------------------------------------------------------------
set {
	reference rhf
	basis cc-pvtz
}

set_num_threads( 4 )
memory 2 gb

molecule MOL {
0 1

H	 2.694871	 -0.086373	 -0.856660
O	 1.852086	 -0.512846	 -0.896286
C	 1.050374	 0.054877	 0.000135
C	 -0.318151	 -0.570512	 0.000144
O	 1.410268	 0.942227	 0.693716
C	 -1.454884	 0.441630	 -0.000560
H	 -0.371613	 -1.223646	 -0.864985
H	 -0.371920	 -1.222758	 0.865929
C	 -2.822577	 -0.232186	 0.000063
H	 -1.359760	 1.084704	 -0.867077
H	 -1.359641	 1.085996	 0.864983
H	 -2.954352	 -0.858985	 -0.875745
H	 -3.615886	 0.505352	 0.000019
H	 -2.953878	 -0.858359	 0.876394

	symmetry c1
}
set optking {
	frozen_dihedral = ("
		2 3 4 7
	")
}

ee,wfn = optimize('scf', return_wfn=True)
oeprop( wfn, 'DIPOLE', 'QUADRUPOLE', 'MULLIKEN_CHARGES')
f=open( 'psi4out.xyz', 'w' )
f.write( "14  " )
f.write( str(ee) + "\n" )
f.write( MOL.save_string_xyz() )
f.close()
--------------------------------------------------------------------------

    Molecular point group: c1
  Charge       = 0
  Multiplicity = 1
  Basis Set: CC-PVTZ
  Basis Set:
  @DF-RHF Final Energy:  -305.99919860450382
    Total Energy =                       -305.9991986045035901
    Molecular point group: c1
  Basis Set: CC-PVTZ
  Basis Set:
  Basis Set: CC-PVTZ
  Basis Set:
  @DF-RHF Final Energy:  -305.99962898681514
    Total Energy =                       -305.9996289868153667
  Basis Set: CC-PVTZ
  Basis Set:
  Basis Set: CC-PVTZ
  Basis Set:
  @DF-RHF Final Energy:  -305.99956348359353
    Total Energy =                       -305.9995634835934197
  Basis Set: CC-PVTZ
  Basis Set:
  Basis Set: CC-PVTZ
  Basis Set:
  @DF-RHF Final Energy:  -305.99966356166544
    Total Energy =                       -305.9996635616656135
  Basis Set: CC-PVTZ
  Basis Set:
  Basis Set: CC-PVTZ
  Basis Set:
  @DF-RHF Final Energy:  -305.99967547037988
    Total Energy =                       -305.9996754703798842
  Basis Set: CC-PVTZ
  Basis Set:
  Charge       = 0
  Multiplicity = 1
  Basis Set: CC-PVTZ
  Basis Set:

    Orbital Energies (a.u.)
    -----------------------

    Doubly Occupied:

       1A    -20.606526     2A    -20.538655     3A    -11.373956
       4A    -11.238885     5A    -11.228249     6A    -11.216830
       7A     -1.478599     8A     -1.368840     9A     -1.085093
      10A     -0.980420    11A     -0.858048    12A     -0.800098
      13A     -0.706082    14A     -0.691156    15A     -0.658146
      16A     -0.626399    17A     -0.596604    18A     -0.573504
      19A     -0.549540    20A     -0.511375    21A     -0.494817
      22A     -0.487337    23A     -0.476830    24A     -0.445148

  @DF-RHF Final Energy:  -305.99967563212840

   => Energetics <=

    Nuclear Repulsion Energy =            240.4150382816845024
    One-Electron Energy =                -893.6471572323389410
    Two-Electron Energy =                 347.2324433185258385
    DFT Exchange-Correlation Energy =       0.0000000000000000
    Empirical Dispersion Energy =           0.0000000000000000
    PCM Polarization Energy =               0.0000000000000000
    EFP Energy =                            0.0000000000000000
    Total Energy =                       -305.9996756321286284
    Molecular point group: c1
  Basis Set: CC-PVTZ
  Basis Set:

  -Total Gradient:
     Atom            X                  Y                   Z
    ------   -----------------  -----------------  -----------------
       1        0.000005363237     0.000011519994     0.000010087910
       2       -0.000221162092     0.000443242855    -0.000599129553
       3        0.000333261260    -0.000815383847     0.000884961767
       4       -0.000446488871     0.001071286310    -0.000875386367
       5       -0.000003413698     0.000032619078     0.000043339172
       6        0.000025196157    -0.000009525245    -0.000009240875
       7        0.000300672472    -0.000738123163     0.000520315523
       8        0.000002131278    -0.000007113593    -0.000000034831
       9        0.000006719866    -0.000007457622     0.000016808023
      10        0.000004910426    -0.000001521942    -0.000000658576
      11       -0.000011798458     0.000019539970     0.000009032550
      12        0.000005129440     0.000001747825    -0.000005886762
      13        0.000003358754     0.000006640410     0.000002889649
      14       -0.000003879766    -0.000007471033     0.000002902369

  **** Optimization is complete! (in 6 steps) ****
    Final optimized geometry and variables:
    Molecular point group: c1

    Geometry (in Angstrom), charge = 0, multiplicity = 1:

    H            2.746134819912    -0.120962622629    -0.697079206982
    O            1.904959333582    -0.541507345936    -0.798100334172
    C            1.054174360686     0.015356866271     0.056485422559
    C           -0.318005348738    -0.604932321890     0.007578155254
    O            1.373285182737     0.898927265202     0.775807555527
    C           -1.432538283952     0.439566908008    -0.005147941931
    H           -0.382324661088    -1.268395868315    -0.843575296654
    H           -0.402724223633    -1.219919752653     0.898815750394
    C           -2.816853969405    -0.197583341982     0.021305446505
    H           -1.333287081976     1.057657600782    -0.891848632085
    H           -1.307363186411     1.096494282861     0.845454094083
    H           -2.970889980022    -0.844602175740    -0.835688323528
    H           -3.590374338092     0.560627744648     0.006269677890
    H           -2.955943523064    -0.794695619734     0.916275826636

  Mulliken Charges: (a.u.)
   Center  Symbol    Alpha    Beta     Spin     Total
       1     H     0.38068  0.38068  0.00000  0.23863
       2     O     4.15752  4.15752  0.00000 -0.31505
       3     C     2.80939  2.80939  0.00000  0.38121
       4     C     3.09278  3.09278  0.00000 -0.18555
       5     O     4.19708  4.19708  0.00000 -0.39416
       6     C     3.08646  3.08646  0.00000 -0.17292
       7     H     0.43739  0.43739  0.00000  0.12521
       8     H     0.44425  0.44425  0.00000  0.11150
       9     C     3.14989  3.14989  0.00000 -0.29978
      10     H     0.45085  0.45085  0.00000  0.09831
      11     H     0.43927  0.43927  0.00000  0.12145
      12     H     0.45500  0.45500  0.00000  0.08999
      13     H     0.44544  0.44544  0.00000  0.10912
      14     H     0.45399  0.45399  0.00000  0.09202

   Total alpha = 24.00000, Total beta = 24.00000, Total charge =  0.00000

*** Psi4 exiting successfully. Buy a developer a beer!
