  ==> Input File <==

--------------------------------------------------------------------------
set {
	reference rhf
	basis cc-pvtz
}

set_num_threads( 4 )
memory 2 gb

molecule MOL {
0 1

H	 -2.109964	 0.694386	 -2.400866
N	 -1.144776	 0.599195	 -2.167585
C	 -0.807131	 -0.787074	 -1.902260
H	 -0.974403	 1.153740	 -1.355520
C	 0.654671	 -0.916602	 -1.540313
H	 -1.399475	 -1.232173	 -1.103786
H	 -0.986131	 -1.366206	 -2.801490
O	 0.881195	 -0.248324	 -0.336237
H	 0.918695	 -1.968432	 -1.439731
H	 1.266211	 -0.485586	 -2.329726
C	 2.208068	 -0.234417	 0.074171
H	 2.725499	 -1.027054	 -0.446768
H	 2.688377	 0.712084	 -0.164856
H	 2.295137	 -0.403407	 1.144883

	symmetry c1
}
set optking {
	frozen_dihedral = ("
		5 8 11 13
	")
}

ee = optimize('scf')
oeprop('DIPOLE', 'QUADRUPOLE', 'MULLIKEN_CHARGES')
f=open( 'psi4out.xyz', 'w' )
f.write( "14  " )
f.write( str(ee) + "\n" )
f.write( MOL.save_string_xyz() )
f.close()
--------------------------------------------------------------------------

    Molecular point group: c1
  Charge       = 0
  Multiplicity = 1
  Basis Set: CC-PVTZ
  Basis Set:
  @DF-RHF Final Energy:  -248.22245696875200
    Total Energy =                       -248.2224569687518851
    Molecular point group: c1
  Basis Set: CC-PVTZ
  Basis Set:
  Basis Set: CC-PVTZ
  Basis Set:
  @DF-RHF Final Energy:  -248.22332458788770
    Total Energy =                       -248.2233245878875891
  Basis Set: CC-PVTZ
  Basis Set:
  Basis Set: CC-PVTZ
  Basis Set:
  @DF-RHF Final Energy:  -248.22355371318804
    Total Energy =                       -248.2235537131880960
  Basis Set: CC-PVTZ
  Basis Set:
  Charge       = 0
  Multiplicity = 1
  Basis Set: CC-PVTZ
  Basis Set:

    Orbital Energies (a.u.)
    -----------------------

    Doubly Occupied:

       1A    -20.548152     2A    -15.523256     3A    -11.264257
       4A    -11.263246     5A    -11.239483     6A     -1.381003
       7A     -1.175682     8A     -1.000478     9A     -0.907780
      10A     -0.815352    11A     -0.684621    12A     -0.674073
      13A     -0.645056    14A     -0.612227    15A     -0.607069
      16A     -0.541069    17A     -0.534733    18A     -0.497328
      19A     -0.473957    20A     -0.415800    21A     -0.383636

  @DF-RHF Final Energy:  -248.22355521364852

   => Energetics <=

    Nuclear Repulsion Energy =            194.4674337953018721
    One-Electron Energy =                -723.0054576795669163
    Two-Electron Energy =                 280.3144686706162929
    DFT Exchange-Correlation Energy =       0.0000000000000000
    Empirical Dispersion Energy =           0.0000000000000000
    PCM Polarization Energy =               0.0000000000000000
    EFP Energy =                            0.0000000000000000
    Total Energy =                       -248.2235552136487513
    Molecular point group: c1
  Basis Set: CC-PVTZ
  Basis Set:

  -Total Gradient:
     Atom            X                  Y                   Z
    ------   -----------------  -----------------  -----------------
       1        0.000000639359    -0.000007037257     0.000000272877
       2        0.000003155165    -0.000006234522    -0.000008301471
       3       -0.000015962786     0.000018466783     0.000039502154
       4        0.000006386195    -0.000009662294    -0.000000890163
       5       -0.000266961590    -0.001722014979     0.000974476227
       6       -0.000010840874    -0.000000247230    -0.000002991466
       7        0.000005235892    -0.000002119426    -0.000001772942
       8        0.000345696414     0.002852902934    -0.000807676469
       9        0.000004331917     0.000012644681     0.000025370162
      10        0.000002243520    -0.000007151417     0.000010481046
      11        0.000723941613    -0.002079927270    -0.002473275444
      12        0.000040701760    -0.000014790763    -0.000012108151
      13       -0.000834356835     0.000939539272     0.002241553208
      14       -0.000004209749     0.000025631488     0.000015360434

  **** Optimization is complete! (in 4 steps) ****
    Final optimized geometry and variables:
    Molecular point group: c1

    Geometry (in Angstrom), charge = 0, multiplicity = 1:

    H           -2.479947242115     1.010243084749    -1.214130889572
    N           -1.512745458012     0.910270905475    -0.991494237111
    C           -1.177421448943    -0.478574468015    -0.737207499907
    H           -1.332201732527     1.459281343169    -0.177888987220
    C            0.288140489622    -0.616247780768    -0.394235733018
    H           -1.761271816688    -0.924968985270     0.066833227146
    H           -1.370078626492    -1.052934706090    -1.636779238604
    O            0.528418780035     0.045241251114     0.812126165359
    H            0.547661284962    -1.669126167157    -0.300512552692
    H            0.889212226525    -0.184990030974    -1.191244367675
    C            1.855558758275     0.067346219944     1.235725199781
    H            2.437806857187    -0.732292857655     0.789343247524
    H            2.320574171670     1.019507027883     0.998766873865
    H            1.875166421710    -0.056371942344     2.311081802850

  Mulliken Charges: (a.u.)
   Center  Symbol    Alpha    Beta     Spin     Total
       1     H     0.43032  0.43032  0.00000  0.13937
       2     N     3.69422  3.69422  0.00000 -0.38844
       3     C     3.02381  3.02381  0.00000 -0.04763
       4     H     0.42229  0.42229  0.00000  0.15542
       5     C     2.96761  2.96761  0.00000  0.06478
       6     H     0.46479  0.46479  0.00000  0.07042
       7     H     0.45875  0.45875  0.00000  0.08250
       8     O     4.18330  4.18330  0.00000 -0.36659
       9     H     0.46929  0.46929  0.00000  0.06141
      10     H     0.46957  0.46957  0.00000  0.06086
      11     C     3.02878  3.02878  0.00000 -0.05757
      12     H     0.47173  0.47173  0.00000  0.05654
      13     H     0.46144  0.46144  0.00000  0.07712
      14     H     0.45410  0.45410  0.00000  0.09181

   Total alpha = 21.00000, Total beta = 21.00000, Total charge = -0.00000
