  ==> Input File <==

--------------------------------------------------------------------------
set {
	reference rhf
	basis cc-pvtz
}

set_num_threads( 4 )
memory 2 gb

molecule MOL {
0 1

H	 2.987546	 -0.229567	 0.143961
O	 2.292506	 0.324311	 -0.159674
C	 1.135873	 0.113391	 0.608264
C	 0.027642	 1.012027	 0.090274
H	 1.326330	 0.350738	 1.651892
H	 0.835349	 -0.929706	 0.562503
C	 -1.138737	 0.285728	 -0.581921
H	 0.464661	 1.708096	 -0.618252
H	 -0.340737	 1.603071	 0.925246
C	 -1.933983	 -0.631436	 0.343653
H	 -0.763151	 -0.285569	 -1.422081
H	 -1.808359	 1.035291	 -0.992333
H	 -2.789188	 -1.049673	 -0.174718
H	 -1.335629	 -1.461368	 0.700418
H	 -2.305435	 -0.092167	 1.209725

	symmetry c1
}
set optking {
	frozen_dihedral = ("
		2 3 4 8
	")
}

ee = optimize('scf')
oeprop('DIPOLE', 'QUADRUPOLE', 'MULLIKEN_CHARGES')
f=open( 'psi4out.xyz', 'w' )
f.write( "15  " )
f.write( str(ee) + "\n" )
f.write( MOL.save_string_xyz() )
f.close()
--------------------------------------------------------------------------

    Molecular point group: c1
  Charge       = 0
  Multiplicity = 1
  Basis Set: CC-PVTZ
  Basis Set:
  @DF-RHF Final Energy:  -232.23160000774197
    Total Energy =                       -232.2316000077416902
    Molecular point group: c1
  Basis Set: CC-PVTZ
  Basis Set:
  Basis Set: CC-PVTZ
  Basis Set:
  @DF-RHF Final Energy:  -232.23206649679858
    Total Energy =                       -232.2320664967986659
  Basis Set: CC-PVTZ
  Basis Set:
  Basis Set: CC-PVTZ
  Basis Set:
  @DF-RHF Final Energy:  -232.23233790767077
    Total Energy =                       -232.2323379076707965
  Basis Set: CC-PVTZ
  Basis Set:
  Basis Set: CC-PVTZ
  Basis Set:
  @DF-RHF Final Energy:  -232.23234665727432
    Total Energy =                       -232.2323466572742632
  Basis Set: CC-PVTZ
  Basis Set:
  Basis Set: CC-PVTZ
  Basis Set:
  @DF-RHF Final Energy:  -232.23236004566618
    Total Energy =                       -232.2323600456659278
  Basis Set: CC-PVTZ
  Basis Set:
  Basis Set: CC-PVTZ
  Basis Set:
  @DF-RHF Final Energy:  -232.23236143601960
    Total Energy =                       -232.2323614360196871
  Basis Set: CC-PVTZ
  Basis Set:
  Charge       = 0
  Multiplicity = 1
  Basis Set: CC-PVTZ
  Basis Set:

    Orbital Energies (a.u.)
    -----------------------

    Doubly Occupied:

       1A    -20.545314     2A    -11.265575     3A    -11.213554
       4A    -11.209611     5A    -11.207750     6A     -1.362345
       7A     -1.068036     8A     -0.970135     9A     -0.869842
      10A     -0.783221    11A     -0.705593    12A     -0.647845
      13A     -0.605365    14A     -0.589053    15A     -0.559352
      16A     -0.537585    17A     -0.510033    18A     -0.476809
      19A     -0.472248    20A     -0.455563    21A     -0.431564

  @DF-RHF Final Energy:  -232.23236240149609

   => Energetics <=

    Nuclear Repulsion Energy =            188.6648936623759880
    One-Electron Energy =                -688.8217197380315611
    Two-Electron Energy =                 267.9244636741592558
    DFT Exchange-Correlation Energy =       0.0000000000000000
    Empirical Dispersion Energy =           0.0000000000000000
    PCM Polarization Energy =               0.0000000000000000
    EFP Energy =                            0.0000000000000000
    Total Energy =                       -232.2323624014962888
    Molecular point group: c1
  Basis Set: CC-PVTZ
  Basis Set:

  -Total Gradient:
     Atom            X                  Y                   Z
    ------   -----------------  -----------------  -----------------
       1        0.000008352973     0.000001939596    -0.000002613208
       2        0.000398994140     0.000963554798     0.000921072101
       3       -0.000559848327    -0.001465138198    -0.001516076732
       4        0.000505158710     0.001616219243     0.001916890514
       5       -0.000007148218     0.000002803678     0.000002275988
       6       -0.000009343422    -0.000001944759     0.000001960259
       7       -0.000007404224     0.000005879781     0.000001368104
       8       -0.000347554580    -0.001062712126    -0.001361291470
       9        0.000006580800    -0.000049685098     0.000037863254
      10       -0.000029631044     0.000033259418     0.000005835824
      11       -0.000000001374    -0.000042179248     0.000027873225
      12        0.000036515801    -0.000001182906    -0.000038114158
      13        0.000004759998    -0.000006305472    -0.000000587828
      14        0.000005234571     0.000005791058     0.000004783398
      15       -0.000004665799    -0.000000299766    -0.000001239272

  **** Optimization is complete! (in 7 steps) ****
    Final optimized geometry and variables:
    Molecular point group: c1

    Geometry (in Angstrom), charge = 0, multiplicity = 1:

    H            2.872945014881    -0.398723955779    -0.018255376673
    O            2.163389589786     0.168296452075    -0.258570183583
    C            1.032574127082    -0.118722058438     0.527364909052
    C           -0.119067092144     0.784338022296     0.073551147058
    H            1.260620569514     0.053094736832     1.575296919640
    H            0.763422065899    -1.165518095831     0.421937391658
    C           -1.255994983792     0.051638384193    -0.641677543355
    H            0.305668514022     1.514790113409    -0.602889440603
    H           -0.521930146440     1.329115166343     0.921070448960
    C           -2.115249321845    -0.812155686785     0.277967157154
    H           -0.839102648647    -0.560548383142    -1.436497634271
    H           -1.892962234114     0.785271543095    -1.125511321692
    H           -2.900088894319    -1.311850870514    -0.278176347822
    H           -1.531746359286    -1.578529447499     0.776425477873
    H           -2.587531972818    -0.208113648900     1.045929061733

  Mulliken Charges: (a.u.)
   Center  Symbol    Alpha    Beta     Spin     Total
       1     H     0.39536  0.39536  0.00000  0.20929
       2     O     4.19922  4.19922  0.00000 -0.39843
       3     C     2.96446  2.96446  0.00000  0.07108
       4     C     3.09491  3.09491  0.00000 -0.18981
       5     H     0.47140  0.47140  0.00000  0.05721
       6     H     0.47494  0.47494  0.00000  0.05011
       7     C     3.09572  3.09572  0.00000 -0.19143
       8     H     0.44167  0.44167  0.00000  0.11666
       9     H     0.45290  0.45290  0.00000  0.09420
      10     C     3.14962  3.14962  0.00000 -0.29924
      11     H     0.45075  0.45075  0.00000  0.09849
      12     H     0.44935  0.44935  0.00000  0.10130
      13     H     0.44758  0.44758  0.00000  0.10483
      14     H     0.45708  0.45708  0.00000  0.08584
      15     H     0.45505  0.45505  0.00000  0.08990

   Total alpha = 21.00000, Total beta = 21.00000, Total charge = -0.00000
