  ==> Input File <==

--------------------------------------------------------------------------
set {
	reference rhf
	basis 6-31G*
}

set_num_threads( 4 )
memory 2 gb

molecule MOL {
0 1

H	 2.591676	 2.013956	 0.335017
O	 3.341076	 1.666752	 -0.126416
C	 3.569581	 0.339145	 0.272707
C	 2.539767	 -0.640285	 -0.279495
H	 4.553106	 0.084646	 -0.100901
H	 3.608576	 0.269204	 1.359154
C	 1.115811	 -0.397273	 0.226630
H	 2.556196	 -0.582511	 -1.364741
H	 2.852081	 -1.648031	 -0.010655
C	 0.115918	 -1.429151	 -0.302766
H	 0.797950	 0.599468	 -0.066350
H	 1.109961	 -0.420744	 1.316472
C	 -0.540449	 -2.301078	 0.773927
H	 -0.657772	 -0.918148	 -0.872965
H	 0.630361	 -2.080172	 -1.006485
C	 -1.466685	 -1.550491	 1.734751
H	 -1.113949	 -3.081822	 0.278596
H	 0.234023	 -2.811554	 1.344404
C	 -2.178584	 -2.477331	 2.722478
H	 -2.210378	 -1.000232	 1.160079
H	 -0.903154	 -0.807654	 2.294151
C	 -3.098877	 -1.729939	 3.686911
H	 -2.757226	 -3.215053	 2.170728
H	 -1.437152	 -3.035116	 3.290844
H	 -3.872204	 -1.187741	 3.150058
H	 -3.589945	 -2.413858	 4.372287
H	 -2.543285	 -1.009416	 4.280652

	symmetry c1
}
set optking {
	frozen_dihedral = ("
		14 10 7 4
	")
}

ee = optimize('scf')
oeprop('DIPOLE', 'QUADRUPOLE', 'MULLIKEN_CHARGES')
f=open( 'psi4out.xyz', 'w' )
f.write( "27  " )
f.write( str(ee) + "\n" )
f.write( MOL.save_string_xyz() )
f.close()
--------------------------------------------------------------------------

    Molecular point group: c1
  Charge       = 0
  Multiplicity = 1
  Basis Set: 6-31G*
  Basis Set:
  @DF-RHF Final Energy:  -388.27618052760153
    Total Energy =                       -388.2761805276018094
    Molecular point group: c1
  Basis Set: 6-31G*
  Basis Set:
  Basis Set: 6-31G*
  Basis Set:
  @DF-RHF Final Energy:  -388.27636187819223
    Total Energy =                       -388.2763618781924606
  Basis Set: 6-31G*
  Basis Set:
  Basis Set: 6-31G*
  Basis Set:
  @DF-RHF Final Energy:  -388.27661989539860
    Total Energy =                       -388.2766198953989942
  Basis Set: 6-31G*
  Basis Set:
  Basis Set: 6-31G*
  Basis Set:
  @DF-RHF Final Energy:  -388.27640635732820
    Total Energy =                       -388.2764063573281419
  Basis Set: 6-31G*
  Basis Set:
  @DF-RHF Final Energy:  -388.27664879135858
    Total Energy =                       -388.2766487913593210
  Basis Set: 6-31G*
  Basis Set:
  @DF-RHF Final Energy:  -388.27665519730527
    Total Energy =                       -388.2766551973053311
  Basis Set: 6-31G*
  Basis Set:
  Basis Set: 6-31G*
  Basis Set:
  @DF-RHF Final Energy:  -388.27665851226891
    Total Energy =                       -388.2766585122690230
  Basis Set: 6-31G*
  Basis Set:
  Basis Set: 6-31G*
  Basis Set:
  @DF-RHF Final Energy:  -388.27665979736793
    Total Energy =                       -388.2766597973675289
  Basis Set: 6-31G*
  Basis Set:
  Charge       = 0
  Multiplicity = 1
  Basis Set: 6-31G*
  Basis Set:

    Orbital Energies (a.u.)
    -----------------------

    Doubly Occupied:

       1A    -20.552231     2A    -11.266877     3A    -11.219981
       4A    -11.217018     5A    -11.216541     6A    -11.216156
       7A    -11.215651     8A    -11.214714     9A    -11.209946
      10A     -1.358967    11A     -1.094459    12A     -1.060837
      13A     -1.011347    14A     -0.947776    15A     -0.888136
      16A     -0.822425    17A     -0.802520    18A     -0.776687
      19A     -0.693172    20A     -0.656059    21A     -0.631658
      22A     -0.615073    23A     -0.598128    24A     -0.586703
      25A     -0.580003    26A     -0.550617    27A     -0.545629
      28A     -0.528384    29A     -0.503528    30A     -0.501997
      31A     -0.483271    32A     -0.475035    33A     -0.465300
      34A     -0.457574    35A     -0.453296    36A     -0.442117
      37A     -0.423074

  @DF-RHF Final Energy:  -388.27665979661202

   => Energetics <=

    Nuclear Repulsion Energy =            459.2796401314204218
    One-Electron Energy =               -1436.5468206915347764
    Two-Electron Energy =                 588.9905207635024453
    DFT Exchange-Correlation Energy =       0.0000000000000000
    Empirical Dispersion Energy =           0.0000000000000000
    PCM Polarization Energy =               0.0000000000000000
    EFP Energy =                            0.0000000000000000
    Total Energy =                       -388.2766597966119662
    Molecular point group: c1
  Basis Set: 6-31G*
  Basis Set:

  -Total Gradient:
     Atom            X                  Y                   Z
    ------   -----------------  -----------------  -----------------
       1        0.000010053074    -0.000001116065     0.000000277630
       2        0.000012576726     0.000001885547    -0.000009226736
       3       -0.000015198142     0.000001013662     0.000031816760
       4        0.000011046258    -0.000043449731     0.000029108985
       5       -0.000004687895     0.000002768915     0.000000262530
       6        0.000005145314     0.000002333158     0.000004134929
       7       -0.000027512800     0.000056988270    -0.000050293597
       8       -0.000004443865     0.000006558952    -0.000001925263
       9       -0.000002574903    -0.000002669271    -0.000010680008
      10        0.000068957014    -0.000029262862    -0.000069048957
      11       -0.000010049299    -0.000010759802    -0.000009193933
      12        0.000002105732     0.000005772962    -0.000004328928
      13        0.000006627618     0.000004040550     0.000009403672
      14       -0.000045823616     0.000010553936     0.000074279893
      15        0.000006516478     0.000001005864     0.000001372416
      16        0.000004372484     0.000001404080     0.000009165784
      17       -0.000002196756     0.000004627626    -0.000001179441
      18       -0.000001772913    -0.000006130558    -0.000000630169
      19       -0.000012194575    -0.000002463418    -0.000007771947
      20       -0.000005236329    -0.000001197131     0.000009729223
      21        0.000003221509    -0.000002259981    -0.000006122298
      22        0.000005181501     0.000000954156     0.000004067399
      23        0.000004260811    -0.000003496890    -0.000005019200
      24       -0.000005165238     0.000003440169     0.000003945684
      25       -0.000002940213    -0.000003887405    -0.000000565864
      26        0.000001851102     0.000000659768     0.000001487605
      27       -0.000002119079     0.000002685496    -0.000003066162

  **** Optimization is complete! (in 9 steps) ****
    Final optimized geometry and variables:
    Molecular point group: c1

    Geometry (in Angstrom), charge = 0, multiplicity = 1:

    H            2.220562973945     2.891572544266    -0.558326415441
    O            2.960566436450     2.554981089557    -1.042269805466
    C            3.177148444628     1.209343768389    -0.701022440232
    C            2.124886230327     0.267299871441    -1.274448008073
    H            4.150611207542     0.957607081807    -1.101905043297
    H            3.233950287651     1.094649717972     0.380953404230
    C            0.712781146043     0.503482348035    -0.730355573348
    H            2.120669934738     0.370023401844    -2.356445695527
    H            2.427322957514    -0.755453250023    -1.054173144635
    C           -0.324935778721    -0.504756400895    -1.277182529554
    H            0.402107434654     1.515604920379    -0.973645327368
    H            0.744631685685     0.448567163788     0.355967993379
    C           -0.968814752488    -1.396582255974    -0.208690488514
    H           -1.110358034742     0.023025702991    -1.811785314260
    H            0.155589201455    -1.143156696956    -2.013673852379
    C           -1.933896878475    -0.659318003697     0.723140139055
    H           -1.509693903643    -2.200788994800    -0.703023981058
    H           -0.186551504630    -1.874048528221     0.379942068113
    C           -2.555503328156    -1.567570824760     1.785972431036
    H           -2.726939790280    -0.209301295540     0.127774534084
    H           -1.421500847405     0.163964350860     1.216554305229
    C           -3.532460145377    -0.832971569647     2.703375414249
    H           -3.070129567486    -2.392629693758     1.298073750419
    H           -1.764551056579    -2.013923440691     2.385074254529
    H           -4.355435321682    -0.405339367924     2.137641368998
    H           -3.954874618547    -1.502821588594     3.445983056653
    H           -3.039747488943    -0.021829719117     3.232233121867

  Mulliken Charges: (a.u.)
   Center  Symbol    Alpha    Beta     Spin     Total
       1     H     0.27998  0.27998  0.00000  0.44004
       2     O     4.37095  4.37095  0.00000 -0.74190
       3     C     2.99772  2.99772  0.00000  0.00456
       4     C     3.16334  3.16334  0.00000 -0.32668
       5     H     0.41442  0.41442  0.00000  0.17115
       6     H     0.43220  0.43220  0.00000  0.13560
       7     C     3.16433  3.16433  0.00000 -0.32866
       8     H     0.41445  0.41445  0.00000  0.17110
       9     H     0.42417  0.42417  0.00000  0.15166
      10     C     3.15665  3.15665  0.00000 -0.31331
      11     H     0.42248  0.42248  0.00000  0.15505
      12     H     0.42243  0.42243  0.00000  0.15514
      13     C     3.15506  3.15506  0.00000 -0.31013
      14     H     0.41960  0.41960  0.00000  0.16080
      15     H     0.41731  0.41731  0.00000  0.16538
      16     C     3.15184  3.15184  0.00000 -0.30368
      17     H     0.42157  0.42157  0.00000  0.15685
      18     H     0.42453  0.42453  0.00000  0.15093
      19     C     3.15122  3.15122  0.00000 -0.30244
      20     H     0.42397  0.42397  0.00000  0.15206
      21     H     0.42349  0.42349  0.00000  0.15302
      22     C     3.23920  3.23920  0.00000 -0.47841
      23     H     0.42274  0.42274  0.00000  0.15452
      24     H     0.42332  0.42332  0.00000  0.15336
      25     H     0.42160  0.42160  0.00000  0.15680
      26     H     0.41914  0.41914  0.00000  0.16173
      27     H     0.42228  0.42228  0.00000  0.15545

   Total alpha = 37.00000, Total beta = 37.00000, Total charge = -0.00000
