  ==> Input File <==

--------------------------------------------------------------------------
set {
	reference rhf
	basis cc-pvtz
}

set_num_threads( 4 )
memory 2 gb

molecule MOL {
0 1

H	 -1.076558	 1.720025	 -3.007489
O	 -1.476324	 1.126709	 -2.398340
C	 -0.781209	 1.139402	 -1.183106
C	 0.545869	 0.415334	 -1.294389
H	 -0.614554	 2.151905	 -0.829279
H	 -1.405137	 0.637443	 -0.457549
O	 1.172093	 0.457955	 -0.054438
H	 1.167709	 0.892608	 -2.053612
H	 0.374395	 -0.611207	 -1.611225
C	 2.395478	 -0.199028	 -0.000366
H	 2.505946	 -0.901710	 -0.823354
H	 3.174616	 0.545641	 -0.071768
H	 2.513730	 -0.742241	 0.934223

	symmetry c1
}
set optking {
	frozen_dihedral = ("
		4 7 10 13
	")
}

ee = optimize('scf')
oeprop('DIPOLE', 'QUADRUPOLE', 'MULLIKEN_CHARGES')
f=open( 'psi4out.xyz', 'w' )
f.write( "13  " )
f.write( str(ee) + "\n" )
f.write( MOL.save_string_xyz() )
f.close()
--------------------------------------------------------------------------

    Molecular point group: c1
  Charge       = 0
  Multiplicity = 1
  Basis Set: CC-PVTZ
  Basis Set:
  @DF-RHF Final Energy:  -268.05883763106772
    Total Energy =                       -268.0588376310673198
    Molecular point group: c1
  Basis Set: CC-PVTZ
  Basis Set:
  Basis Set: CC-PVTZ
  Basis Set:
  @DF-RHF Final Energy:  -268.05950069194262
    Total Energy =                       -268.0595006919425032
  Basis Set: CC-PVTZ
  Basis Set:
  Basis Set: CC-PVTZ
  Basis Set:
  @DF-RHF Final Energy:  -268.05962934033653
    Total Energy =                       -268.0596293403366985
  Basis Set: CC-PVTZ
  Basis Set:
  Charge       = 0
  Multiplicity = 1
  Basis Set: CC-PVTZ
  Basis Set:

    Orbital Energies (a.u.)
    -----------------------

    Doubly Occupied:

       1A    -20.553414     2A    -20.552601     3A    -11.269645
       4A    -11.267420     5A    -11.267038     6A     -1.388705
       7A     -1.368581     8A     -1.019494     9A     -0.914190
      10A     -0.842550    11A     -0.711490    12A     -0.674295
      13A     -0.660824    14A     -0.639086    15A     -0.597564
      16A     -0.571493    17A     -0.548612    18A     -0.491586
      19A     -0.482491    20A     -0.441236    21A     -0.420928

  @DF-RHF Final Energy:  -268.05962989489313

   => Energetics <=

    Nuclear Repulsion Energy =            190.2516055951342082
    One-Electron Energy =                -743.2559861356475039
    Two-Electron Energy =                 284.9447506456202746
    DFT Exchange-Correlation Energy =       0.0000000000000000
    Empirical Dispersion Energy =           0.0000000000000000
    PCM Polarization Energy =               0.0000000000000000
    EFP Energy =                            0.0000000000000000
    Total Energy =                       -268.0596298948929643
    Molecular point group: c1
  Basis Set: CC-PVTZ
  Basis Set:

  -Total Gradient:
     Atom            X                  Y                   Z
    ------   -----------------  -----------------  -----------------
       1       -0.000013340928     0.000001591375    -0.000019917353
       2       -0.000011512542     0.000040106371    -0.000035355529
       3        0.000013326424    -0.000023440319    -0.000004761253
       4       -0.001003500983    -0.001838645810     0.000528671840
       5       -0.000018741039     0.000014675198     0.000001342465
       6        0.000035299556    -0.000001378473     0.000006876080
       7        0.001189366145     0.002008538567    -0.000960441931
       8        0.000011111228     0.000008969846     0.000058000626
       9       -0.000010828978     0.000007042659    -0.000028773263
      10        0.000844869980     0.001783067439     0.001496478243
      11       -0.000016196655    -0.000000520414     0.000001202037
      12        0.000003880210     0.000008611031     0.000008153987
      13       -0.001023732415    -0.002008617470    -0.001051475950

  **** Optimization is complete! (in 4 steps) ****
    Final optimized geometry and variables:
    Molecular point group: c1

    Geometry (in Angstrom), charge = 0, multiplicity = 1:

    H           -1.462073040115     1.131252897253    -1.985088019157
    O           -1.853889338310     0.531922811386    -1.376644863513
    C           -1.148548683531     0.539985911298    -0.167066598032
    C            0.180891214128    -0.176779652732    -0.294708536549
    H           -0.984585268232     1.550924244776     0.192375788385
    H           -1.763166815638     0.029481812889     0.560494101495
    O            0.811180741425    -0.144057192904     0.944265304132
    H            0.792521660651     0.312688797005    -1.054419330826
    H            0.011436525327    -1.200189281932    -0.620137035205
    C            2.044993728824    -0.788881416158     1.018690153817
    H            2.159841713450    -1.523139674156     0.227066806194
    H            2.860675544336    -0.076447908908     0.947061946975
    H            2.106233512099    -1.311838543028     1.963731394209

  Mulliken Charges: (a.u.)
   Center  Symbol    Alpha    Beta     Spin     Total
       1     H     0.39420  0.39420  0.00000  0.21160
       2     O     4.20212  4.20212  0.00000 -0.40423
       3     C     2.97472  2.97472  0.00000  0.05056
       4     C     2.96509  2.96509  0.00000  0.06982
       5     H     0.46670  0.46670  0.00000  0.06659
       6     H     0.45296  0.45296  0.00000  0.09408
       7     O     4.17935  4.17935  0.00000 -0.35871
       8     H     0.48247  0.48247  0.00000  0.03507
       9     H     0.46867  0.46867  0.00000  0.06266
      10     C     3.02830  3.02830  0.00000 -0.05661
      11     H     0.47223  0.47223  0.00000  0.05554
      12     H     0.46171  0.46171  0.00000  0.07658
      13     H     0.45147  0.45147  0.00000  0.09705

   Total alpha = 21.00000, Total beta = 21.00000, Total charge = -0.00000
