  ==> Input File <==

--------------------------------------------------------------------------
set {
	reference rhf
	basis cc-pvtz
}

set_num_threads( 4 )
memory 2 gb

molecule MOL {
0 1

H	 1.679567	 -1.617991	 -1.004276
C	 0.786116	 -2.224380	 -0.805052
C	 -0.518931	 -1.481127	 -0.877352
O	 0.896031	 -3.374077	 -0.552565
C	 -0.554654	 -0.292621	 0.086567
H	 -1.321912	 -2.177475	 -0.674480
H	 -0.632585	 -1.121567	 -1.897978
C	 -1.846385	 0.513195	 -0.016346
H	 -0.435023	 -0.654387	 1.103795
H	 0.292134	 0.360072	 -0.109936
C	 -3.089953	 -0.365049	 -0.098564
H	 -1.798267	 1.154820	 -0.891143
H	 -1.925398	 1.173265	 0.842889
H	 -3.055079	 -1.012299	 -0.968245
H	 -3.988403	 0.236438	 -0.170014
H	 -3.183055	 -0.995885	 0.779079

	symmetry c1
}
set optking {
	frozen_dihedral = ("
		9 5 8 12
	")
}

ee = optimize('scf')
oeprop('DIPOLE', 'QUADRUPOLE', 'MULLIKEN_CHARGES')
f=open( 'psi4out.xyz', 'w' )
f.write( "16  " )
f.write( str(ee) + "\n" )
f.write( MOL.save_string_xyz() )
f.close()
--------------------------------------------------------------------------

    Molecular point group: c1
  Charge       = 0
  Multiplicity = 1
  Basis Set: CC-PVTZ
  Basis Set:
  @DF-RHF Final Energy:  -270.11451031301954
    Total Energy =                       -270.1145103130195935
    Molecular point group: c1
  Basis Set: CC-PVTZ
  Basis Set:
  Basis Set: CC-PVTZ
  Basis Set:
  @DF-RHF Final Energy:  -270.11561109547154
    Total Energy =                       -270.1156110954715359
  Basis Set: CC-PVTZ
  Basis Set:
  Basis Set: CC-PVTZ
  Basis Set:
  @DF-RHF Final Energy:  -270.11636056546126
    Total Energy =                       -270.1163605654613207
  Basis Set: CC-PVTZ
  Basis Set:
  Basis Set: CC-PVTZ
  Basis Set:
  @DF-RHF Final Energy:  -270.11624594976468
    Total Energy =                       -270.1162459497646751
  Basis Set: CC-PVTZ
  Basis Set:
  Basis Set: CC-PVTZ
  Basis Set:
  @DF-RHF Final Energy:  -270.11627875781579
    Total Energy =                       -270.1162787578158486
  Basis Set: CC-PVTZ
  Basis Set:
  Basis Set: CC-PVTZ
  Basis Set:
  @DF-RHF Final Energy:  -270.11645501026123
    Total Energy =                       -270.1164550102613475
  Basis Set: CC-PVTZ
  Basis Set:
  Basis Set: CC-PVTZ
  Basis Set:
  @DF-RHF Final Energy:  -270.11645705425099
    Total Energy =                       -270.1164570542509864
  Basis Set: CC-PVTZ
  Basis Set:
  Charge       = 0
  Multiplicity = 1
  Basis Set: CC-PVTZ
  Basis Set:

    Orbital Energies (a.u.)
    -----------------------

    Doubly Occupied:

       1A    -20.552172     2A    -11.321268     3A    -11.234824
       4A    -11.233737     5A    -11.227751     6A    -11.216421
       7A     -1.406970     8A     -1.097027     9A     -1.016385
      10A     -0.915619    11A     -0.811207    12A     -0.788223
      13A     -0.681858    14A     -0.647075    15A     -0.633418
      16A     -0.602376    17A     -0.581074    18A     -0.558167
      19A     -0.539933    20A     -0.509660    21A     -0.487937
      22A     -0.479168    23A     -0.472563    24A     -0.412320

  @DF-RHF Final Energy:  -270.11645740518986

   => Energetics <=

    Nuclear Repulsion Energy =            232.6007796533000374
    One-Electron Energy =                -826.5801648132429591
    Two-Electron Energy =                 323.8629277547528318
    DFT Exchange-Correlation Energy =       0.0000000000000000
    Empirical Dispersion Energy =           0.0000000000000000
    PCM Polarization Energy =               0.0000000000000000
    EFP Energy =                            0.0000000000000000
    Total Energy =                       -270.1164574051900900
    Molecular point group: c1
  Basis Set: CC-PVTZ
  Basis Set:

  -Total Gradient:
     Atom            X                  Y                   Z
    ------   -----------------  -----------------  -----------------
       1       -0.000000676681    -0.000004171542    -0.000026616090
       2        0.000019716301     0.000020552030     0.000091917683
       3       -0.000012640071     0.000004043714    -0.000002646258
       4       -0.000018267858     0.000002241963    -0.000045935501
       5       -0.002157528551    -0.003331531957    -0.000639069809
       6       -0.000002921671    -0.000009194516    -0.000007827273
       7        0.000003767275    -0.000014753036    -0.000018803493
       8       -0.001534957532    -0.002684298748    -0.002488595073
       9        0.002047096592     0.003227605115     0.000947648471
      10       -0.000027871336     0.000016425371     0.000006991414
      11        0.000010562369    -0.000034208366     0.000010440989
      12        0.001655219629     0.002817579198     0.002175029373
      13        0.000021977510    -0.000012187754    -0.000007083993
      14       -0.000011661161     0.000000709955    -0.000004733651
      15        0.000017883300     0.000010777682     0.000007199755
      16       -0.000009698111    -0.000009589107     0.000002083457

  **** Optimization is complete! (in 8 steps) ****
    Final optimized geometry and variables:
    Molecular point group: c1

    Geometry (in Angstrom), charge = 0, multiplicity = 1:

    H            2.422445607551    -0.312590727357    -0.640594568779
    C            1.571598598622    -0.975087125608    -0.433943557573
    C            0.219452738448    -0.320437543676    -0.505889694008
    O            1.757397914686    -2.113332163479    -0.174509501820
    C            0.114627953643     0.854316082488     0.469785635107
    H           -0.530944730232    -1.074297598967    -0.316577476683
    H            0.088320797065     0.042963131719    -1.523630160122
    C           -1.153878677413     1.701476851174     0.329988731132
    H            0.204272807030     0.498405461179     1.491914177875
    H            0.968987515848     1.509610386792     0.320091684417
    C           -2.463898598064     0.921407115595     0.301738775029
    H           -1.068634119133     2.332672074916    -0.550027380099
    H           -1.177868727996     2.389864899968     1.169340262300
    H           -2.547911437614     0.298429610893    -0.580416347173
    H           -3.308934697195     1.599525896385     0.303080912957
    H           -2.555255839353     0.278696913459     1.171316579525

  Mulliken Charges: (a.u.)
   Center  Symbol    Alpha    Beta     Spin     Total
       1     H     0.46407  0.46407  0.00000  0.07186
       2     C     2.91180  2.91180  0.00000  0.17640
       3     C     3.08142  3.08142  0.00000 -0.16284
       4     O     4.16310  4.16310  0.00000 -0.32619
       5     C     3.10864  3.10864  0.00000 -0.21728
       6     H     0.44083  0.44083  0.00000  0.11834
       7     H     0.44856  0.44856  0.00000  0.10287
       8     C     3.09050  3.09050  0.00000 -0.18099
       9     H     0.44324  0.44324  0.00000  0.11352
      10     H     0.44823  0.44823  0.00000  0.10354
      11     C     3.15407  3.15407  0.00000 -0.30813
      12     H     0.45152  0.45152  0.00000  0.09697
      13     H     0.44756  0.44756  0.00000  0.10488
      14     H     0.45157  0.45157  0.00000  0.09687
      15     H     0.44385  0.44385  0.00000  0.11229
      16     H     0.45105  0.45105  0.00000  0.09790

   Total alpha = 24.00000, Total beta = 24.00000, Total charge = -0.00000
