  ==> Input File <==

--------------------------------------------------------------------------
set {
	reference rhf
	basis 6-31G*
}

set_num_threads( 1 )
memory 2 gb

molecule MOL {
0 1

H	 -3.339037	 -0.751789	 -0.786236
O	 -3.517110	 -0.026191	 -0.205115
C	 -2.306886	 0.532354	 0.237577
C	 -1.177863	 -0.397191	 -0.171080
H	 -2.156308	 1.517575	 -0.201710
H	 -2.315015	 0.655684	 1.319734
C	 0.198102	 0.111031	 0.262842
H	 -1.208843	 -0.518759	 -1.250427
H	 -1.368741	 -1.376554	 0.258909
C	 1.331804	 -0.827780	 -0.158768
H	 0.361943	 1.100838	 -0.156218
H	 0.217265	 0.229072	 1.345532
C	 2.723619	 -0.410569	 0.329459
H	 1.342964	 -0.912588	 -1.244120
H	 1.116806	 -1.824343	 0.220779
C	 3.243875	 0.895854	 -0.272975
H	 3.424222	 -1.207124	 0.091250
H	 2.714788	 -0.329854	 1.414619
H	 3.251977	 0.848779	 -1.358681
H	 2.637085	 1.747371	 0.016682
H	 4.259473	 1.094070	 0.055697

	symmetry c1
}
set optking {
	frozen_dihedral = ("
		2 3 4 8,
		8 4 7 10,
		4 7 10 14,
		16 13 10 14
	")
}

ee = energy('scf')
oeprop('DIPOLE', 'QUADRUPOLE', 'MULLIKEN_CHARGES')
f=open( 'psi4out.xyz', 'w' )
f.write( "21  " )
f.write( str(ee) + "\n" )
f.write( MOL.save_string_xyz() )
f.close()
--------------------------------------------------------------------------

    Molecular point group: c1

    Geometry (in Angstrom), charge = 0, multiplicity = 1:

       Center              X                  Y                   Z               Mass
    ------------   -----------------  -----------------  -----------------  -----------------
           H         -3.347895197427    -0.739056692541    -0.778082855501     1.007825032070
           O         -3.525968197427    -0.013458692541    -0.196961855501    15.994914619560
           C         -2.315744197427     0.545086307459     0.245730144499    12.000000000000
           C         -1.186721197427    -0.384458692541    -0.162926855501    12.000000000000
           H         -2.165166197427     1.530307307459    -0.193556855501     1.007825032070
           H         -2.323873197427     0.668416307459     1.327887144499     1.007825032070
           C          0.189243802573     0.123763307459     0.270995144499    12.000000000000
           H         -1.217701197427    -0.506026692541    -1.242273855501     1.007825032070
           H         -1.377599197427    -1.363821692541     0.267062144499     1.007825032070
           C          1.322945802573    -0.815047692541    -0.150614855501    12.000000000000
           H          0.353084802573     1.113570307459    -0.148064855501     1.007825032070
           H          0.208406802573     0.241804307459     1.353685144499     1.007825032070
           C          2.714760802573    -0.397836692541     0.337612144499    12.000000000000
           H          1.334105802573    -0.899855692541    -1.235966855501     1.007825032070
           H          1.107947802573    -1.811610692541     0.228932144499     1.007825032070
           C          3.235016802573     0.908586307459    -0.264821855501    12.000000000000
           H          3.415363802573    -1.194391692541     0.099403144499     1.007825032070
           H          2.705929802573    -0.317121692541     1.422772144499     1.007825032070
           H          3.243118802573     0.861511307459    -1.350527855501     1.007825032070
           H          2.628226802573     1.760103307459     0.024835144499     1.007825032070
           H          4.250614802573     1.106802307459     0.063850144499     1.007825032070

  Charge       = 0
  Multiplicity = 1
  Basis Set: 6-31G*
  Basis Set:

    Orbital Energies (a.u.)
    -----------------------

    Doubly Occupied:

       1A    -20.548052     2A    -11.267100     3A    -11.223229
       4A    -11.222437     5A    -11.219692     6A    -11.219081
       7A    -11.211621     8A     -1.358019     9A     -1.092389
      10A     -1.037760    11A     -0.956927    12A     -0.880987
      13A     -0.828270    14A     -0.784113    15A     -0.671879
      16A     -0.657211    17A     -0.627105    18A     -0.622674
      19A     -0.593749    20A     -0.575323    21A     -0.548448
      22A     -0.530974    23A     -0.507447    24A     -0.499462
      25A     -0.487385    26A     -0.467028    27A     -0.461558
      28A     -0.440429    29A     -0.431389

  @DF-RHF Final Energy:  -310.20868573825430

   => Energetics <=

    Nuclear Repulsion Energy =            313.4082222630975139
    One-Electron Energy =               -1041.2907197031031501
    Two-Electron Energy =                 417.6738117017518448
    DFT Exchange-Correlation Energy =       0.0000000000000000
    Empirical Dispersion Energy =           0.0000000000000000
    PCM Polarization Energy =               0.0000000000000000
    EFP Energy =                            0.0000000000000000
    Total Energy =                       -310.2086857382537914

  Mulliken Charges: (a.u.)
   Center  Symbol    Alpha    Beta     Spin     Total
       1     H     0.27818  0.27818  0.00000  0.44364
       2     O     4.37842  4.37842  0.00000 -0.75684
       3     C     2.96778  2.96778  0.00000  0.06444
       4     C     3.19069  3.19069  0.00000 -0.38137
       5     H     0.42777  0.42777  0.00000  0.14446
       6     H     0.42370  0.42370  0.00000  0.15260
       7     C     3.16000  3.16000  0.00000 -0.32001
       8     H     0.42205  0.42205  0.00000  0.15590
       9     H     0.41699  0.41699  0.00000  0.16601
      10     C     3.15241  3.15241  0.00000 -0.30482
      11     H     0.41863  0.41863  0.00000  0.16274
      12     H     0.42084  0.42084  0.00000  0.15832
      13     C     3.15285  3.15285  0.00000 -0.30569
      14     H     0.42360  0.42360  0.00000  0.15281
      15     H     0.42147  0.42147  0.00000  0.15705
      16     C     3.24158  3.24158  0.00000 -0.48315
      17     H     0.42010  0.42010  0.00000  0.15981
      18     H     0.42267  0.42267  0.00000  0.15466
      19     H     0.42193  0.42193  0.00000  0.15614
      20     H     0.42008  0.42008  0.00000  0.15985
      21     H     0.41827  0.41827  0.00000  0.16345

   Total alpha = 29.00000, Total beta = 29.00000, Total charge =  0.00000
