  ==> Input File <==

--------------------------------------------------------------------------
set {
	reference rhf
	basis 6-31G*
}

set_num_threads( 1 )
memory 2 gb

molecule MOL {
0 1

H	 -2.828800	 0.447062	 0.215832
O	 -2.035884	 -0.060112	 0.102722
C	 -0.955155	 0.788182	 -0.092531
C	 0.353668	 0.040312	 -0.004810
H	 -0.985057	 1.290372	 -1.054184
H	 -0.974469	 1.533190	 0.688632
F	 0.394464	 -0.937475	 -0.903053
F	 1.368604	 0.853376	 -0.249821
F	 0.546173	 -0.502608	 1.179981

	symmetry c1
}
set optking {
	frozen_dihedral = ("
		7 4 3 5
	")
}

ee = energy('scf')
oeprop('DIPOLE', 'QUADRUPOLE', 'MULLIKEN_CHARGES')
f=open( 'psi4out.xyz', 'w' )
f.write( "9  " )
f.write( str(ee) + "\n" )
f.write( MOL.save_string_xyz() )
f.close()
--------------------------------------------------------------------------

    Molecular point group: c1

    Geometry (in Angstrom), charge = 0, multiplicity = 1:

       Center              X                  Y                   Z               Mass
    ------------   -----------------  -----------------  -----------------  -----------------
           H         -2.821445621146     0.435761914045     0.207442783163     1.007825032070
           O         -2.028529621146    -0.071412085955     0.094332783163    15.994914619560
           C         -0.947800621146     0.776881914045    -0.100920216837    12.000000000000
           C          0.361022378854     0.029011914045    -0.013199216837    12.000000000000
           H         -0.977702621146     1.279071914045    -1.062573216837     1.007825032070
           H         -0.967114621146     1.521889914045     0.680242783163     1.007825032070
           F          0.401818378854    -0.948775085955    -0.911442216837    18.998403224000
           F          1.375958378854     0.842075914045    -0.258210216837    18.998403224000
           F          0.553527378854    -0.513908085955     1.171591783163    18.998403224000

  Charge       = 0
  Multiplicity = 1
  Basis Set: 6-31G*
  Basis Set:

    Orbital Energies (a.u.)
    -----------------------

    Doubly Occupied:

       1A    -26.341738     2A    -26.335359     3A    -26.329761
       4A    -20.587715     5A    -11.500227     6A    -11.309836
       7A     -1.734017     8A     -1.634999     9A     -1.626966
      10A     -1.400876    11A     -1.048026    12A     -0.917274
      13A     -0.825851    14A     -0.823010    15A     -0.784396
      16A     -0.732329    17A     -0.707650    18A     -0.696890
      19A     -0.667422    20A     -0.651075    21A     -0.638742
      22A     -0.635074    23A     -0.596944    24A     -0.525927
      25A     -0.476787

  @DF-RHF Final Energy:  -450.65788645218890

   => Energetics <=

    Nuclear Repulsion Energy =            276.0217190622854559
    One-Electron Energy =               -1174.3014543564838732
    Two-Electron Energy =                 447.6218488420093990
    DFT Exchange-Correlation Energy =       0.0000000000000000
    Empirical Dispersion Energy =           0.0000000000000000
    PCM Polarization Energy =               0.0000000000000000
    EFP Energy =                            0.0000000000000000
    Total Energy =                       -450.6578864521890182

  Mulliken Charges: (a.u.)
   Center  Symbol    Alpha    Beta     Spin     Total
       1     H     0.27114  0.27114  0.00000  0.45772
       2     O     4.36331  4.36331  0.00000 -0.72662
       3     C     3.05149  3.05149  0.00000 -0.10297
       4     C     2.45326  2.45326  0.00000  1.09349
       5     H     0.41037  0.41037  0.00000  0.17925
       6     H     0.41235  0.41235  0.00000  0.17530
       7     F     4.68071  4.68071  0.00000 -0.36142
       8     F     4.68194  4.68194  0.00000 -0.36387
       9     F     4.67544  4.67544  0.00000 -0.35088

   Total alpha = 25.00000, Total beta = 25.00000, Total charge = -0.00000
