  ==> Input File <==

--------------------------------------------------------------------------
set {
	reference rhf
	basis 6-31G*
}

set_num_threads( 4 )
memory 2 gb

molecule MOL {
0 1

H	 1.713951	 -1.265497	 1.443167
C	 1.835241	 -0.331763	 0.880822
C	 0.584976	 0.497076	 0.736602
O	 2.896871	 -0.036768	 0.435796
C	 -0.558097	 -0.297372	 0.091132
H	 0.827961	 1.380838	 0.158325
H	 0.283064	 0.818626	 1.732737
C	 -1.850991	 0.512573	 -0.019058
H	 -0.251907	 -0.625345	 -0.899552
H	 -0.747206	 -1.199480	 0.670181
C	 -3.096943	 -0.368295	 -0.099594
H	 -1.800724	 1.150330	 -0.898172
H	 -1.931651	 1.177355	 0.838044
H	 -3.060452	 -1.020287	 -0.967456
H	 -3.996858	 0.233488	 -0.175704
H	 -3.191959	 -0.995686	 0.782074

	symmetry c1
}
set optking {
	frozen_dihedral = ("
		9 5 8 12
	")
}

ee = optimize('scf')
oeprop('DIPOLE', 'QUADRUPOLE', 'MULLIKEN_CHARGES')
f=open( 'psi4out.xyz', 'w' )
f.write( "16  " )
f.write( str(ee) + "\n" )
f.write( MOL.save_string_xyz() )
f.close()
--------------------------------------------------------------------------

    Molecular point group: c1
  Charge       = 0
  Multiplicity = 1
  Basis Set: 6-31G*
  Basis Set:
  @DF-RHF Final Energy:  -270.01783956834180
    Total Energy =                       -270.0178395683420831
    Molecular point group: c1
  Basis Set: 6-31G*
  Basis Set:
  Basis Set: 6-31G*
  Basis Set:
  @DF-RHF Final Energy:  -270.01795484283338
    Total Energy =                       -270.0179548428336034
  Basis Set: 6-31G*
  Basis Set:
  Basis Set: 6-31G*
  Basis Set:
  @DF-RHF Final Energy:  -270.01784814522364
    Total Energy =                       -270.0178481452238088
  Basis Set: 6-31G*
  Basis Set:
  Basis Set: 6-31G*
  Basis Set:
  @DF-RHF Final Energy:  -270.01809149645840
    Total Energy =                       -270.0180914964583963
  Basis Set: 6-31G*
  Basis Set:
  Basis Set: 6-31G*
  Basis Set:
  @DF-RHF Final Energy:  -270.01810377748643
    Total Energy =                       -270.0181037774863171
  Basis Set: 6-31G*
  Basis Set:
  Basis Set: 6-31G*
  Basis Set:
  @DF-RHF Final Energy:  -270.01809798654676
    Total Energy =                       -270.0180979865465929
  Basis Set: 6-31G*
  Basis Set:
  Basis Set: 6-31G*
  Basis Set:
  @DF-RHF Final Energy:  -270.01810689838817
    Total Energy =                       -270.0181068983880550
  Basis Set: 6-31G*
  Basis Set:
  Charge       = 0
  Multiplicity = 1
  Basis Set: 6-31G*
  Basis Set:

    Orbital Energies (a.u.)
    -----------------------

    Doubly Occupied:

       1A    -20.562357     2A    -11.326279     3A    -11.236750
       4A    -11.235004     5A    -11.229366     6A    -11.218504
       7A     -1.402079     8A     -1.095778     9A     -1.018651
      10A     -0.905497    11A     -0.811972    12A     -0.793232
      13A     -0.679690    14A     -0.643447    15A     -0.630848
      16A     -0.607020    17A     -0.580074    18A     -0.547732
      19A     -0.531647    20A     -0.506950    21A     -0.487641
      22A     -0.482151    23A     -0.477407    24A     -0.408622

  @DF-RHF Final Energy:  -270.01810706787234

   => Energetics <=

    Nuclear Repulsion Energy =            228.8183611333477643
    One-Electron Energy =                -818.8355375626595105
    Two-Electron Energy =                 319.9990693614394104
    DFT Exchange-Correlation Energy =       0.0000000000000000
    Empirical Dispersion Energy =           0.0000000000000000
    PCM Polarization Energy =               0.0000000000000000
    EFP Energy =                            0.0000000000000000
    Total Energy =                       -270.0181070678723927
    Molecular point group: c1
  Basis Set: 6-31G*
  Basis Set:

  -Total Gradient:
     Atom            X                  Y                   Z
    ------   -----------------  -----------------  -----------------
       1        0.000003302386    -0.000002438150    -0.000002536069
       2        0.000012528923     0.000006225252    -0.000008190557
       3       -0.000028394898    -0.000036886344    -0.000039562434
       4        0.000000661931     0.000002849828     0.000016853149
       5       -0.003085325141    -0.004766176974     0.000080702547
       6        0.000001272319     0.000007010683     0.000006121906
       7        0.000013570783    -0.000004741255     0.000001117943
       8        0.002538799070     0.004356754742     0.002617114990
       9        0.002207685189     0.003347176415    -0.000444465333
      10       -0.000005270882    -0.000016731479     0.000002836178
      11        0.000007979037     0.000013146412    -0.000006169010
      12       -0.001672811961    -0.002924255998    -0.002224686994
      13       -0.000002655242     0.000013268095     0.000000398776
      14       -0.000002655383     0.000002695301    -0.000003610765
      15       -0.000000329846    -0.000000585516     0.000004847138
      16        0.000011643717     0.000002688987    -0.000000771465

  **** Optimization is complete! (in 8 steps) ****
    Final optimized geometry and variables:
    Molecular point group: c1

    Geometry (in Angstrom), charge = 0, multiplicity = 1:

    H            1.790521098899    -1.249687505464     1.095918820900
    C            1.884703800419    -0.317571692341     0.525795308071
    C            0.623732843080     0.500403751332     0.421358382433
    O            2.927169421880    -0.018495047904     0.039818233034
    C           -0.532876445834    -0.305081731541    -0.189987895578
    H            0.840256785070     1.386052895668    -0.164872404552
    H            0.349914425225     0.819786827551     1.426019306442
    C           -1.819001242873     0.521776936851    -0.316245136721
    H           -0.224389100081    -0.639977963568    -1.177059698260
    H           -0.715918109960    -1.191493710262     0.412731501051
    C           -3.067418056380    -0.351921311451    -0.450404300805
    H           -1.749280331651     1.152321103359    -1.198356519685
    H           -1.927526477926     1.178015799284     0.543026133170
    H           -2.989477768146    -1.017010191774    -1.305833840295
    H           -3.957371838971     0.254805364303    -0.583985790787
    H           -3.213930957216    -0.966118712252     0.433388346120

  Mulliken Charges: (a.u.)
   Center  Symbol    Alpha    Beta     Spin     Total
       1     H     0.43224  0.43224  0.00000  0.13553
       2     C     2.83019  2.83019  0.00000  0.33961
       3     C     3.20886  3.20886  0.00000 -0.41773
       4     O     4.23711  4.23711  0.00000 -0.47422
       5     C     3.16508  3.16508  0.00000 -0.33016
       6     H     0.39939  0.39939  0.00000  0.20122
       7     H     0.40999  0.40999  0.00000  0.18002
       8     C     3.15223  3.15223  0.00000 -0.30446
       9     H     0.41171  0.41171  0.00000  0.17658
      10     H     0.41840  0.41840  0.00000  0.16320
      11     C     3.24091  3.24091  0.00000 -0.48182
      12     H     0.41674  0.41674  0.00000  0.16651
      13     H     0.41973  0.41973  0.00000  0.16055
      14     H     0.41961  0.41961  0.00000  0.16077
      15     H     0.41691  0.41691  0.00000  0.16617
      16     H     0.42089  0.42089  0.00000  0.15823

   Total alpha = 24.00000, Total beta = 24.00000, Total charge = -0.00000
