  ==> Input File <==

--------------------------------------------------------------------------
set {
	reference rhf
	basis 6-31G*
}

set_num_threads( 4 )
memory 2 gb

molecule MOL {
0 1

H	 1.136379	 0.211822	 1.465562
C	 1.135357	 0.094285	 0.374742
C	 0.065331	 0.871482	 -0.349150
O	 1.941633	 -0.601957	 -0.151457
C	 0.065002	 0.599764	 -1.860325
H	 0.204433	 1.925073	 -0.135822
H	 -0.892846	 0.567878	 0.070233
C	 1.316908	 1.119457	 -2.568190
H	 -0.814956	 1.064639	 -2.293427
H	 -0.039524	 -0.468920	 -2.035334
H	 1.421391	 2.191786	 -2.435071
H	 1.269531	 0.918533	 -3.633414
H	 2.219443	 0.652827	 -2.184683

	symmetry c1
}
set optking {
	frozen_dihedral = ("
		6 3 2 4
	")
}

ee = optimize('scf')
oeprop('DIPOLE', 'QUADRUPOLE', 'MULLIKEN_CHARGES')
f=open( 'psi4out.xyz', 'w' )
f.write( "13  " )
f.write( str(ee) + "\n" )
f.write( MOL.save_string_xyz() )
f.close()
--------------------------------------------------------------------------

    Molecular point group: c1
  Charge       = 0
  Multiplicity = 1
  Basis Set: 6-31G*
  Basis Set:
  @DF-RHF Final Energy:  -230.98446968641639
    Total Energy =                       -230.9844696864165599
    Molecular point group: c1
  Basis Set: 6-31G*
  Basis Set:
  Basis Set: 6-31G*
  Basis Set:
  @DF-RHF Final Energy:  -230.98567175003404
    Total Energy =                       -230.9856717500341574
  Basis Set: 6-31G*
  Basis Set:
  Basis Set: 6-31G*
  Basis Set:
  @DF-RHF Final Energy:  -230.98581093841636
    Total Energy =                       -230.9858109384163640
  Basis Set: 6-31G*
  Basis Set:
  Basis Set: 6-31G*
  Basis Set:
  @DF-RHF Final Energy:  -230.98571585386736
    Total Energy =                       -230.9857158538672479
  Basis Set: 6-31G*
  Basis Set:
  Basis Set: 6-31G*
  Basis Set:
  @DF-RHF Final Energy:  -230.98583683005444
    Total Energy =                       -230.9858368300544669
  Basis Set: 6-31G*
  Basis Set:
  Basis Set: 6-31G*
  Basis Set:
  @DF-RHF Final Energy:  -230.98584341601418
    Total Energy =                       -230.9858434160142053
  Basis Set: 6-31G*
  Basis Set:
  Charge       = 0
  Multiplicity = 1
  Basis Set: 6-31G*
  Basis Set:

    Orbital Energies (a.u.)
    -----------------------

    Doubly Occupied:

       1A    -20.565287     2A    -11.329874     3A    -11.238381
       4A    -11.225071     5A    -11.208354     6A     -1.405528
       7A     -1.077241     8A     -0.972335     9A     -0.848983
      10A     -0.766385    11A     -0.685963    12A     -0.641603
      13A     -0.620190    14A     -0.581605    15A     -0.566148
      16A     -0.520135    17A     -0.494966    18A     -0.483292
      19A     -0.481443    20A     -0.411778

  @DF-RHF Final Energy:  -230.98584414588268

   => Energetics <=

    Nuclear Repulsion Energy =            176.4005310040077745
    One-Electron Energy =                -662.5236223738399985
    Two-Electron Energy =                 255.1372472239494869
    DFT Exchange-Correlation Energy =       0.0000000000000000
    Empirical Dispersion Energy =           0.0000000000000000
    PCM Polarization Energy =               0.0000000000000000
    EFP Energy =                            0.0000000000000000
    Total Energy =                       -230.9858441458827087
    Molecular point group: c1
  Basis Set: 6-31G*
  Basis Set:

  -Total Gradient:
     Atom            X                  Y                   Z
    ------   -----------------  -----------------  -----------------
       1       -0.000008526357     0.000013716590    -0.000001438181
       2       -0.001050548290    -0.001345420730    -0.000050322661
       3       -0.000490388177     0.000389326797     0.000996789059
       4        0.000795129384     0.000942965369    -0.000136942052
       5        0.000042540216    -0.000013632965     0.000004890184
       6        0.000727348212     0.000025743710    -0.000889478250
       7       -0.000002472945     0.000005870287    -0.000008319686
       8        0.000082628174    -0.000054708909     0.000069916167
       9       -0.000010966385     0.000005214476     0.000043330469
      10       -0.000000471781    -0.000024461488    -0.000009836032
      11       -0.000004315827     0.000021156302    -0.000016382023
      12       -0.000028922727    -0.000000101810     0.000013841094
      13       -0.000051033499     0.000034332371    -0.000016048089

  **** Optimization is complete! (in 7 steps) ****
    Final optimized geometry and variables:
    Molecular point group: c1

    Geometry (in Angstrom), charge = 0, multiplicity = 1:

    H            0.152874296006    -0.178389667624     2.409948532203
    C            0.187875460467    -0.337112755182     1.325869188970
    C           -0.812084348663     0.472860995712     0.538564343537
    O            0.974887801397    -1.097146330030     0.861627906849
    C           -0.823589270575     0.198550858387    -0.965923424003
    H           -0.602408602256     1.523954652064     0.737146086045
    H           -1.789586961317     0.280533334790     0.978665903503
    C            0.382666974939     0.778917203682    -1.704603669508
    H           -1.734295879407     0.620919440966    -1.381243908454
    H           -0.871863691602    -0.872657071555    -1.130564303928
    H            0.433341999710     1.857722677691    -1.580304034612
    H            0.313554476162     0.574724087367    -2.768351086711
    H            1.308542027432     0.350825180397    -1.341939403793

  Mulliken Charges: (a.u.)
   Center  Symbol    Alpha    Beta     Spin     Total
       1     H     0.42795  0.42795  0.00000  0.14410
       2     C     2.83491  2.83491  0.00000  0.33017
       3     C     3.21372  3.21372  0.00000 -0.42745
       4     O     4.23769  4.23769  0.00000 -0.47537
       5     C     3.15102  3.15102  0.00000 -0.30204
       6     H     0.40715  0.40715  0.00000  0.18570
       7     H     0.40641  0.40641  0.00000  0.18719
       8     C     3.24517  3.24517  0.00000 -0.49034
       9     H     0.41888  0.41888  0.00000  0.16224
      10     H     0.40938  0.40938  0.00000  0.18125
      11     H     0.42564  0.42564  0.00000  0.14871
      12     H     0.41817  0.41817  0.00000  0.16366
      13     H     0.40390  0.40390  0.00000  0.19219

   Total alpha = 20.00000, Total beta = 20.00000, Total charge =  0.00000
