  ==> Input File <==

--------------------------------------------------------------------------
set {
	reference rhf
	basis cc-pvtz
}

set_num_threads( 4 )
memory 2 gb

molecule MOL {
0 1

H	 -0.894078	 0.505671	 1.376675
C	 0.117776	 0.748919	 1.073126
N	 0.526300	 -0.128137	 0.000000
H	 0.761767	 0.603941	 1.931204
H	 0.137505	 1.807600	 0.805961
C	 -0.247113	 0.037112	 -1.209233
H	 1.495047	 0.002122	 -0.195501
H	 -0.996493	 -0.743733	 -1.271440
H	 0.397975	 -0.057351	 -2.073512
H	 -0.763794	 0.997171	 -1.271673

	symmetry c1
}
set optking {
	frozen_dihedral = ("
		2 3 6 8
	")
}

ee = optimize('scf')
oeprop('DIPOLE', 'QUADRUPOLE', 'MULLIKEN_CHARGES')
f=open( 'psi4out.xyz', 'w' )
f.write( "10  " )
f.write( str(ee) + "\n" )
f.write( MOL.save_string_xyz() )
f.close()
--------------------------------------------------------------------------

    Molecular point group: c1
  Charge       = 0
  Multiplicity = 1
  Basis Set: CC-PVTZ
  Basis Set:
  @DF-RHF Final Energy:  -134.28961520961457
    Total Energy =                       -134.2896152096145670
    Molecular point group: c1
  Basis Set: CC-PVTZ
  Basis Set:
  Basis Set: CC-PVTZ
  Basis Set:
  @DF-RHF Final Energy:  -134.28986369935768
    Total Energy =                       -134.2898636993576247
  Basis Set: CC-PVTZ
  Basis Set:
  Basis Set: CC-PVTZ
  Basis Set:
  @DF-RHF Final Energy:  -134.28990435452209
    Total Energy =                       -134.2899043545220650
  Basis Set: CC-PVTZ
  Basis Set:
  Charge       = 0
  Multiplicity = 1
  Basis Set: CC-PVTZ
  Basis Set:

    Orbital Energies (a.u.)
    -----------------------

    Doubly Occupied:

       1A    -15.531496     2A    -11.234367     3A    -11.234143
       4A     -1.198556     5A     -0.948518     6A     -0.854383
       7A     -0.660757     8A     -0.614100     9A     -0.590463
      10A     -0.543324    11A     -0.507839    12A     -0.505518
      13A     -0.363435

  @DF-RHF Final Energy:  -134.28990530293146

   => Energetics <=

    Nuclear Repulsion Energy =             84.5598352638421886
    One-Electron Energy =                -348.1256770256633217
    Two-Electron Energy =                 129.2759364588896176
    DFT Exchange-Correlation Energy =       0.0000000000000000
    Empirical Dispersion Energy =           0.0000000000000000
    PCM Polarization Energy =               0.0000000000000000
    EFP Energy =                            0.0000000000000000
    Total Energy =                       -134.2899053029315439
    Molecular point group: c1
  Basis Set: CC-PVTZ
  Basis Set:

  -Total Gradient:
     Atom            X                  Y                   Z
    ------   -----------------  -----------------  -----------------
       1        0.000024384495    -0.000018610252    -0.000032104281
       2        0.002033161690     0.002026646077    -0.001018790201
       3       -0.002121307483    -0.003434280851     0.000855221318
       4       -0.000000202629     0.000006807738     0.000028521273
       5       -0.000018712280     0.000001973515    -0.000006138598
       6       -0.002403405449     0.003684268397     0.002090453369
       7       -0.000046336251    -0.000021449307     0.000049907242
       8        0.002546109182    -0.002263561307    -0.001922392670
       9       -0.000004029079     0.000014336157    -0.000019207618
      10       -0.000009662197     0.000003869831    -0.000025469834

  **** Optimization is complete! (in 4 steps) ****
    Final optimized geometry and variables:
    Molecular point group: c1

    Geometry (in Angstrom), charge = 0, multiplicity = 1:

    H           -1.020196809470     0.266863981724     1.444738048597
    C           -0.011014242603     0.510523283769     1.132227097731
    N            0.393315682888    -0.362368552694     0.053057498175
    H            0.638839533094     0.362566109919     1.985609081462
    H            0.006279812304     1.569092693499     0.866933046325
    C           -0.383712936040    -0.208919566159    -1.164134943754
    H            1.357620115799    -0.213425959337    -0.143325501941
    H           -1.134922522518    -0.987002854401    -1.244858286588
    H            0.260262991205    -0.314515167410    -2.029471890403
    H           -0.872800091587     0.760152997421    -1.236902705188

  Mulliken Charges: (a.u.)
   Center  Symbol    Alpha    Beta     Spin     Total
       1     H     0.45653  0.45653  0.00000  0.08694
       2     C     3.08327  3.08327  0.00000 -0.16654
       3     N     3.62921  3.62921  0.00000 -0.25841
       4     H     0.45297  0.45297  0.00000  0.09406
       5     H     0.47378  0.47378  0.00000  0.05245
       6     C     3.07624  3.07624  0.00000 -0.15248
       7     H     0.44110  0.44110  0.00000  0.11779
       8     H     0.45585  0.45585  0.00000  0.08831
       9     H     0.45863  0.45863  0.00000  0.08274
      10     H     0.47243  0.47243  0.00000  0.05514

   Total alpha = 13.00000, Total beta = 13.00000, Total charge = -0.00000
