  ==> Input File <==

--------------------------------------------------------------------------
set {
	reference rhf
	basis 6-31G*
}

set_num_threads( 4 )
memory 2 gb

molecule MOL {
0 1

H	 -0.340328	 -1.240495	 -0.759768
N	 -0.626943	 -0.667432	 -0.000092
C	 -1.979713	 -0.158776	 0.000050
C	 0.268730	 -0.404563	 0.982169
H	 -2.520245	 -0.492427	 -0.879443
H	 -1.934741	 0.918111	 -0.004428
H	 -2.517790	 -0.485056	 0.883818
C	 1.629706	 -1.039923	 0.779566
O	 0.015449	 0.274999	 1.938338
H	 2.081762	 -0.690254	 -0.143327
H	 2.265693	 -0.775784	 1.611099
H	 1.543578	 -2.120502	 0.722394

	symmetry c1
}
set optking {
	frozen_dihedral = ("
		4 2 3 5
	")
}

ee = optimize('scf')
oeprop('DIPOLE', 'QUADRUPOLE', 'MULLIKEN_CHARGES')
f=open( 'psi4out.xyz', 'w' )
f.write( "12  " )
f.write( str(ee) + "\n" )
f.write( MOL.save_string_xyz() )
f.close()
--------------------------------------------------------------------------

    Molecular point group: c1
  Charge       = 0
  Multiplicity = 1
  Basis Set: 6-31G*
  Basis Set:
  @DF-RHF Final Energy:  -247.00490909952148
    Total Energy =                       -247.0049090995213419
    Molecular point group: c1
  Basis Set: 6-31G*
  Basis Set:
  Basis Set: 6-31G*
  Basis Set:
  @DF-RHF Final Energy:  -247.00556368620633
    Total Energy =                       -247.0055636862064148
  Basis Set: 6-31G*
  Basis Set:
  Basis Set: 6-31G*
  Basis Set:
  @DF-RHF Final Energy:  -247.00565963577623
    Total Energy =                       -247.0056596357760554
  Basis Set: 6-31G*
  Basis Set:
  Basis Set: 6-31G*
  Basis Set:
  @DF-RHF Final Energy:  -247.00556289241655
    Total Energy =                       -247.0055628924166058
  Basis Set: 6-31G*
  Basis Set:
  Charge       = 0
  Multiplicity = 1
  Basis Set: 6-31G*
  Basis Set:

    Orbital Energies (a.u.)
    -----------------------

    Doubly Occupied:

       1A    -20.516153     2A    -15.580488     3A    -11.340978
       4A    -11.255244     5A    -11.229683     6A     -1.384354
       7A     -1.227153     8A     -1.015203     9A     -0.931597
      10A     -0.787555    11A     -0.688607    12A     -0.646897
      13A     -0.633123    14A     -0.583534    15A     -0.579235
      16A     -0.557502    17A     -0.545717    18A     -0.503372
      19A     -0.412602    20A     -0.385014

  @DF-RHF Final Energy:  -247.00567840515254

   => Energetics <=

    Nuclear Repulsion Energy =            181.5192044681717789
    One-Electron Energy =                -695.4417454275059072
    Two-Electron Energy =                 266.9168625541816482
    DFT Exchange-Correlation Energy =       0.0000000000000000
    Empirical Dispersion Energy =           0.0000000000000000
    PCM Polarization Energy =               0.0000000000000000
    EFP Energy =                            0.0000000000000000
    Total Energy =                       -247.0056784051524801
    Molecular point group: c1
  Basis Set: 6-31G*
  Basis Set:

  -Total Gradient:
     Atom            X                  Y                   Z
    ------   -----------------  -----------------  -----------------
       1       -0.000007069720     0.000007002539     0.000001403526
       2       -0.000076364528     0.000084819496    -0.000033283030
       3        0.000144299955    -0.000099600985     0.000024206564
       4       -0.000130513924    -0.000001775994     0.000133479975
       5       -0.000006784374    -0.000004569795    -0.000008405569
       6       -0.000025520810     0.000026446231    -0.000002990989
       7       -0.000037519928     0.000023985862    -0.000007945454
       8        0.000083105611    -0.000024719456    -0.000050193474
       9        0.000049472864    -0.000024362024    -0.000089071005
      10       -0.000001495547     0.000009020016     0.000009798257
      11        0.000016044680    -0.000002370399     0.000007201492
      12       -0.000007654277     0.000006124506     0.000015799704

  **** Optimization is complete! (in 5 steps) ****
    Final optimized geometry and variables:
    Molecular point group: c1

    Geometry (in Angstrom), charge = 0, multiplicity = 1:

    H           -0.198731750779    -0.853586435260    -1.504594680992
    N           -0.471293420065    -0.277736230577    -0.743277450110
    C           -1.816514388136     0.252699452122    -0.709724046393
    C            0.419171698268    -0.011932572302     0.239646016932
    H           -2.344457306503    -0.087855424238    -1.590605737168
    H           -1.806878526513     1.335350082550    -0.702762617315
    H           -2.346742489249    -0.087351399562     0.170917334600
    C            1.785432778782    -0.641980400699     0.060052779219
    O            0.142479923175     0.675387352397     1.183828324123
    H            2.247736640203    -0.297715221611    -0.859782589454
    H            2.409808468363    -0.368168520497     0.897361415804
    H            1.705398843562    -1.723415351910     0.010709936639

  Mulliken Charges: (a.u.)
   Center  Symbol    Alpha    Beta     Spin     Total
       1     H     0.30909  0.30909  0.00000  0.38181
       2     N     3.89178  3.89178  0.00000 -0.78357
       3     C     3.13225  3.13225  0.00000 -0.26449
       4     C     2.63247  2.63247  0.00000  0.73506
       5     H     0.41859  0.41859  0.00000  0.16282
       6     H     0.40587  0.40587  0.00000  0.18827
       7     H     0.40599  0.40599  0.00000  0.18802
       8     C     3.29473  3.29473  0.00000 -0.58946
       9     O     4.30142  4.30142  0.00000 -0.60285
      10     H     0.40781  0.40781  0.00000  0.18439
      11     H     0.39198  0.39198  0.00000  0.21605
      12     H     0.40802  0.40802  0.00000  0.18396

   Total alpha = 20.00000, Total beta = 20.00000, Total charge =  0.00000
