  ==> Input File <==

--------------------------------------------------------------------------
set {
	reference rhf
	basis 6-31G*
}

set_num_threads( 4 )
memory 2 gb

molecule MOL {
0 1

H	 3.295965	 -0.452436	 0.003647
C	 2.236903	 -0.265869	 0.002863
C	 1.763546	 1.023595	 -0.207077
C	 1.353496	 -1.311926	 0.211034
H	 2.455572	 1.830286	 -0.367935
C	 0.404074	 1.266694	 -0.208711
H	 1.723360	 -2.308011	 0.373083
C	 -0.010120	 -1.066742	 0.209162
H	 0.017979	 2.255819	 -0.369066
C	 -0.488460	 0.219100	 0.000000
H	 -0.701825	 -1.875747	 0.370412
C	 -1.949954	 0.470334	 0.000000
O	 -2.781584	 -0.381627	 0.000000
H	 -2.238022	 1.526388	 0.000000

	symmetry c1
}
set optking {
	frozen_dihedral = ("
		8 10 12 14
	")
}

ee = optimize('scf')
oeprop('DIPOLE', 'QUADRUPOLE', 'MULLIKEN_CHARGES')
f=open( 'psi4out.xyz', 'w' )
f.write( "14  " )
f.write( str(ee) + "\n" )
f.write( MOL.save_string_xyz() )
f.close()
--------------------------------------------------------------------------

    Molecular point group: c1
  Charge       = 0
  Multiplicity = 1
  Basis Set: 6-31G*
  Basis Set:
  @DF-RHF Final Energy:  -343.43238777087203
    Total Energy =                       -343.4323877708721398
    Molecular point group: c1
  Basis Set: 6-31G*
  Basis Set:
  Basis Set: 6-31G*
  Basis Set:
  @DF-RHF Final Energy:  -343.43183200644398
    Total Energy =                       -343.4318320064442673
  Basis Set: 6-31G*
  Basis Set:
  Basis Set: 6-31G*
  Basis Set:
  @DF-RHF Final Energy:  -343.43252254310084
    Total Energy =                       -343.4325225431003901
  Basis Set: 6-31G*
  Basis Set:
  Basis Set: 6-31G*
  Basis Set:
  @DF-RHF Final Energy:  -343.43262398162074
    Total Energy =                       -343.4326239816210773
  Basis Set: 6-31G*
  Basis Set:
  Charge       = 0
  Multiplicity = 1
  Basis Set: 6-31G*
  Basis Set:

    Orbital Energies (a.u.)
    -----------------------

    Doubly Occupied:

       1A    -20.562008     2A    -11.331213     3A    -11.254201
       4A    -11.251388     5A    -11.247605     6A    -11.245802
       7A    -11.245159     8A    -11.243252     9A     -1.402685
      10A     -1.171193    11A     -1.047274    12A     -1.031561
      13A     -0.889349    14A     -0.843968    15A     -0.790720
      16A     -0.720815    17A     -0.677753    18A     -0.651486
      19A     -0.619102    20A     -0.615158    21A     -0.602380
      22A     -0.554727    23A     -0.526180    24A     -0.506541
      25A     -0.501249    26A     -0.421571    27A     -0.350062
      28A     -0.346752

  @DF-RHF Final Energy:  -343.43262692186948

   => Energetics <=

    Nuclear Repulsion Energy =            323.2123938978529054
    One-Electron Energy =               -1105.9877377087743753
    Two-Electron Energy =                 439.3427168890521557
    DFT Exchange-Correlation Energy =       0.0000000000000000
    Empirical Dispersion Energy =           0.0000000000000000
    PCM Polarization Energy =               0.0000000000000000
    EFP Energy =                            0.0000000000000000
    Total Energy =                       -343.4326269218692573
    Molecular point group: c1
  Basis Set: 6-31G*
  Basis Set:

  -Total Gradient:
     Atom            X                  Y                   Z
    ------   -----------------  -----------------  -----------------
       1        0.000000329546     0.000017721569     0.000028882371
       2       -0.000083846326    -0.000453602687     0.000010499762
       3       -0.000313581855     0.000259566885    -0.000113805829
       4        0.000384438452     0.000186317521     0.000016666567
       5        0.000017038791    -0.000023375510     0.000013273183
       6        0.000305801616     0.000170818268     0.000117211402
       7       -0.000023686866    -0.000022164356    -0.000010575000
       8       -0.000160850533     0.000574723971     0.001577176883
       9       -0.000012226201    -0.000038524513    -0.000025117441
      10       -0.000146898462    -0.000764144680    -0.001762169209
      11       -0.000007892742    -0.000042144036     0.000002545209
      12        0.000029956899     0.000172199981    -0.001791965308
      13       -0.000033425355    -0.000036049698    -0.000022207209
      14        0.000044843037    -0.000001342714     0.001959584618

  **** Optimization is complete! (in 5 steps) ****
    Final optimized geometry and variables:
    Molecular point group: c1

    Geometry (in Angstrom), charge = 0, multiplicity = 1:

    H            3.300466810505    -0.433548466030     0.007801484661
    C            2.240984538066    -0.249401437547     0.000727358814
    C            1.767012254604     1.035071969402    -0.210053180342
    C            1.356235735786    -1.300196286146     0.207777096089
    H            2.454672524960     1.846043723008    -0.367152535806
    C            0.401686772637     1.269058979755    -0.211482009107
    H            1.731363051146    -2.293450016265     0.375861627339
    C           -0.005290318915    -1.067059521900     0.197976598208
    H            0.027557518992     2.266395991969    -0.367665989231
    C           -0.487089959560     0.220534294496    -0.017745325475
    H           -0.705453431950    -1.866259253755     0.353621619365
    C           -1.946715733201     0.483954175750    -0.007095751443
    O           -2.784623795729    -0.360933715261     0.030648975250
    H           -2.226521051730     1.542071551389    -0.013862215409

  Mulliken Charges: (a.u.)
   Center  Symbol    Alpha    Beta     Spin     Total
       1     H     0.39411  0.39411  0.00000  0.21177
       2     C     3.09119  3.09119  0.00000 -0.18238
       3     C     3.10450  3.10450  0.00000 -0.20900
       4     C     3.10426  3.10426  0.00000 -0.20852
       5     H     0.39467  0.39467  0.00000  0.21066
       6     C     3.10195  3.10195  0.00000 -0.20390
       7     H     0.39394  0.39394  0.00000  0.21212
       8     C     3.08802  3.08802  0.00000 -0.17603
       9     H     0.39249  0.39249  0.00000  0.21502
      10     C     3.05322  3.05322  0.00000 -0.10644
      11     H     0.37740  0.37740  0.00000  0.24519
      12     C     2.83261  2.83261  0.00000  0.33478
      13     O     4.24845  4.24845  0.00000 -0.49689
      14     H     0.42319  0.42319  0.00000  0.15362

   Total alpha = 28.00000, Total beta = 28.00000, Total charge =  0.00000
