  ==> Input File <==

--------------------------------------------------------------------------
set {
	reference rhf
	basis 6-31G*
}

set_num_threads( 1 )
memory 2 gb

molecule MOL {
0 1

O	 1.371460	 1.046771	 0.703571
C	 1.122059	 0.121804	 -0.000188
C	 -0.170150	 -0.657997	 -0.000612
O	 1.972165	 -0.356259	 -0.900050
C	 -1.412532	 0.227344	 -0.000452
H	 -0.153702	 -1.313099	 -0.867402
H	 -0.153924	 -1.313811	 0.865644
C	 -2.706999	 -0.587347	 -0.000541
H	 -1.388000	 0.879466	 -0.868000
H	 -1.387972	 0.879138	 0.867341
C	 -3.956778	 0.291888	 0.000910
H	 -2.726114	 -1.239230	 -0.871609
H	 -2.725217	 -1.240844	 0.869333
H	 -3.985213	 0.933254	 -0.875158
H	 -4.860123	 -0.309979	 0.000519
H	 -3.984618	 0.931166	 0.878514
C	 3.228759	 0.288332	 -1.003081
H	 3.102216	 1.326358	 -1.275070
H	 3.767769	 -0.237627	 -1.775600
H	 3.764073	 0.229312	 -0.066352

	symmetry c1
}
set optking {
	frozen_dihedral = ("
		9 5 8 12,
		9 5 3 6,
		1 2 4 17
	")
}

ee = energy('scf')
oeprop('DIPOLE', 'QUADRUPOLE', 'MULLIKEN_CHARGES')
f=open( 'psi4out.xyz', 'w' )
f.write( "20  " )
f.write( str(ee) + "\n" )
f.write( MOL.save_string_xyz() )
f.close()
--------------------------------------------------------------------------

    Molecular point group: c1

    Geometry (in Angstrom), charge = 0, multiplicity = 1:

       Center              X                  Y                   Z               Mass
    ------------   -----------------  -----------------  -----------------  -----------------
           O          1.406619876997     0.988422180538     0.861495543663    15.994914619560
           C          1.157218876997     0.063455180538     0.157736543663    12.000000000000
           C         -0.134990123003    -0.716345819462     0.157312543663    12.000000000000
           O          2.007324876997    -0.414607819462    -0.742125456337    15.994914619560
           C         -1.377372123003     0.168995180538     0.157472543663    12.000000000000
           H         -0.118542123003    -1.371447819462    -0.709477456337     1.007825032070
           H         -0.118764123003    -1.372159819462     1.023568543663     1.007825032070
           C         -2.671839123003    -0.645695819462     0.157383543663    12.000000000000
           H         -1.352840123003     0.821117180538    -0.710075456337     1.007825032070
           H         -1.352812123003     0.820789180538     1.025265543663     1.007825032070
           C         -3.921618123003     0.233539180538     0.158834543663    12.000000000000
           H         -2.690954123003    -1.297578819462    -0.713684456337     1.007825032070
           H         -2.690057123003    -1.299192819462     1.027257543663     1.007825032070
           H         -3.950053123003     0.874905180538    -0.717233456337     1.007825032070
           H         -4.824963123003    -0.368327819462     0.158443543663     1.007825032070
           H         -3.949458123003     0.872817180538     1.036438543663     1.007825032070
           C          3.263918876997     0.229983180538    -0.845156456337    12.000000000000
           H          3.137375876997     1.268009180538    -1.117145456337     1.007825032070
           H          3.802928876997    -0.295975819462    -1.617675456337     1.007825032070
           H          3.799232876997     0.170963180538     0.091572543663     1.007825032070

  Charge       = 0
  Multiplicity = 1
  Basis Set: 6-31G*
  Basis Set:

    Orbital Energies (a.u.)
    -----------------------

    Doubly Occupied:

       1A    -20.605188     2A    -20.543842     3A    -11.371966
       4A    -11.280556     5A    -11.234100     6A    -11.224582
       7A    -11.222319     8A    -11.212366     9A     -1.469452
      10A     -1.362231    11A     -1.090735    12A     -1.024962
      13A     -0.969276    14A     -0.887522    15A     -0.806018
      16A     -0.770570    17A     -0.694999    18A     -0.681832
      19A     -0.672299    20A     -0.646325    21A     -0.598881
      22A     -0.592149    23A     -0.575486    24A     -0.549066
      25A     -0.534812    26A     -0.523622    27A     -0.501545
      28A     -0.480370    29A     -0.477862    30A     -0.471474
      31A     -0.455166    32A     -0.433464

  @DF-RHF Final Energy:  -383.93997584627056

   => Energetics <=

    Nuclear Repulsion Energy =            381.2507531502125744
    One-Electron Energy =               -1278.4513775757361600
    Two-Electron Energy =                 513.2606485792523472
    DFT Exchange-Correlation Energy =       0.0000000000000000
    Empirical Dispersion Energy =           0.0000000000000000
    PCM Polarization Energy =               0.0000000000000000
    EFP Energy =                            0.0000000000000000
    Total Energy =                       -383.9399758462711816

  Mulliken Charges: (a.u.)
   Center  Symbol    Alpha    Beta     Spin     Total
       1     O     4.28609  4.28609  0.00000 -0.57217
       2     C     2.60581  2.60581  0.00000  0.78838
       3     C     3.20889  3.20889  0.00000 -0.41777
       4     O     4.30468  4.30468  0.00000 -0.60935
       5     C     3.15751  3.15751  0.00000 -0.31501
       6     H     0.40020  0.40020  0.00000  0.19960
       7     H     0.40064  0.40064  0.00000  0.19872
       8     C     3.15383  3.15383  0.00000 -0.30767
       9     H     0.41680  0.41680  0.00000  0.16639
      10     H     0.40538  0.40538  0.00000  0.18925
      11     C     3.23988  3.23988  0.00000 -0.47977
      12     H     0.42178  0.42178  0.00000  0.15644
      13     H     0.42119  0.42119  0.00000  0.15762
      14     H     0.42049  0.42049  0.00000  0.15902
      15     H     0.41811  0.41811  0.00000  0.16378
      16     H     0.41924  0.41924  0.00000  0.16152
      17     C     3.09341  3.09341  0.00000 -0.18681
      18     H     0.40878  0.40878  0.00000  0.18244
      19     H     0.40845  0.40845  0.00000  0.18310
      20     H     0.40885  0.40885  0.00000  0.18229

   Total alpha = 32.00000, Total beta = 32.00000, Total charge =  0.00000
