                              Psi4 1.0.54 Driver

  ==> Input File <==

--------------------------------------------------------------------------
set {
	reference rhf
	basis cc-pvtz
}

set_num_threads( 4 )
memory 2 gb

molecule MOL {
0 1

H	 2.078845	 -0.114475	 2.287779
O	 1.390023	 0.429009	 1.952812
C	 1.135873	 0.113391	 0.608264
C	 0.027642	 1.012027	 0.090274
H	 0.823855	 -0.923840	 0.515724
H	 2.036775	 0.235378	 0.013321
C	 -1.138737	 0.285728	 -0.581921
H	 0.464661	 1.708096	 -0.618252
H	 -0.340737	 1.603071	 0.925246
C	 -1.933983	 -0.631436	 0.343653
H	 -0.763151	 -0.285569	 -1.422081
H	 -1.808359	 1.035291	 -0.992333
H	 -2.789188	 -1.049673	 -0.174718
H	 -1.335629	 -1.461368	 0.700418
H	 -2.305435	 -0.092167	 1.209725

	symmetry c1
}
set optking {
	frozen_dihedral = ("
		2 3 4 8
	")
}

ee,wfn = optimize('scf', return_wfn=True)
oeprop( wfn, 'DIPOLE', 'QUADRUPOLE', 'MULLIKEN_CHARGES')
f=open( 'psi4out.xyz', 'w' )
f.write( "15  " )
f.write( str(ee) + "\n" )
f.write( MOL.save_string_xyz() )
f.close()
--------------------------------------------------------------------------

    Molecular point group: c1
  Charge       = 0
  Multiplicity = 1
  Basis Set: CC-PVTZ
  Basis Set:
  @DF-RHF Final Energy:  -232.23152481157655
    Total Energy =                       -232.2315248115765485
    Molecular point group: c1
  Basis Set: CC-PVTZ
  Basis Set:
  Basis Set: CC-PVTZ
  Basis Set:
  @DF-RHF Final Energy:  -232.23005438016628
    Total Energy =                       -232.2300543801663366
  Basis Set: CC-PVTZ
  Basis Set:
  Basis Set: CC-PVTZ
  Basis Set:
  @DF-RHF Final Energy:  -232.23203212890510
    Total Energy =                       -232.2320321289051890
  Basis Set: CC-PVTZ
  Basis Set:
  Basis Set: CC-PVTZ
  Basis Set:
  @DF-RHF Final Energy:  -232.23216993624101
    Total Energy =                       -232.2321699362409504
  Basis Set: CC-PVTZ
  Basis Set:
  Basis Set: CC-PVTZ
  Basis Set:
  @DF-RHF Final Energy:  -232.23224815391231
    Total Energy =                       -232.2322481539123373
  Basis Set: CC-PVTZ
  Basis Set:
  Basis Set: CC-PVTZ
  Basis Set:
  @DF-RHF Final Energy:  -232.23225391153909
    Total Energy =                       -232.2322539115388054
  Basis Set: CC-PVTZ
  Basis Set:
  Charge       = 0
  Multiplicity = 1
  Basis Set: CC-PVTZ
  Basis Set:

    Orbital Energies (a.u.)
    -----------------------

    Doubly Occupied:

       1A    -20.545460     2A    -11.265509     3A    -11.214774
       4A    -11.209619     5A    -11.204893     6A     -1.362522
       7A     -1.068020     8A     -0.969227     9A     -0.867996
      10A     -0.785619    11A     -0.700642    12A     -0.650165
      13A     -0.616521    14A     -0.575623    15A     -0.556294
      16A     -0.544152    17A     -0.503469    18A     -0.477695
      19A     -0.471700    20A     -0.456892    21A     -0.431017

  @DF-RHF Final Energy:  -232.23225415292606

   => Energetics <=

    Nuclear Repulsion Energy =            189.5067681388833591
    One-Electron Energy =                -690.5224240839946788
    Two-Electron Energy =                 268.7834017921851455
    DFT Exchange-Correlation Energy =       0.0000000000000000
    Empirical Dispersion Energy =           0.0000000000000000
    PCM Polarization Energy =               0.0000000000000000
    EFP Energy =                            0.0000000000000000
    Total Energy =                       -232.2322541529262026
    Molecular point group: c1
  Basis Set: CC-PVTZ
  Basis Set:

  -Total Gradient:
     Atom            X                  Y                   Z
    ------   -----------------  -----------------  -----------------
       1       -0.000001604291    -0.000001785712    -0.000003322116
       2       -0.000511427783    -0.000606209532     0.000203447883
       3        0.000666752067     0.000612474111    -0.000447887733
       4       -0.000119051632     0.000699970320     0.001024592040
       5        0.000014507131     0.000006058679     0.000005270071
       6       -0.000003076784     0.000000894423     0.000002762993
       7       -0.000008054014     0.000007295336     0.000012658014
       8       -0.000028536118    -0.000712641668    -0.000789694270
       9       -0.000001766985    -0.000003967237    -0.000006221340
      10        0.000004924460    -0.000000714931    -0.000006275654
      11       -0.000001258171    -0.000003710952     0.000003010796
      12        0.000001321878     0.000007156853     0.000000034253
      13        0.000002299908    -0.000003946074    -0.000004835918
      14       -0.000007046128    -0.000005923950     0.000005167738
      15       -0.000007983540     0.000005050334     0.000001293243

  **** Optimization is complete! (in 7 steps) ****
    Final optimized geometry and variables:
    Molecular point group: c1

    Geometry (in Angstrom), charge = 0, multiplicity = 1:

    H            2.014892272400    -0.061387743666     1.957447640376
    O            1.286835746883     0.370852324101     1.550188428494
    C            1.209631508655     0.006894914477     0.194623638700
    C            0.054327569532     0.768881938372    -0.463997197529
    H            1.053863667746    -1.064504410513     0.108577020118
    H            2.144921998659     0.235923790790    -0.307987858295
    C           -0.934897453314    -0.119189053495    -1.221706363954
    H            0.454744168909     1.506911300104    -1.149729776327
    H           -0.466595878305     1.313254597559     0.314283778280
    C           -1.803866698448    -0.988529590286    -0.316748409465
    H           -0.393424630941    -0.748803595599    -1.923621677377
    H           -1.579582073849     0.513750377405    -1.823102918158
    H           -2.472148295272    -1.610439302487    -0.901466525656
    H           -1.209051481795    -1.643974330663     0.308841047733
    H           -2.410385531387    -0.374052149734     0.339646206688

  Mulliken Charges: (a.u.)
   Center  Symbol    Alpha    Beta     Spin     Total
       1     H     0.39526  0.39526  0.00000  0.20948
       2     O     4.19866  4.19866  0.00000 -0.39733
       3     C     2.96897  2.96897  0.00000  0.06207
       4     C     3.09441  3.09441  0.00000 -0.18882
       5     H     0.47427  0.47427  0.00000  0.05145
       6     H     0.46832  0.46832  0.00000  0.06335
       7     C     3.09696  3.09696  0.00000 -0.19391
       8     H     0.44881  0.44881  0.00000  0.10238
       9     H     0.44652  0.44652  0.00000  0.10696
      10     C     3.14508  3.14508  0.00000 -0.29017
      11     H     0.45633  0.45633  0.00000  0.08735
      12     H     0.44907  0.44907  0.00000  0.10186
      13     H     0.44925  0.44925  0.00000  0.10149
      14     H     0.45481  0.45481  0.00000  0.09038
      15     H     0.45327  0.45327  0.00000  0.09345

   Total alpha = 21.00000, Total beta = 21.00000, Total charge = -0.00000

*** Psi4 exiting successfully. Buy a developer a beer!
