  ==> Input File <==

--------------------------------------------------------------------------
set {
	reference rhf
	basis 6-31G*
}

set_num_threads( 4 )
memory 2 gb

molecule MOL {
0 1

H	 2.332609	 0.878551	 -1.051851
C	 2.357710	 0.000000	 -0.417167
C	 1.175432	 0.000000	 0.532082
H	 3.291263	 0.000000	 0.136880
H	 2.332609	 -0.878551	 -1.051851
O	 0.000000	 0.000000	 -0.221444
H	 1.206604	 0.877321	 1.177902
H	 1.206604	 -0.877321	 1.177902
C	 -1.175432	 0.000000	 0.532082
C	 -0.996567	 0.942636	 1.706091
H	 -1.395044	 -1.007822	 0.883953
H	 -2.016139	 0.316691	 -0.084900
H	 -0.167272	 0.621017	 2.325878
H	 -1.894704	 0.967163	 2.315384
H	 -0.789238	 1.947387	 1.355667

	symmetry c1
}
set optking {
	frozen_dihedral = ("
		11 9 6 3
	")
}

ee = optimize('scf')
oeprop('DIPOLE', 'QUADRUPOLE', 'MULLIKEN_CHARGES')
f=open( 'psi4out.xyz', 'w' )
f.write( "15  " )
f.write( str(ee) + "\n" )
f.write( MOL.save_string_xyz() )
f.close()
--------------------------------------------------------------------------

    Molecular point group: c1
  Charge       = 0
  Multiplicity = 1
  Basis Set: 6-31G*
  Basis Set:
  @DF-RHF Final Energy:  -232.12898347296792
    Total Energy =                       -232.1289834729678887
    Molecular point group: c1
  Basis Set: 6-31G*
  Basis Set:
  Basis Set: 6-31G*
  Basis Set:
  @DF-RHF Final Energy:  -232.12940296283605
    Total Energy =                       -232.1294029628360249
  Basis Set: 6-31G*
  Basis Set:
  Basis Set: 6-31G*
  Basis Set:
  @DF-RHF Final Energy:  -232.13625256500538
    Total Energy =                       -232.1362525650053499
  Basis Set: 6-31G*
  Basis Set:
  Basis Set: 6-31G*
  Basis Set:
  @DF-RHF Final Energy:  -232.13896905205044
    Total Energy =                       -232.1389690520504701
  Basis Set: 6-31G*
  Basis Set:
  Basis Set: 6-31G*
  Basis Set:
  @DF-RHF Final Energy:  -232.13939507478480
    Total Energy =                       -232.1393950747847725
  Basis Set: 6-31G*
  Basis Set:
  Basis Set: 6-31G*
  Basis Set:
  @DF-RHF Final Energy:  -232.13952033505052
    Total Energy =                       -232.1395203350505767
  Basis Set: 6-31G*
  Basis Set:
  Basis Set: 6-31G*
  Basis Set:
  @DF-RHF Final Energy:  -232.13953378849115
    Total Energy =                       -232.1395337884910077
  Basis Set: 6-31G*
  Basis Set:
  Charge       = 0
  Multiplicity = 1
  Basis Set: 6-31G*
  Basis Set:

    Orbital Energies (a.u.)
    -----------------------

    Doubly Occupied:

       1A    -20.548608     2A    -11.268312     3A    -11.266911
       4A    -11.215196     5A    -11.207501     6A     -1.372223
       7A     -1.039970     8A     -0.989688     9A     -0.869585
      10A     -0.802033    11A     -0.674019    12A     -0.656974
      13A     -0.626774    14A     -0.591064    15A     -0.547927
      16A     -0.537627    17A     -0.524540    18A     -0.504030
      19A     -0.491735    20A     -0.451231    21A     -0.406384

  @DF-RHF Final Energy:  -232.13953515957559

   => Energetics <=

    Nuclear Repulsion Energy =            193.1923248042641035
    One-Electron Energy =                -697.4790561836582583
    Two-Electron Energy =                 272.1471962198183405
    DFT Exchange-Correlation Energy =       0.0000000000000000
    Empirical Dispersion Energy =           0.0000000000000000
    PCM Polarization Energy =               0.0000000000000000
    EFP Energy =                            0.0000000000000000
    Total Energy =                       -232.1395351595758143
    Molecular point group: c1
  Basis Set: 6-31G*
  Basis Set:

  -Total Gradient:
     Atom            X                  Y                   Z
    ------   -----------------  -----------------  -----------------
       1       -0.000004446082    -0.000004630803     0.000008605080
       2        0.000025647126     0.000008664711     0.000015995795
       3        0.000026572340     0.003860488191     0.000263016291
       4        0.000020619144    -0.000008284394    -0.000010137410
       5        0.000000090100     0.000004435075     0.000003397975
       6       -0.000572801108    -0.005704673883    -0.001409438605
       7        0.000002709833    -0.000021537938    -0.000011099131
       8       -0.000020419023    -0.000008930151     0.000011678759
       9        0.003039400623     0.002384887574     0.004923203613
      10       -0.000018511634    -0.000045668818    -0.000001761313
      11       -0.002456297341    -0.000471658676    -0.003813293182
      12       -0.000059696137     0.000016473987     0.000053213632
      13       -0.000002762249    -0.000008275698    -0.000020876514
      14        0.000007208790    -0.000000532877     0.000003717115
      15        0.000012685616    -0.000000756300    -0.000016222103

  **** Optimization is complete! (in 8 steps) ****
    Final optimized geometry and variables:
    Molecular point group: c1

    Geometry (in Angstrom), charge = 0, multiplicity = 1:

    H            2.086045368892     0.554726315881    -1.629905612394
    C            2.099574738235    -0.292558248155    -0.953523255112
    C            0.986179156787    -0.166444930541     0.068724756500
    H            3.067183510965    -0.326987462885    -0.461995906707
    H            1.975832375135    -1.196288036773    -1.539294056796
    O           -0.228340642261    -0.110542662250    -0.621360292524
    H            1.131455143127     0.727855511240     0.668296454033
    H            1.000199083665    -1.019885846677     0.747140536046
    C           -1.408371982842    -0.169588462908     0.131890866021
    C           -1.456650938969     0.730151207693     1.359697302390
    H           -1.621335749118    -1.204653164139     0.398070659806
    H           -2.190957044760     0.131856016544    -0.554123042657
    H           -0.767567955204     0.416167578000     2.135636204547
    H           -2.457243347837     0.705637881852     1.780305181989
    H           -1.227885572680     1.756711121074     1.092367689209

  Mulliken Charges: (a.u.)
   Center  Symbol    Alpha    Beta     Spin     Total
       1     H     0.41345  0.41345  0.00000  0.17309
       2     C     3.24283  3.24283  0.00000 -0.48566
       3     C     2.98951  2.98951  0.00000  0.02099
       4     H     0.42337  0.42337  0.00000  0.15327
       5     H     0.41406  0.41406  0.00000  0.17188
       6     O     4.31254  4.31254  0.00000 -0.62507
       7     H     0.42908  0.42908  0.00000  0.14184
       8     H     0.43391  0.43391  0.00000  0.13218
       9     C     2.98402  2.98402  0.00000  0.03197
      10     C     3.26309  3.26309  0.00000 -0.52617
      11     H     0.43058  0.43058  0.00000  0.13884
      12     H     0.41656  0.41656  0.00000  0.16689
      13     H     0.41722  0.41722  0.00000  0.16556
      14     H     0.41657  0.41657  0.00000  0.16686
      15     H     0.41323  0.41323  0.00000  0.17354

   Total alpha = 21.00000, Total beta = 21.00000, Total charge =  0.00000
