                              Psi4 1.0.54 Driver

  ==> Input File <==

--------------------------------------------------------------------------
set {
	reference rhf
	basis cc-pvtz
}

set_num_threads( 4 )
memory 2 gb

molecule MOL {
0 1

O	 1.357134	 2.145321	 -0.119181
C	 0.282149	 2.586213	 -0.345145
C	 -1.005261	 1.802546	 -0.336068
O	 0.068574	 3.857623	 -0.642328
C	 -0.824290	 0.329213	 -0.000115
H	 -1.671155	 2.287791	 0.370028
H	 -1.465175	 1.929891	 -1.310596
C	 -2.146151	 -0.432825	 -0.000068
H	 -0.347614	 0.239756	 0.969447
H	 -0.141176	 -0.118503	 -0.712994
C	 -3.366283	 0.483552	 0.000557
H	 -2.189286	 -1.084450	 -0.869996
H	 -2.188867	 -1.085083	 0.869399
C	 -4.687436	 -0.278003	 0.000108
H	 -3.325150	 1.134819	 -0.867957
H	 -3.325087	 1.133730	 0.869885
H	 -4.773783	 -0.912098	 -0.876078
H	 -5.531922	 0.401392	 0.000363
H	 -4.773901	 -0.912898	 0.875703
C	 1.193741	 4.711673	 -0.686161
H	 1.687542	 4.741350	 0.273784
H	 0.816094	 5.688610	 -0.940766
H	 1.897297	 4.377339	 -1.434121

	symmetry c1
}
set optking {
	frozen_dihedral = ("
		9 5 8 12
	")
}

ee,wfn = optimize('scf', return_wfn=True)
oeprop( wfn, 'DIPOLE', 'QUADRUPOLE', 'MULLIKEN_CHARGES')
f=open( 'psi4out.xyz', 'w' )
f.write( "23  " )
f.write( str(ee) + "\n" )
f.write( MOL.save_string_xyz() )
f.close()
--------------------------------------------------------------------------

    Molecular point group: c1
  Charge       = 0
  Multiplicity = 1
  Basis Set: CC-PVTZ
  Basis Set:
  @DF-RHF Final Energy:  -423.11727153540278
    Total Energy =                       -423.1172715354024376
    Molecular point group: c1
  Basis Set: CC-PVTZ
  Basis Set:
  Basis Set: CC-PVTZ
  Basis Set:
  @DF-RHF Final Energy:  -423.11334707119300
    Total Energy =                       -423.1133470711931750
  Basis Set: CC-PVTZ
  Basis Set:
  Basis Set: CC-PVTZ
  Basis Set:
  @DF-RHF Final Energy:  -423.12160319297988
    Total Energy =                       -423.1216031929793644
  Basis Set: CC-PVTZ
  Basis Set:
  Basis Set: CC-PVTZ
  Basis Set:
  @DF-RHF Final Energy:  -423.12223386720831
    Total Energy =                       -423.1222338672085925
  Basis Set: CC-PVTZ
  Basis Set:
  Basis Set: CC-PVTZ
  Basis Set:
  @DF-RHF Final Energy:  -423.12115885257816
    Total Energy =                       -423.1211588525783327
  Basis Set: CC-PVTZ
  Basis Set:
  Basis Set: CC-PVTZ
  Basis Set:
  @DF-RHF Final Energy:  -423.12220497830288
    Total Energy =                       -423.1222049783028751
  Basis Set: CC-PVTZ
  Basis Set:
  Basis Set: CC-PVTZ
  Basis Set:
  @DF-RHF Final Energy:  -423.12234833558705
    Total Energy =                       -423.1223483355871622
  Basis Set: CC-PVTZ
  Basis Set:
  Charge       = 0
  Multiplicity = 1
  Basis Set: CC-PVTZ
  Basis Set:

    Orbital Energies (a.u.)
    -----------------------

    Doubly Occupied:

       1A    -20.595954     2A    -20.533904     3A    -11.364297
       4A    -11.278271     5A    -11.233487     6A    -11.217711
       7A    -11.217112     8A    -11.215679     9A    -11.209325
      10A     -1.471934    11A     -1.365497    12A     -1.092085
      13A     -1.043224    14A     -0.987252    15A     -0.933663
      16A     -0.854694    17A     -0.793255    18A     -0.761166
      19A     -0.701665    20A     -0.686134    21A     -0.674678
      22A     -0.648106    23A     -0.610267    24A     -0.602577
      25A     -0.579547    26A     -0.559592    27A     -0.552440
      28A     -0.526693    29A     -0.522814    30A     -0.513929
      31A     -0.495129    32A     -0.468092    33A     -0.461808
      34A     -0.458992    35A     -0.449595    36A     -0.440801

  @DF-RHF Final Energy:  -423.12234909124976

   => Energetics <=

    Nuclear Repulsion Energy =            458.7506881824131710
    One-Electron Energy =               -1485.5033285256172348
    Two-Electron Energy =                 603.6302912519547590
    DFT Exchange-Correlation Energy =       0.0000000000000000
    Empirical Dispersion Energy =           0.0000000000000000
    PCM Polarization Energy =               0.0000000000000000
    EFP Energy =                            0.0000000000000000
    Total Energy =                       -423.1223490912493617
    Molecular point group: c1
  Basis Set: CC-PVTZ
  Basis Set:

  -Total Gradient:
     Atom            X                  Y                   Z
    ------   -----------------  -----------------  -----------------
       1        0.000010951034     0.000079554784    -0.000009693496
       2       -0.000084303677    -0.000004300781    -0.000002988122
       3        0.000016872330    -0.000025505697    -0.000019340782
       4        0.000050522087    -0.000105261293     0.000015021086
       5       -0.002858021112     0.004287093703     0.003121055536
       6        0.000007281711    -0.000003726884    -0.000000432612
       7       -0.000004680519     0.000003103973     0.000012555177
       8       -0.002504187480     0.003996996168    -0.003616995505
       9        0.002758900872    -0.004226860263    -0.002054709268
      10       -0.000000173013     0.000006938833     0.000007215770
      11        0.000013698120    -0.000021800889     0.000027967248
      12        0.002552176098    -0.004051367474     0.002540780550
      13       -0.000002929905     0.000000524487    -0.000003097461
      14       -0.000009078748     0.000000170032    -0.000006502574
      15        0.000008450644     0.000002963396     0.000003189426
      16       -0.000007193606    -0.000004205026     0.000002314703
      17       -0.000005010272    -0.000008321895    -0.000002058792
      18        0.000014464570    -0.000006075380    -0.000004912562
      19       -0.000001567364     0.000007921755    -0.000005346302
      20        0.000031933655     0.000060086662     0.000000935902
      21       -0.000005799853    -0.000000909363    -0.000018753391
      22        0.000027874934     0.000014357480     0.000001381537
      23       -0.000010180504    -0.000001376322     0.000012413927

  **** Optimization is complete! (in 8 steps) ****
    Final optimized geometry and variables:
    Molecular point group: c1

    Geometry (in Angstrom), charge = 0, multiplicity = 1:

    O            2.356364033300     0.452005655605     0.079210550461
    C            1.295596634178     0.932984230535    -0.131274189462
    C           -0.021005521934     0.197737250059    -0.127685798615
    O            1.125105040481     2.216563155732    -0.404575177978
    C            0.126324368532    -1.285392081567     0.184291770533
    H           -0.661576044673     0.704688482069     0.583543455297
    H           -0.473067057526     0.357898088677    -1.100427424120
    C           -1.174164185386    -2.122271954023     0.162882888941
    H            0.632558940987    -1.414167690725     1.132488608982
    H            0.814567941719    -1.708038398390    -0.537690387917
    C           -2.497300450544    -1.382366387648     0.346829327578
    H           -1.205778172205    -2.713533492860    -0.747265070586
    H           -1.097553264725    -2.861104019149     0.955461442258
    C           -3.690822471910    -2.332062688988     0.367268435599
    H           -2.638142171082    -0.656865408604    -0.447527697579
    H           -2.476070696859    -0.819692811952     1.275963695672
    H           -3.760403364570    -2.891835699107    -0.559471460185
    H           -4.620583988003    -1.790308900975     0.496960337126
    H           -3.608307889324    -3.047510290421     1.178447951564
    C            2.279411920724     3.031011521253    -0.441603752863
    H            2.780278985252     3.026449850795     0.515111822253
    H            1.935188498920     4.025110864454    -0.676557303044
    H            2.965911084999     2.685286533928    -1.200161697596

  Mulliken Charges: (a.u.)
   Center  Symbol    Alpha    Beta     Spin     Total
       1     O     4.19676  4.19676  0.00000 -0.39351
       2     C     2.81201  2.81201  0.00000  0.37598
       3     C     3.10013  3.10013  0.00000 -0.20025
       4     O     4.14639  4.14639  0.00000 -0.29278
       5     C     3.09177  3.09177  0.00000 -0.18353
       6     H     0.43652  0.43652  0.00000  0.12695
       7     H     0.43831  0.43831  0.00000  0.12337
       8     C     3.09434  3.09434  0.00000 -0.18868
       9     H     0.44347  0.44347  0.00000  0.11306
      10     H     0.44368  0.44368  0.00000  0.11264
      11     C     3.09192  3.09192  0.00000 -0.18383
      12     H     0.45071  0.45071  0.00000  0.09858
      13     H     0.45067  0.45067  0.00000  0.09865
      14     C     3.15080  3.15080  0.00000 -0.30161
      15     H     0.45190  0.45190  0.00000  0.09619
      16     H     0.45219  0.45219  0.00000  0.09562
      17     H     0.45457  0.45457  0.00000  0.09086
      18     H     0.44777  0.44777  0.00000  0.10446
      19     H     0.45380  0.45380  0.00000  0.09239
      20     C     3.03851  3.03851  0.00000 -0.07703
      21     H     0.45434  0.45434  0.00000  0.09131
      22     H     0.44517  0.44517  0.00000  0.10965
      23     H     0.45426  0.45426  0.00000  0.09149

   Total alpha = 36.00000, Total beta = 36.00000, Total charge =  0.00000

*** Psi4 exiting successfully. Buy a developer a beer!
