                              Psi4 1.0.54 Driver

  ==> Input File <==

--------------------------------------------------------------------------
set {
	reference rhf
	basis cc-pvtz
}

set_num_threads( 4 )
memory 2 gb

molecule MOL {
0 1

O	 1.762093	 1.193017	 0.495074
C	 1.704209	 0.119472	 -0.000093
C	 0.501731	 -0.457157	 -0.702365
O	 2.715427	 -0.733672	 0.000025
C	 -0.697287	 0.479646	 -0.735206
H	 0.815608	 -0.729145	 -1.704839
H	 0.257629	 -1.390798	 -0.206208
C	 -1.895176	 -0.135550	 -1.452571
H	 -0.413414	 1.406431	 -1.220758
H	 -0.971880	 0.744217	 0.279630
C	 -3.108088	 0.789380	 -1.495240
H	 -1.612385	 -0.400880	 -2.468878
H	 -2.172736	 -1.066217	 -0.962615
C	 -4.305181	 0.174772	 -2.212622
H	 -2.832265	 1.718874	 -1.985260
H	 -3.392421	 1.053733	 -0.480631
H	 -4.062335	 -0.069157	 -3.241582
H	 -5.147595	 0.856621	 -2.225056
H	 -4.627176	 -0.739346	 -1.724829
C	 4.020999	 -0.192556	 0.000019
H	 4.182809	 0.412891	 -0.879449
H	 4.692590	 -1.035653	 0.000152
H	 4.182726	 0.413087	 0.879368

	symmetry c1
}
set optking {
	frozen_dihedral = ("
		1 2 4 20
	")
}

ee,wfn = optimize('scf', return_wfn=True)
oeprop( wfn, 'DIPOLE', 'QUADRUPOLE', 'MULLIKEN_CHARGES')
f=open( 'psi4out.xyz', 'w' )
f.write( "23  " )
f.write( str(ee) + "\n" )
f.write( MOL.save_string_xyz() )
f.close()
--------------------------------------------------------------------------

    Molecular point group: c1
  Charge       = 0
  Multiplicity = 1
  Basis Set: CC-PVTZ
  Basis Set:
  @DF-RHF Final Energy:  -423.12605970060361
    Total Energy =                       -423.1260597006033777
    Molecular point group: c1
  Basis Set: CC-PVTZ
  Basis Set:
  Basis Set: CC-PVTZ
  Basis Set:
  @DF-RHF Final Energy:  -422.92945978957999
    Total Energy =                       -422.9294597895802781
  Basis Set: CC-PVTZ
  Basis Set:
  Basis Set: CC-PVTZ
  Basis Set:
  @DF-RHF Final Energy:  -423.06250986548883
    Total Energy =                       -423.0625098654888916
  Basis Set: CC-PVTZ
  Basis Set:
  Basis Set: CC-PVTZ
  Basis Set:
  @DF-RHF Final Energy:  -423.12101767921615
    Total Energy =                       -423.1210176792160382
  Basis Set: CC-PVTZ
  Basis Set:
  @DF-RHF Final Energy:  -423.05584680229515
    Total Energy =                       -423.0558468022953775
  @DF-RHF Final Energy:  -423.12077929618442
    Total Energy =                       -423.1207792961843097
  @DF-RHF Final Energy:  -423.12596279950776
    Total Energy =                       -423.1259627995085566
  @DF-RHF Final Energy:  -423.12647273395760
    Total Energy =                       -423.1264727339573710
  @DF-RHF Final Energy:  -423.12655965391184
    Total Energy =                       -423.1265596539120679
  @DF-RHF Final Energy:  -423.12657431371190
    Total Energy =                       -423.1265743137116715
  @DF-RHF Final Energy:  -423.12657721522396
    Total Energy =                       -423.1265772152231648
  @DF-RHF Final Energy:  -423.12647081309376
    Total Energy =                       -423.1264708130938743
  @DF-RHF Final Energy:  -423.10753256879678
    Total Energy =                       -423.1075325687968416
  @DF-RHF Final Energy:  -423.12647580057359
    Total Energy =                       -423.1264758005739850
  Basis Set: CC-PVTZ
  Basis Set:
  @DF-RHF Final Energy:  -423.12656797548652
    Total Energy =                       -423.1265679754860685
  Basis Set: CC-PVTZ
  Basis Set:
  Basis Set: CC-PVTZ
  Basis Set:
  @DF-RHF Final Energy:  -423.12657657857113
    Total Energy =                       -423.1265765785711892
  Basis Set: CC-PVTZ
  Basis Set:
  Basis Set: CC-PVTZ
  Basis Set:
  @DF-RHF Final Energy:  -423.12657775952061
    Total Energy =                       -423.1265777595208419
  Basis Set: CC-PVTZ
  Basis Set:
  Charge       = 0
  Multiplicity = 1
  Basis Set: CC-PVTZ
  Basis Set:

    Orbital Energies (a.u.)
    -----------------------

    Doubly Occupied:

       1A    -20.591866     2A    -20.536353     3A    -11.365338
       4A    -11.280409     5A    -11.234226     6A    -11.217473
       7A    -11.216118     8A    -11.214724     9A    -11.207941
      10A     -1.469077    11A     -1.366337    12A     -1.094679
      13A     -1.044395    14A     -0.986877    15A     -0.934071
      16A     -0.845342    17A     -0.795841    18A     -0.768426
      19A     -0.698570    20A     -0.684340    21A     -0.675443
      22A     -0.652398    23A     -0.610578    24A     -0.602407
      25A     -0.574909    26A     -0.565448    27A     -0.554194
      28A     -0.528433    29A     -0.518726    30A     -0.508401
      31A     -0.485110    32A     -0.470675    33A     -0.467532
      34A     -0.465176    35A     -0.457088    36A     -0.436686

  @DF-RHF Final Energy:  -423.12657801465735

   => Energetics <=

    Nuclear Repulsion Energy =            452.6209329444845366
    One-Electron Energy =               -1473.2438094010835812
    Two-Electron Energy =                 597.4962984419414624
    DFT Exchange-Correlation Energy =       0.0000000000000000
    Empirical Dispersion Energy =           0.0000000000000000
    PCM Polarization Energy =               0.0000000000000000
    EFP Energy =                            0.0000000000000000
    Total Energy =                       -423.1265780146575253
    Molecular point group: c1
  Basis Set: CC-PVTZ
  Basis Set:

  -Total Gradient:
     Atom            X                  Y                   Z
    ------   -----------------  -----------------  -----------------
       1       -0.005380692610     0.002183486107     0.006186480063
       2        0.009231109523    -0.005245374746    -0.011404049467
       3       -0.000006151443    -0.000017944838     0.000103129991
       4       -0.006273380643     0.007416090095     0.009595398776
       5        0.000031238311    -0.000004959773     0.000001132523
       6        0.000000167792    -0.000006294511     0.000002070214
       7        0.000004330401    -0.000004895609    -0.000002465777
       8        0.000000178451     0.000004103014    -0.000012572389
       9       -0.000002970762    -0.000001655047     0.000002041719
      10        0.000010507528    -0.000011801315    -0.000000009937
      11        0.000000625115    -0.000008494486     0.000012666862
      12       -0.000002779688     0.000004602810     0.000001132449
      13        0.000000025244     0.000005052617    -0.000006061107
      14       -0.000011517695    -0.000000171587    -0.000014779139
      15        0.000000271069    -0.000005845905     0.000006285918
      16        0.000001569455    -0.000005686531    -0.000002946503
      17       -0.000001327940     0.000006651893     0.000006309452
      18       -0.000004751596    -0.000005183786    -0.000002066722
      19        0.000000820800     0.000002332349     0.000000000065
      20        0.002405486259    -0.004267110712    -0.004477515408
      21        0.000004413615    -0.000000095428     0.000027430065
      22       -0.000005914850    -0.000006217047    -0.000010631032
      23       -0.000001256337    -0.000030587565    -0.000010980616

  **** Optimization is complete! (in 18 steps) ****
    Final optimized geometry and variables:
    Molecular point group: c1

    Geometry (in Angstrom), charge = 0, multiplicity = 1:

    O            1.363512246689     1.754146474268     0.475780963344
    C            1.365374492426     0.626241086731     0.830299627992
    C            0.383346854096    -0.428673703001     0.392901195135
    O            2.211750894929     0.154007492500     1.739722252338
    C           -0.742122672955     0.100694318515    -0.483900201406
    H            0.954333387886    -1.194830076351    -0.123772533769
    H           -0.000450896099    -0.903410618208     1.289334075050
    C           -1.709966645008    -0.997723277272    -0.913846100194
    H           -0.318220833103     0.581718667217    -1.357760903102
    H           -1.279329089683     0.874089160429     0.053972286747
    C           -2.846931361883    -0.484640464342    -1.792719189606
    H           -1.165043717247    -1.771363975798    -1.450390900380
    H           -2.128728799814    -1.478008333168    -0.032319263346
    C           -3.813987325204    -1.582484338710    -2.222787852029
    H           -2.429762492974    -0.005836431522    -2.674109268062
    H           -3.392681373917     0.287171243889    -1.257376584027
    H           -3.303886244064    -2.353329105461    -2.790970431995
    H           -4.607669514274    -1.184789080798    -2.844599544887
    H           -4.274524621128    -2.057690773447    -1.362956464465
    C            3.482640879084     0.767374594389     1.824326681021
    H            3.975429183877     0.745351452685     0.862014591968
    H            4.047521315722     0.190608335861     2.538519143893
    H            3.399084439436     1.790803579667     2.157064291026

  Mulliken Charges: (a.u.)
   Center  Symbol    Alpha    Beta     Spin     Total
       1     O     4.19135  4.19135  0.00000 -0.38271
       2     C     2.80462  2.80462  0.00000  0.39076
       3     C     3.10240  3.10240  0.00000 -0.20481
       4     O     4.15141  4.15141  0.00000 -0.30281
       5     C     3.08461  3.08461  0.00000 -0.16923
       6     H     0.44353  0.44353  0.00000  0.11294
       7     H     0.43789  0.43789  0.00000  0.12422
       8     C     3.08893  3.08893  0.00000 -0.17785
       9     H     0.44536  0.44536  0.00000  0.10928
      10     H     0.44689  0.44689  0.00000  0.10621
      11     C     3.08402  3.08402  0.00000 -0.16803
      12     H     0.45597  0.45597  0.00000  0.08806
      13     H     0.45551  0.45551  0.00000  0.08898
      14     C     3.15038  3.15038  0.00000 -0.30077
      15     H     0.45326  0.45326  0.00000  0.09348
      16     H     0.45320  0.45320  0.00000  0.09360
      17     H     0.45539  0.45539  0.00000  0.08922
      18     H     0.44769  0.44769  0.00000  0.10461
      19     H     0.45525  0.45525  0.00000  0.08950
      20     C     3.03747  3.03747  0.00000 -0.07495
      21     H     0.46096  0.46096  0.00000  0.07808
      22     H     0.44526  0.44526  0.00000  0.10949
      23     H     0.44863  0.44863  0.00000  0.10275

   Total alpha = 36.00000, Total beta = 36.00000, Total charge =  0.00000

*** Psi4 exiting successfully. Buy a developer a beer!
