  ==> Input File <==

--------------------------------------------------------------------------
set {
	reference rhf
	basis 6-31G*
}

set_num_threads( 1 )
memory 2 gb

molecule MOL {
0 1

H	 -3.135461	 -1.215070	 0.001379
O	 -2.310168	 -0.871793	 -0.309793
C	 -2.026376	 0.340750	 0.341611
C	 -0.673256	 0.843270	 -0.132153
H	 -2.792215	 1.080697	 0.115987
H	 -2.013526	 0.200402	 1.421792
C	 0.486613	 -0.083066	 0.235839
H	 -0.715586	 0.970948	 -1.210718
H	 -0.508072	 1.829858	 0.297090
C	 0.337625	 -0.700680	 1.627302
H	 1.416875	 0.472942	 0.181241
H	 0.557783	 -0.879541	 -0.504028
C	 1.493786	 -1.630972	 1.992708
H	 0.267248	 0.093736	 2.367347
H	 -0.599262	 -1.251781	 1.681830
H	 2.441409	 -1.100159	 1.980956
H	 1.362531	 -2.052243	 2.984801
H	 1.569892	 -2.456441	 1.290340

	symmetry c1
}
set optking {
	frozen_dihedral = ("
		14 10 7 11,
		2 3 4 8,
		1 2 3 4
	")
}

ee = energy('scf')
oeprop('DIPOLE', 'QUADRUPOLE', 'MULLIKEN_CHARGES')
f=open( 'psi4out.xyz', 'w' )
f.write( "18  " )
f.write( str(ee) + "\n" )
f.write( MOL.save_string_xyz() )
f.close()
--------------------------------------------------------------------------

    Molecular point group: c1

    Geometry (in Angstrom), charge = 0, multiplicity = 1:

       Center              X                  Y                   Z               Mass
    ------------   -----------------  -----------------  -----------------  -----------------
           H         -2.639422642708    -0.839846626984    -0.617537220927     1.007825032070
           O         -1.814129642708    -0.496569626984    -0.928709220927    15.994914619560
           C         -1.530337642708     0.715973373016    -0.277305220927    12.000000000000
           C         -0.177217642708     1.218493373016    -0.751069220927    12.000000000000
           H         -2.296176642708     1.455920373016    -0.502929220927     1.007825032070
           H         -1.517487642708     0.575625373016     0.802875779073     1.007825032070
           C          0.982651357292     0.292157373016    -0.383077220927    12.000000000000
           H         -0.219547642708     1.346171373016    -1.829634220927     1.007825032070
           H         -0.012033642708     2.205081373016    -0.321826220927     1.007825032070
           C          0.833663357292    -0.325456626984     1.008385779073    12.000000000000
           H          1.912913357292     0.848165373016    -0.437675220927     1.007825032070
           H          1.053821357292    -0.504317626984    -1.122944220927     1.007825032070
           C          1.989824357292    -1.255748626984     1.373791779073    12.000000000000
           H          0.763286357292     0.468959373016     1.748430779073     1.007825032070
           H         -0.103223642708    -0.876557626984     1.062913779073     1.007825032070
           H          2.937447357292    -0.724935626984     1.362039779073     1.007825032070
           H          1.858569357292    -1.677019626984     2.365884779073     1.007825032070
           H          2.065930357292    -2.081217626984     0.671423779073     1.007825032070

  Charge       = 0
  Multiplicity = 1
  Basis Set: 6-31G*
  Basis Set:

    Orbital Energies (a.u.)
    -----------------------

    Doubly Occupied:

       1A    -20.554307     2A    -11.266438     3A    -11.211700
       4A    -11.208905     5A    -11.207033     6A    -11.203751
       7A     -1.360780     8A     -1.076732     9A     -1.004700
      10A     -0.912160    11A     -0.835486    12A     -0.765464
      13A     -0.705126    14A     -0.648074    15A     -0.624417
      16A     -0.584481    17A     -0.560746    18A     -0.554077
      19A     -0.537596    20A     -0.498702    21A     -0.489480
      22A     -0.460563    23A     -0.455702    24A     -0.446476
      25A     -0.430287

  @DF-RHF Final Energy:  -271.17454388736707

   => Energetics <=

    Nuclear Repulsion Energy =            256.9041391724775281
    One-Electron Energy =                -876.9509324760390427
    Two-Electron Energy =                 348.8722494161944496
    DFT Exchange-Correlation Energy =       0.0000000000000000
    Empirical Dispersion Energy =           0.0000000000000000
    PCM Polarization Energy =               0.0000000000000000
    EFP Energy =                            0.0000000000000000
    Total Energy =                       -271.1745438873671219

  Mulliken Charges: (a.u.)
   Center  Symbol    Alpha    Beta     Spin     Total
       1     H     0.28065  0.28065  0.00000  0.43869
       2     O     4.36974  4.36974  0.00000 -0.73948
       3     C     3.00590  3.00590  0.00000 -0.01180
       4     C     3.16097  3.16097  0.00000 -0.32194
       5     H     0.42744  0.42744  0.00000  0.14512
       6     H     0.42840  0.42840  0.00000  0.14321
       7     C     3.14864  3.14864  0.00000 -0.29728
       8     H     0.41298  0.41298  0.00000  0.17405
       9     H     0.42352  0.42352  0.00000  0.15297
      10     C     3.16073  3.16073  0.00000 -0.32146
      11     H     0.42308  0.42308  0.00000  0.15383
      12     H     0.41402  0.41402  0.00000  0.17196
      13     C     3.23800  3.23800  0.00000 -0.47600
      14     H     0.42722  0.42722  0.00000  0.14556
      15     H     0.41370  0.41370  0.00000  0.17260
      16     H     0.42332  0.42332  0.00000  0.15335
      17     H     0.42136  0.42136  0.00000  0.15727
      18     H     0.42032  0.42032  0.00000  0.15935

   Total alpha = 25.00000, Total beta = 25.00000, Total charge =  0.00000
