  ==> Input File <==

--------------------------------------------------------------------------
set {
	reference rhf
	basis 6-31G*
}

set_num_threads( 4 )
memory 2 gb

molecule MOL {
0 1

H	 -0.219073	 1.922495	 0.494727
O	 0.055946	 1.300438	 -0.164479
C	 0.004957	 -0.004114	 0.366649
C	 1.201664	 -0.828089	 -0.095740
C	 -1.317755	 -0.601827	 -0.081511
H	 0.013527	 0.048298	 1.454924
H	 1.216388	 -0.895289	 -1.178704
H	 2.135132	 -0.372895	 0.226467
H	 1.166770	 -1.832878	 0.313827
H	 -1.355732	 -0.658248	 -1.164429
H	 -2.141614	 0.017037	 0.254547
H	 -1.447303	 -1.600817	 0.322594

	symmetry c1
}
set optking {
	frozen_dihedral = ("
		1 2 3 4
	")
}

ee = optimize('scf')
oeprop('DIPOLE', 'QUADRUPOLE', 'MULLIKEN_CHARGES')
f=open( 'psi4out.xyz', 'w' )
f.write( "12  " )
f.write( str(ee) + "\n" )
f.write( MOL.save_string_xyz() )
f.close()
--------------------------------------------------------------------------

    Molecular point group: c1
  Charge       = 0
  Multiplicity = 1
  Basis Set: 6-31G*
  Basis Set:
  @DF-RHF Final Energy:  -193.11253332287805
    Total Energy =                       -193.1125333228779368
    Molecular point group: c1
  Basis Set: 6-31G*
  Basis Set:
  Basis Set: 6-31G*
  Basis Set:
  @DF-RHF Final Energy:  -193.11357753138921
    Total Energy =                       -193.1135775313891259
  Basis Set: 6-31G*
  Basis Set:
  Basis Set: 6-31G*
  Basis Set:
  @DF-RHF Final Energy:  -193.11377160116879
    Total Energy =                       -193.1137716011687360
  Basis Set: 6-31G*
  Basis Set:
  Basis Set: 6-31G*
  Basis Set:
  @DF-RHF Final Energy:  -193.11377353192654
    Total Energy =                       -193.1137735319265971
  Basis Set: 6-31G*
  Basis Set:
  Charge       = 0
  Multiplicity = 1
  Basis Set: 6-31G*
  Basis Set:

    Orbital Energies (a.u.)
    -----------------------

    Doubly Occupied:

       1A    -20.549793     2A    -11.276121     3A    -11.207449
       4A    -11.206030     5A     -1.358530     6A     -1.040774
       7A     -0.936024     8A     -0.798466     9A     -0.709896
      10A     -0.610396    11A     -0.598726    12A     -0.553879
      13A     -0.538091    14A     -0.523171    15A     -0.506313
      16A     -0.464059    17A     -0.429043

  @DF-RHF Final Energy:  -193.11377524606897

   => Energetics <=

    Nuclear Repulsion Energy =            135.3102916134560871
    One-Electron Energy =                -530.2346102347557917
    Two-Electron Energy =                 201.8105433752308500
    DFT Exchange-Correlation Energy =       0.0000000000000000
    Empirical Dispersion Energy =           0.0000000000000000
    PCM Polarization Energy =               0.0000000000000000
    EFP Energy =                            0.0000000000000000
    Total Energy =                       -193.1137752460688262
    Molecular point group: c1
  Basis Set: 6-31G*
  Basis Set:

  -Total Gradient:
     Atom            X                  Y                   Z
    ------   -----------------  -----------------  -----------------
       1        0.001740045383     0.000087799426     0.000641184743
       2       -0.001955581416    -0.000025692980    -0.000476542167
       3       -0.000369346392    -0.000357379061    -0.001127509030
       4        0.000551171082     0.000299245500     0.000959589901
       5        0.000003016341    -0.000002020445    -0.000000746332
       6        0.000008148104    -0.000014703381    -0.000010393614
       7       -0.000015159770     0.000004822252    -0.000004541708
       8        0.000001780298     0.000009869927     0.000010484209
       9        0.000005827483     0.000001456473    -0.000008892290
      10        0.000009144787     0.000013346440     0.000008222045
      11        0.000021191035    -0.000005118290    -0.000003841228
      12       -0.000000236935    -0.000011625862     0.000012985471

  **** Optimization is complete! (in 5 steps) ****
    Final optimized geometry and variables:
    Molecular point group: c1

    Geometry (in Angstrom), charge = 0, multiplicity = 1:

    H           -0.142447136692     1.936034151832     0.464641687197
    O            0.126804532421     1.294652555598    -0.175506488024
    C           -0.001200418677    -0.007541371391     0.359388274038
    C            1.204020673077    -0.813114557790    -0.099512689470
    C           -1.323269911301    -0.622230190523    -0.082027570744
    H            0.015552175799     0.045740109884     1.446589868652
    H            1.235995357652    -0.852880181139    -1.183619406109
    H            2.120306627239    -0.349648284672     0.247941371232
    H            1.162059105935    -1.829169288621     0.280791799354
    H           -1.365351955713    -0.677642587015    -1.164809705266
    H           -2.158381369993    -0.016038594092     0.255266538991
    H           -1.446039323797    -1.623273052339     0.321007340473

  Mulliken Charges: (a.u.)
   Center  Symbol    Alpha    Beta     Spin     Total
       1     H     0.28060  0.28060  0.00000  0.43880
       2     O     4.37339  4.37339  0.00000 -0.74679
       3     C     2.92456  2.92456  0.00000  0.15089
       4     C     3.23704  3.23704  0.00000 -0.47409
       5     C     3.23820  3.23820  0.00000 -0.47640
       6     H     0.43124  0.43124  0.00000  0.13752
       7     H     0.41476  0.41476  0.00000  0.17048
       8     H     0.41528  0.41528  0.00000  0.16944
       9     H     0.42420  0.42420  0.00000  0.15161
      10     H     0.41451  0.41451  0.00000  0.17099
      11     H     0.42198  0.42198  0.00000  0.15604
      12     H     0.42425  0.42425  0.00000  0.15151

   Total alpha = 17.00000, Total beta = 17.00000, Total charge = -0.00000
