  ==> Input File <==

--------------------------------------------------------------------------
set {
	reference rhf
	basis 6-31G*
}

set_num_threads( 4 )
memory 2 gb

molecule MOL {
0 1

H	 -2.340766	 0.005334	 0.997987
O	 -2.035884	 -0.060112	 0.102722
C	 -0.955155	 0.788182	 -0.092531
C	 0.353668	 0.040312	 -0.004810
H	 -0.985057	 1.290372	 -1.054184
H	 -0.974469	 1.533190	 0.688632
F	 0.394464	 -0.937475	 -0.903053
F	 1.368604	 0.853376	 -0.249821
F	 0.546173	 -0.502608	 1.179981

	symmetry c1
}
set optking {
	frozen_dihedral = ("
		1 2 3 5
	")
}

ee = optimize('scf')
oeprop('DIPOLE', 'QUADRUPOLE', 'MULLIKEN_CHARGES')
f=open( 'psi4out.xyz', 'w' )
f.write( "9  " )
f.write( str(ee) + "\n" )
f.write( MOL.save_string_xyz() )
f.close()
--------------------------------------------------------------------------

    Molecular point group: c1
  Charge       = 0
  Multiplicity = 1
  Basis Set: 6-31G*
  Basis Set:
  @DF-RHF Final Energy:  -450.65942971508582
    Total Energy =                       -450.6594297150861621
    Molecular point group: c1
  Basis Set: 6-31G*
  Basis Set:
  Basis Set: 6-31G*
  Basis Set:
  @DF-RHF Final Energy:  -450.66086777488601
    Total Energy =                       -450.6608677748860146
  Basis Set: 6-31G*
  Basis Set:
  Basis Set: 6-31G*
  Basis Set:
  @DF-RHF Final Energy:  -450.66115178027678
    Total Energy =                       -450.6611517802767821
  Basis Set: 6-31G*
  Basis Set:
  Basis Set: 6-31G*
  Basis Set:
  @DF-RHF Final Energy:  -450.66116391487236
    Total Energy =                       -450.6611639148721338
  Basis Set: 6-31G*
  Basis Set:
  Basis Set: 6-31G*
  Basis Set:
  @DF-RHF Final Energy:  -450.66116599584660
    Total Energy =                       -450.6611659958466589
  Basis Set: 6-31G*
  Basis Set:
  Charge       = 0
  Multiplicity = 1
  Basis Set: 6-31G*
  Basis Set:

    Orbital Energies (a.u.)
    -----------------------

    Doubly Occupied:

       1A    -26.338523     2A    -26.336840     3A    -26.334422
       4A    -20.589945     5A    -11.495700     6A    -11.309882
       7A     -1.735013     8A     -1.633344     9A     -1.631796
      10A     -1.401586    11A     -1.047153    12A     -0.919573
      13A     -0.825834    14A     -0.824302    15A     -0.793899
      16A     -0.734923    17A     -0.706936    18A     -0.696692
      19A     -0.661606    20A     -0.652809    21A     -0.637123
      22A     -0.630742    23A     -0.601101    24A     -0.532836
      25A     -0.479820

  @DF-RHF Final Energy:  -450.66116610793887

   => Energetics <=

    Nuclear Repulsion Energy =            276.7581287340593121
    One-Electron Energy =               -1175.7337927809826397
    Two-Electron Energy =                 448.3144979389844593
    DFT Exchange-Correlation Energy =       0.0000000000000000
    Empirical Dispersion Energy =           0.0000000000000000
    PCM Polarization Energy =               0.0000000000000000
    EFP Energy =                            0.0000000000000000
    Total Energy =                       -450.6611661079389251
    Molecular point group: c1
  Basis Set: 6-31G*
  Basis Set:

  -Total Gradient:
     Atom            X                  Y                   Z
    ------   -----------------  -----------------  -----------------
       1       -0.001603409148     0.001813119468    -0.000694165991
       2        0.001670130578    -0.001841842074     0.001112824994
       3        0.001073532470    -0.001620797742    -0.001283968348
       4        0.000010612105    -0.000038290774     0.000014080645
       5       -0.001143668403     0.001656865247     0.000869276958
       6        0.000001254060    -0.000001858990    -0.000004044504
       7       -0.000009148652    -0.000013074302    -0.000031159641
       8        0.000004430831     0.000017078594     0.000014581973
       9       -0.000003733839     0.000028800570     0.000002573912

  **** Optimization is complete! (in 6 steps) ****
    Final optimized geometry and variables:
    Molecular point group: c1

    Geometry (in Angstrom), charge = 0, multiplicity = 1:

    H           -2.341959661479    -0.008323889351     0.982672371863
    O           -2.026133021603    -0.072386513060     0.093563653142
    C           -0.950709813295     0.786245384549    -0.103782370912
    C            0.352219225520     0.027893428170    -0.034468530360
    H           -1.036853724392     1.244822659556    -1.078984938534
    H           -0.906179355568     1.577927527261     0.635611982560
    F            0.427189131552    -0.921368650937    -0.945009114055
    F            1.369707561146     0.855921025048    -0.226971094742
    F            0.514257259088    -0.537145065462     1.151923192697

  Mulliken Charges: (a.u.)
   Center  Symbol    Alpha    Beta     Spin     Total
       1     H     0.27104  0.27104  0.00000  0.45791
       2     O     4.36182  4.36182  0.00000 -0.72365
       3     C     3.05931  3.05931  0.00000 -0.11862
       4     C     2.45656  2.45656  0.00000  1.08689
       5     H     0.39844  0.39844  0.00000  0.20312
       6     H     0.40969  0.40969  0.00000  0.18061
       7     F     4.67577  4.67577  0.00000 -0.35155
       8     F     4.68420  4.68420  0.00000 -0.36841
       9     F     4.68316  4.68316  0.00000 -0.36632

   Total alpha = 25.00000, Total beta = 25.00000, Total charge = -0.00000
