                              Psi4 1.0.54 Driver

  ==> Input File <==

--------------------------------------------------------------------------
set {
	reference rhf
	basis cc-pvtz
}

set_num_threads( 4 )
memory 2 gb

molecule MOL {
0 1

H	 -3.343788	 -0.008836	 0.651664
O	 -2.554309	 -0.527950	 0.682670
C	 -1.605397	 0.107680	 0.001145
C	 -0.310616	 -0.658853	 0.000791
O	 -1.800108	 1.146774	 -0.528329
C	 0.926581	 0.227233	 0.000178
H	 -0.327628	 -1.313681	 -0.864448
H	 -0.327041	 -1.313334	 0.866298
C	 2.220156	 -0.582071	 -0.000088
H	 0.899945	 0.878221	 -0.866390
H	 0.900542	 0.878581	 0.866486
C	 3.466689	 0.296012	 -0.000457
H	 2.239073	 -1.234095	 -0.869382
H	 2.239505	 -1.233985	 0.869270
H	 3.493549	 0.935857	 -0.875887
H	 4.368821	 -0.304526	 -0.001199
H	 3.494559	 0.935166	 0.875458

	symmetry c1
}
set optking {
	frozen_dihedral = ("
		2 3 4 7
	")
}

ee,wfn = optimize('scf', return_wfn=True)
oeprop( wfn, 'DIPOLE', 'QUADRUPOLE', 'MULLIKEN_CHARGES')
f=open( 'psi4out.xyz', 'w' )
f.write( "17  " )
f.write( str(ee) + "\n" )
f.write( MOL.save_string_xyz() )
f.close()
--------------------------------------------------------------------------

    Molecular point group: c1
  Charge       = 0
  Multiplicity = 1
  Basis Set: CC-PVTZ
  Basis Set:
  @DF-RHF Final Energy:  -345.04775640762216
    Total Energy =                       -345.0477564076225576
    Molecular point group: c1
  Basis Set: CC-PVTZ
  Basis Set:
  Basis Set: CC-PVTZ
  Basis Set:
  @DF-RHF Final Energy:  -345.04800628985532
    Total Energy =                       -345.0480062898551523
  Basis Set: CC-PVTZ
  Basis Set:
  Basis Set: CC-PVTZ
  Basis Set:
  @DF-RHF Final Energy:  -345.04799862750849
    Total Energy =                       -345.0479986275082069
  Basis Set: CC-PVTZ
  Basis Set:
  Basis Set: CC-PVTZ
  Basis Set:
  @DF-RHF Final Energy:  -345.04810494890478
    Total Energy =                       -345.0481049489047791
  Basis Set: CC-PVTZ
  Basis Set:
  Charge       = 0
  Multiplicity = 1
  Basis Set: CC-PVTZ
  Basis Set:

    Orbital Energies (a.u.)
    -----------------------

    Doubly Occupied:

       1A    -20.605441     2A    -20.539273     3A    -11.373801
       4A    -11.238963     5A    -11.223119     6A    -11.221463
       7A    -11.211257     8A     -1.478119     9A     -1.368823
      10A     -1.093260    11A     -1.019671    12A     -0.914308
      13A     -0.825528    14A     -0.794107    15A     -0.705255
      16A     -0.687983    17A     -0.666714    18A     -0.633678
      19A     -0.593533    20A     -0.584442    21A     -0.577855
      22A     -0.538350    23A     -0.511275    24A     -0.487327
      25A     -0.481237    26A     -0.477102    27A     -0.474050
      28A     -0.444446

  @DF-RHF Final Energy:  -345.04810539005479

   => Energetics <=

    Nuclear Repulsion Energy =            304.7744994138773222
    One-Electron Energy =               -1074.1044495740497950
    Two-Electron Energy =                 424.2818447701176865
    DFT Exchange-Correlation Energy =       0.0000000000000000
    Empirical Dispersion Energy =           0.0000000000000000
    PCM Polarization Energy =               0.0000000000000000
    EFP Energy =                            0.0000000000000000
    Total Energy =                       -345.0481053900548432
    Molecular point group: c1
  Basis Set: CC-PVTZ
  Basis Set:

  -Total Gradient:
     Atom            X                  Y                   Z
    ------   -----------------  -----------------  -----------------
       1       -0.000030025914    -0.000014361868     0.000003285124
       2        0.000150607106     0.000468015641     0.000844027401
       3       -0.000088450439    -0.000378622888    -0.001322051046
       4       -0.000473614240    -0.000747171781     0.000974858770
       5       -0.000045471215    -0.000071185574     0.000087135067
       6       -0.000015008405    -0.000030233356    -0.000023013174
       7        0.000496097621     0.000781988427    -0.000578677877
       8       -0.000007157597    -0.000006871253    -0.000003076433
       9        0.000014821580     0.000004245167     0.000014836534
      10        0.000001930420     0.000004291001     0.000000715472
      11       -0.000001735412    -0.000006764495    -0.000000502056
      12       -0.000004127327    -0.000001411448     0.000000362743
      13       -0.000004834383     0.000004173378     0.000002132328
      14        0.000004463112    -0.000006866540     0.000000627540
      15        0.000001173925     0.000000745547     0.000000890643
      16        0.000000448542     0.000001105195    -0.000000054624
      17        0.000000882620    -0.000001075152    -0.000001496410

  **** Optimization is complete! (in 5 steps) ****
    Final optimized geometry and variables:
    Molecular point group: c1

    Geometry (in Angstrom), charge = 0, multiplicity = 1:

    H           -3.380753787522    -0.012637767964     0.515592574054
    O           -2.593816227313    -0.529005601169     0.607293114021
    C           -1.606603329285     0.095724859429    -0.026355233783
    C           -0.315697060528    -0.679014144533     0.015048838359
    O           -1.766070464365     1.135819221105    -0.566553333162
    C            0.919401386054     0.215580089578    -0.003918717708
    H           -0.321746653403    -1.318015424884    -0.864076470327
    H           -0.325008083419    -1.330547360862     0.878328248735
    C            2.217046219631    -0.586372089295    -0.028462899726
    H            0.870480322459     0.868725467573    -0.866144525309
    H            0.907769640480     0.860750761325     0.869456619612
    C            3.458527277208     0.298760734909    -0.038980965667
    H            2.225656705727    -1.229153298686    -0.904676121868
    H            2.252700861142    -1.246541289882     0.833954248330
    H            3.468146066492     0.947603618324    -0.908039796691
    H            4.363658461219    -0.296844853222    -0.059781521209
    H            3.496927471782     0.928877166821     0.843142223068

  Mulliken Charges: (a.u.)
   Center  Symbol    Alpha    Beta     Spin     Total
       1     H     0.38121  0.38121  0.00000  0.23758
       2     O     4.15835  4.15835  0.00000 -0.31669
       3     C     2.80922  2.80922  0.00000  0.38156
       4     C     3.10048  3.10048  0.00000 -0.20097
       5     O     4.19426  4.19426  0.00000 -0.38851
       6     C     3.08736  3.08736  0.00000 -0.17472
       7     H     0.44289  0.44289  0.00000  0.11423
       8     H     0.43623  0.43623  0.00000  0.12754
       9     C     3.08635  3.08635  0.00000 -0.17270
      10     H     0.44007  0.44007  0.00000  0.11985
      11     H     0.45065  0.45065  0.00000  0.09869
      12     C     3.14911  3.14911  0.00000 -0.29822
      13     H     0.45402  0.45402  0.00000  0.09195
      14     H     0.45460  0.45460  0.00000  0.09081
      15     H     0.45314  0.45314  0.00000  0.09372
      16     H     0.44792  0.44792  0.00000  0.10415
      17     H     0.45413  0.45413  0.00000  0.09174

   Total alpha = 28.00000, Total beta = 28.00000, Total charge = -0.00000

*** Psi4 exiting successfully. Buy a developer a beer!
