  ==> Input File <==

--------------------------------------------------------------------------
set {
	reference rhf
	basis cc-pvtz
}

set_num_threads( 4 )
memory 2 gb

molecule MOL {
0 1

H	 -3.642953	 0.223825	 0.000000
C	 -2.571844	 0.155001	 0.000000
C	 -1.957580	 -1.086132	 0.000000
C	 -1.807160	 1.303787	 0.000000
H	 -2.551493	 -1.979629	 0.000000
C	 -0.582719	 -1.174294	 0.000000
H	 -2.279934	 2.266806	 0.000000
C	 -0.427220	 1.213406	 0.000000
H	 -0.094904	 -2.127556	 0.000000
C	 0.196908	 -0.024061	 0.000000
H	 0.151409	 2.115254	 0.000000
C	 1.690041	 -0.173233	 0.000000
C	 2.552151	 1.068308	 -0.000000
O	 2.189215	 -1.253134	 0.000000
H	 2.352057	 1.674380	 -0.875568
H	 3.587462	 0.766876	 -0.000000
H	 2.352057	 1.674380	 0.875568

	symmetry c1
}
set optking {
	frozen_dihedral = ("
		13 12 10 8
	")
}

ee = optimize('scf')
oeprop('DIPOLE', 'QUADRUPOLE', 'MULLIKEN_CHARGES')
f=open( 'psi4out.xyz', 'w' )
f.write( "17  " )
f.write( str(ee) + "\n" )
f.write( MOL.save_string_xyz() )
f.close()
--------------------------------------------------------------------------

    Molecular point group: c1
  Charge       = 0
  Multiplicity = 1
  Basis Set: CC-PVTZ
  Basis Set:

    Orbital Energies (a.u.)
    -----------------------

    Doubly Occupied:

       1A    -20.540304     2A    -11.327763     3A    -11.246959
       4A    -11.244555     5A    -11.242557     6A    -11.238935
       7A    -11.238860     8A    -11.236578     9A    -11.228827
      10A     -1.401696    11A     -1.171200    12A     -1.053453
      13A     -1.030752    14A     -0.998794    15A     -0.864684
      16A     -0.838835    17A     -0.763544    18A     -0.713627
      19A     -0.658515    20A     -0.651968    21A     -0.628806
      22A     -0.609381    23A     -0.602642    24A     -0.601601
      25A     -0.554991    26A     -0.529093    27A     -0.522430
      28A     -0.503523    29A     -0.497785    30A     -0.414447
      31A     -0.351065    32A     -0.346790

  @DF-RHF Final Energy:  -382.60582457124684

   => Energetics <=

    Nuclear Repulsion Energy =            404.5136261743807040
    One-Electron Energy =               -1320.5289798242374673
    Two-Electron Energy =                 533.4095290786100350
    DFT Exchange-Correlation Energy =       0.0000000000000000
    Empirical Dispersion Energy =           0.0000000000000000
    PCM Polarization Energy =               0.0000000000000000
    EFP Energy =                            0.0000000000000000
    Total Energy =                       -382.6058245712466714
    Molecular point group: c1
  Basis Set: CC-PVTZ
  Basis Set:

  -Total Gradient:
     Atom            X                  Y                   Z
    ------   -----------------  -----------------  -----------------
       1        0.000031901815     0.000015663872     0.000000000000
       2        0.000008147016    -0.000130528506     0.000000000001
       3       -0.000086037333     0.000079046718     0.000000000002
       4        0.000110719369     0.000081360401     0.000000000002
       5        0.000018983356     0.000021096002     0.000000000000
       6        0.000020439048     0.000014300378     0.000000000005
       7       -0.000008784856    -0.000042474494    -0.000000000000
       8       -0.000138429958     0.000105463558     0.000000000004
       9        0.000000834981     0.000043949589    -0.000000000000
      10        0.000190131623    -0.000244371576    -0.000000000002
      11       -0.000020719132    -0.000053203735     0.000000000000
      12       -0.000273790652     0.000388717047    -0.000000000019
      13        0.000065014008    -0.000078846852     0.000000000101
      14        0.000104629205    -0.000225574495    -0.000000000000
      15        0.000015558095     0.000006588800     0.000023570415
      16       -0.000054154700     0.000012224550     0.000000000001
      17        0.000015558113     0.000006588743    -0.000023570510

  **** Optimization is complete! (in 1 steps) ****
    Final optimized geometry and variables:
    Molecular point group: c1

    Geometry (in Angstrom), charge = 0, multiplicity = 1:

    H           -3.642952531184     0.223824533638     0.000000000000
    C           -2.571843531184     0.155000533638     0.000000000000
    C           -1.957579531184    -1.086132466362     0.000000000000
    C           -1.807159531184     1.303786533638     0.000000000000
    H           -2.551492531184    -1.979629466362     0.000000000000
    C           -0.582718531184    -1.174294466362     0.000000000000
    H           -2.279933531184     2.266805533638     0.000000000000
    C           -0.427219531184     1.213405533638     0.000000000000
    H           -0.094903531184    -2.127556466362     0.000000000000
    C            0.196908468816    -0.024061466362     0.000000000000
    H            0.151409468816     2.115253533638     0.000000000000
    C            1.690041468816    -0.173233466362     0.000000000000
    C            2.552151468816     1.068307533638     0.000000000000
    O            2.189215468816    -1.253134466362     0.000000000000
    H            2.352057468816     1.674379533638    -0.875568000000
    H            3.587462468816     0.766875533638     0.000000000000
    H            2.352057468816     1.674379533638     0.875568000000

  Mulliken Charges: (a.u.)
   Center  Symbol    Alpha    Beta     Spin     Total
       1     H     0.42018  0.42018  0.00000  0.15964
       2     C     3.07200  3.07200  0.00000 -0.14400
       3     C     3.07508  3.07508  0.00000 -0.15016
       4     C     3.07825  3.07825  0.00000 -0.15650
       5     H     0.42023  0.42023  0.00000  0.15953
       6     C     3.07342  3.07342  0.00000 -0.14683
       7     H     0.42240  0.42240  0.00000  0.15521
       8     C     3.08621  3.08621  0.00000 -0.17242
       9     H     0.40670  0.40670  0.00000  0.18660
      10     C     3.01374  3.01374  0.00000 -0.02749
      11     H     0.42141  0.42141  0.00000  0.15718
      12     C     2.83172  2.83172  0.00000  0.33656
      13     C     3.16802  3.16802  0.00000 -0.33603
      14     O     4.18447  4.18447  0.00000 -0.36894
      15     H     0.44721  0.44721  0.00000  0.10559
      16     H     0.43175  0.43175  0.00000  0.13650
      17     H     0.44721  0.44721  0.00000  0.10559

   Total alpha = 32.00000, Total beta = 32.00000, Total charge =  0.00000
