  ==> Input File <==

--------------------------------------------------------------------------
set {
	reference rhf
	basis 6-31G*
}

set_num_threads( 1 )
memory 2 gb

molecule MOL {
0 1

H	 -1.515952	 0.190181	 4.028123
C	 -2.084756	 -0.407361	 3.304916
C	 -2.345269	 0.269875	 1.983517
O	 -2.447612	 -1.502483	 3.589161
C	 -1.063649	 0.816842	 1.339674
H	 -2.849571	 -0.434175	 1.331826
H	 -3.029454	 1.095275	 2.176549
C	 -0.086360	 -0.276634	 0.900909
H	 -1.340877	 1.419169	 0.479656
H	 -0.569714	 1.492881	 2.035919
C	 1.180775	 0.282413	 0.250794
H	 -0.588522	 -0.943731	 0.203297
H	 0.190292	 -0.889455	 1.756744
C	 2.148627	 -0.814315	 -0.201312
H	 0.897851	 0.901707	 -0.596650
H	 1.687453	 0.940305	 0.955662
C	 3.580890	 -0.659131	 0.322722
H	 2.166869	 -0.852443	 -1.289387
H	 1.762857	 -1.776509	 0.128956
C	 4.324889	 0.564933	 -0.213704
H	 4.142010	 -1.551473	 0.056605
H	 3.564836	 -0.624694	 1.410140
H	 4.342616	 0.565491	 -1.300421
H	 3.866655	 1.493402	 0.110242
H	 5.353900	 0.572371	 0.132816

	symmetry c1
}
set optking {
	frozen_dihedral = ("
		6 3 5 8,
		6 3 2 4,
		3 5 8 12,
		12 8 11 14,
		20 17 14 18
	")
}

ee = energy('scf')
oeprop('DIPOLE', 'QUADRUPOLE', 'MULLIKEN_CHARGES')
f=open( 'psi4out.xyz', 'w' )
f.write( "25  " )
f.write( str(ee) + "\n" )
f.write( MOL.save_string_xyz() )
f.close()
--------------------------------------------------------------------------

    Molecular point group: c1

    Geometry (in Angstrom), charge = 0, multiplicity = 1:

       Center              X                  Y                   Z               Mass
    ------------   -----------------  -----------------  -----------------  -----------------
           H         -1.882289123120     0.386105071032     2.768605553743     1.007825032070
           C         -2.451093123120    -0.211436928968     2.045398553743    12.000000000000
           C         -2.711606123120     0.465799071032     0.723999553743    12.000000000000
           O         -2.813949123120    -1.306558928968     2.329643553743    15.994914619560
           C         -1.429986123120     1.012766071032     0.080156553743    12.000000000000
           H         -3.215908123120    -0.238250928968     0.072308553743     1.007825032070
           H         -3.395791123120     1.291199071032     0.917031553743     1.007825032070
           C         -0.452697123120    -0.080709928968    -0.358608446257    12.000000000000
           H         -1.707214123120     1.615093071032    -0.779861446257     1.007825032070
           H         -0.936051123120     1.688805071032     0.776401553743     1.007825032070
           C          0.814437876880     0.478337071032    -1.008723446257    12.000000000000
           H         -0.954859123120    -0.747806928968    -1.056220446257     1.007825032070
           H         -0.176045123120    -0.693530928968     0.497226553743     1.007825032070
           C          1.782289876880    -0.618390928968    -1.460829446257    12.000000000000
           H          0.531513876880     1.097631071032    -1.856167446257     1.007825032070
           H          1.321115876880     1.136229071032    -0.303855446257     1.007825032070
           C          3.214552876880    -0.463206928968    -0.936795446257    12.000000000000
           H          1.800531876880    -0.656518928968    -2.548904446257     1.007825032070
           H          1.396519876880    -1.580584928968    -1.130561446257     1.007825032070
           C          3.958551876880     0.760857071032    -1.473221446257    12.000000000000
           H          3.775672876880    -1.355548928968    -1.202912446257     1.007825032070
           H          3.198498876880    -0.428769928968     0.150622553743     1.007825032070
           H          3.976278876880     0.761415071032    -2.559938446257     1.007825032070
           H          3.500317876880     1.689326071032    -1.149275446257     1.007825032070
           H          4.987562876880     0.768295071032    -1.126701446257     1.007825032070

  Charge       = 0
  Multiplicity = 1
  Basis Set: 6-31G*
  Basis Set:

    Orbital Energies (a.u.)
    -----------------------

    Doubly Occupied:

       1A    -20.562042     2A    -11.326156     3A    -11.235034
       4A    -11.234453     5A    -11.224297     6A    -11.218644
       7A    -11.218025     8A    -11.215458     9A    -11.210775
      10A     -1.402026    11A     -1.104164    12A     -1.069599
      13A     -1.013037    14A     -0.942274    15A     -0.874775
      16A     -0.823271    17A     -0.788056    18A     -0.779593
      19A     -0.665233    20A     -0.659834    21A     -0.634548
      22A     -0.624095    23A     -0.605297    24A     -0.590898
      25A     -0.574195    26A     -0.554276    27A     -0.532909
      28A     -0.523766    29A     -0.512500    30A     -0.493724
      31A     -0.490120    32A     -0.483296    33A     -0.459666
      34A     -0.456686    35A     -0.441357    36A     -0.409585

  @DF-RHF Final Energy:  -387.11704725497395

   => Energetics <=

    Nuclear Repulsion Energy =            440.9141215090537571
    One-Electron Energy =               -1398.1548721299609497
    Two-Electron Energy =                 570.1237033659326698
    DFT Exchange-Correlation Energy =       0.0000000000000000
    Empirical Dispersion Energy =           0.0000000000000000
    PCM Polarization Energy =               0.0000000000000000
    EFP Energy =                            0.0000000000000000
    Total Energy =                       -387.1170472549745227

  Mulliken Charges: (a.u.)
   Center  Symbol    Alpha    Beta     Spin     Total
       1     H     0.43262  0.43262  0.00000  0.13476
       2     C     2.83091  2.83091  0.00000  0.33819
       3     C     3.20812  3.20812  0.00000 -0.41624
       4     O     4.23779  4.23779  0.00000 -0.47557
       5     C     3.16709  3.16709  0.00000 -0.33417
       6     H     0.39975  0.39975  0.00000  0.20050
       7     H     0.40673  0.40673  0.00000  0.18655
       8     C     3.15810  3.15810  0.00000 -0.31619
       9     H     0.41280  0.41280  0.00000  0.17440
      10     H     0.41961  0.41961  0.00000  0.16077
      11     C     3.15446  3.15446  0.00000 -0.30891
      12     H     0.41739  0.41739  0.00000  0.16522
      13     H     0.41807  0.41807  0.00000  0.16387
      14     C     3.15679  3.15679  0.00000 -0.31358
      15     H     0.42004  0.42004  0.00000  0.15992
      16     H     0.42111  0.42111  0.00000  0.15778
      17     C     3.15430  3.15430  0.00000 -0.30860
      18     H     0.42100  0.42100  0.00000  0.15800
      19     H     0.41744  0.41744  0.00000  0.16513
      20     C     3.24074  3.24074  0.00000 -0.48147
      21     H     0.42058  0.42058  0.00000  0.15884
      22     H     0.42336  0.42336  0.00000  0.15328
      23     H     0.42183  0.42183  0.00000  0.15633
      24     H     0.42073  0.42073  0.00000  0.15854
      25     H     0.41867  0.41867  0.00000  0.16267

   Total alpha = 36.00000, Total beta = 36.00000, Total charge = -0.00000
