  ==> Input File <==

--------------------------------------------------------------------------
set {
	reference rhf
	basis 6-31G*
}

set_num_threads( 4 )
memory 2 gb

molecule MOL {
0 1

H	 3.729471	 -0.928294	 -0.070608
O	 2.826016	 -1.159218	 0.122261
C	 2.077727	 -0.067559	 -0.035091
C	 0.624473	 -0.343591	 0.253101
O	 2.542965	 0.974826	 -0.363729
C	 -0.265902	 0.883932	 0.072916
H	 0.324016	 -1.163849	 -0.390541
H	 0.565024	 -0.726111	 1.268924
C	 -1.728698	 0.646073	 0.462102
H	 -0.209144	 1.219470	 -0.958188
H	 0.135059	 1.692851	 0.673903
C	 -2.243881	 -0.772493	 0.202848
H	 -2.344617	 1.345938	 -0.097892
H	 -1.870169	 0.894400	 1.513043
C	 -3.733357	 -0.921865	 0.512088
H	 -2.063260	 -1.034429	 -0.837733
H	 -1.686668	 -1.489416	 0.800274
H	 -4.074591	 -1.934753	 0.322534
H	 -4.329807	 -0.251372	 -0.099887
H	 -3.942385	 -0.691861	 1.553069

	symmetry c1
}
set optking {
	frozen_dihedral = ("
		12 9 6 10
	")
}

ee = optimize('scf')
oeprop('DIPOLE', 'QUADRUPOLE', 'MULLIKEN_CHARGES')
f=open( 'psi4out.xyz', 'w' )
f.write( "20  " )
f.write( str(ee) + "\n" )
f.write( MOL.save_string_xyz() )
f.close()
--------------------------------------------------------------------------

    Molecular point group: c1
  Charge       = 0
  Multiplicity = 1
  Basis Set: 6-31G*
  Basis Set:
  @DF-RHF Final Energy:  -383.94416880998807
    Total Energy =                       -383.9441688099881844
    Molecular point group: c1
  Basis Set: 6-31G*
  Basis Set:
  Basis Set: 6-31G*
  Basis Set:
  @DF-RHF Final Energy:  -383.94462035815349
    Total Energy =                       -383.9446203581533155
  Basis Set: 6-31G*
  Basis Set:
  Basis Set: 6-31G*
  Basis Set:
  @DF-RHF Final Energy:  -383.94495795437888
    Total Energy =                       -383.9449579543787081
  Basis Set: 6-31G*
  Basis Set:
  Basis Set: 6-31G*
  Basis Set:
  @DF-RHF Final Energy:  -383.94436388983343
    Total Energy =                       -383.9443638898336530
  Basis Set: 6-31G*
  Basis Set:
  @DF-RHF Final Energy:  -383.94504792723825
    Total Energy =                       -383.9450479272385337
  Basis Set: 6-31G*
  Basis Set:
  @DF-RHF Final Energy:  -383.94504389337555
    Total Energy =                       -383.9450438933757255
  Basis Set: 6-31G*
  Basis Set:
  Basis Set: 6-31G*
  Basis Set:
  @DF-RHF Final Energy:  -383.94505164439494
    Total Energy =                       -383.9450516443948800
  Basis Set: 6-31G*
  Basis Set:
  Basis Set: 6-31G*
  Basis Set:
  @DF-RHF Final Energy:  -383.94505706477156
    Total Energy =                       -383.9450570647716177
  Basis Set: 6-31G*
  Basis Set:
  Charge       = 0
  Multiplicity = 1
  Basis Set: 6-31G*
  Basis Set:

    Orbital Energies (a.u.)
    -----------------------

    Doubly Occupied:

       1A    -20.612555     2A    -20.551739     3A    -11.381294
       4A    -11.240754     5A    -11.222590     6A    -11.221089
       7A    -11.220294     8A    -11.212585     9A     -1.474683
      10A     -1.365740    11A     -1.095053    12A     -1.040632
      13A     -0.961091    14A     -0.869877    15A     -0.820853
      16A     -0.770055    17A     -0.699705    18A     -0.689519
      19A     -0.666852    20A     -0.636986    21A     -0.596357
      22A     -0.594422    23A     -0.579764    24A     -0.553381
      25A     -0.538979    26A     -0.518047    27A     -0.496757
      28A     -0.479127    29A     -0.470937    30A     -0.463001
      31A     -0.454622    32A     -0.444143

  @DF-RHF Final Energy:  -383.94505713689750

   => Energetics <=

    Nuclear Repulsion Energy =            376.8018381659527449
    One-Electron Energy =               -1269.6068191745430340
    Two-Electron Energy =                 508.8599238716931268
    DFT Exchange-Correlation Energy =       0.0000000000000000
    Empirical Dispersion Energy =           0.0000000000000000
    PCM Polarization Energy =               0.0000000000000000
    EFP Energy =                            0.0000000000000000
    Total Energy =                       -383.9450571368971623
    Molecular point group: c1
  Basis Set: 6-31G*
  Basis Set:

  -Total Gradient:
     Atom            X                  Y                   Z
    ------   -----------------  -----------------  -----------------
       1        0.000004841922    -0.000002677613     0.000001267100
       2        0.000004191225     0.000005944247    -0.000012634790
       3       -0.000017157695     0.000012023888     0.000031783163
       4        0.000012134952    -0.000015070867    -0.000019367423
       5        0.000011926897    -0.000001137167    -0.000010463146
       6        0.001024189724    -0.007611385926    -0.000628436103
       7        0.000007799928     0.000003851015     0.000006050893
       8       -0.000003598436     0.000003009264     0.000000691995
       9       -0.001962651446     0.003266881635    -0.005357554963
      10       -0.000345787940     0.005642459002     0.001943364569
      11       -0.000008965924     0.000003503997    -0.000005060367
      12        0.001279519305    -0.001312047844     0.004042434486
      13        0.000003902460     0.000007813991     0.000005729968
      14       -0.000002017799    -0.000009586417    -0.000000472157
      15        0.000003200124     0.000005324605     0.000009506737
      16       -0.000001684431     0.000003347714    -0.000003995584
      17       -0.000009240987    -0.000001995904    -0.000002960348
      18        0.000004464115    -0.000000689160     0.000003042948
      19       -0.000002357783    -0.000003273137    -0.000002453463
      20       -0.000002708223     0.000003704673    -0.000000473515

  **** Optimization is complete! (in 9 steps) ****
    Final optimized geometry and variables:
    Molecular point group: c1

    Geometry (in Angstrom), charge = 0, multiplicity = 1:

    H            3.727728565243    -0.737747097654    -0.199388637736
    O            2.832664380122    -0.995761490540    -0.001838652615
    C            2.047309894467     0.066217721885    -0.180595759323
    C            0.604316389438    -0.256514683635     0.112682001237
    O            2.476837953032     1.117207566499    -0.529624156401
    C           -0.322099318035     0.937438393003    -0.092928699251
    H            0.333940638014    -1.098957144423    -0.514990888200
    H            0.560201335187    -0.621480655740     1.135450741211
    C           -1.794008422820     0.709707825127     0.301829361753
    H           -0.259165010199     1.292439886718    -1.116527045174
    H            0.059809550727     1.764924256521     0.496278820128
    C           -2.364334141963    -0.686464318866     0.032327216220
    H           -2.402828811468     1.452793637261    -0.205618209668
    H           -1.904854096805     0.909884107497     1.366191688277
    C           -3.851807674476    -0.779191826071     0.371985039545
    H           -2.219627594457    -0.951747822590    -1.013623711363
    H           -1.822547106487    -1.426082186739     0.614616677229
    H           -4.234568145154    -1.778764975650     0.191190062056
    H           -4.435290155106    -0.087275827512    -0.228423654685
    H           -4.030246074699    -0.540561421115     1.416760928430

  Mulliken Charges: (a.u.)
   Center  Symbol    Alpha    Beta     Spin     Total
       1     H     0.26781  0.26781  0.00000  0.46438
       2     O     4.35176  4.35176  0.00000 -0.70352
       3     C     2.62168  2.62168  0.00000  0.75664
       4     C     3.21451  3.21451  0.00000 -0.42902
       5     O     4.27908  4.27908  0.00000 -0.55815
       6     C     3.15662  3.15662  0.00000 -0.31324
       7     H     0.39601  0.39601  0.00000  0.20798
       8     H     0.39860  0.39860  0.00000  0.20280
       9     C     3.15396  3.15396  0.00000 -0.30792
      10     H     0.41082  0.41082  0.00000  0.17835
      11     H     0.40845  0.40845  0.00000  0.18311
      12     C     3.15741  3.15741  0.00000 -0.31483
      13     H     0.41757  0.41757  0.00000  0.16485
      14     H     0.42243  0.42243  0.00000  0.15515
      15     C     3.23914  3.23914  0.00000 -0.47828
      16     H     0.42264  0.42264  0.00000  0.15472
      17     H     0.42148  0.42148  0.00000  0.15703
      18     H     0.41834  0.41834  0.00000  0.16333
      19     H     0.42055  0.42055  0.00000  0.15889
      20     H     0.42113  0.42113  0.00000  0.15773

   Total alpha = 32.00000, Total beta = 32.00000, Total charge =  0.00000
