                              Psi4 1.0.54 Driver

  ==> Input File <==

--------------------------------------------------------------------------
set {
	reference rhf
	basis cc-pvtz
}

set_num_threads( 4 )
memory 2 gb

molecule MOL {
0 1

H	 -2.362939	 -1.309000	 -0.383250
C	 -1.359344	 -1.272457	 0.020748
C	 -0.684082	 0.000127	 -0.464918
H	 -0.825835	 -2.151141	 -0.318537
H	 -1.416276	 -1.292399	 1.099455
C	 -1.359089	 1.272668	 0.021259
N	 0.742439	 -0.000109	 0.007333
H	 -0.596914	 0.000345	 -1.538146
H	 -2.362696	 1.309620	 -0.382686
H	 -0.825392	 2.151374	 -0.317674
H	 -1.415983	 1.292181	 1.099973
O	 1.372168	 -0.988998	 -0.163499
O	 1.148466	 0.988674	 0.520889

	symmetry c1
}
set optking {
	frozen_dihedral = ("
		12 7 3 8
	")
}

ee,wfn = optimize('scf', return_wfn=True)
oeprop( wfn, 'DIPOLE', 'QUADRUPOLE', 'MULLIKEN_CHARGES')
f=open( 'psi4out.xyz', 'w' )
f.write( "13  " )
f.write( str(ee) + "\n" )
f.write( MOL.save_string_xyz() )
f.close()
--------------------------------------------------------------------------

    Molecular point group: c1
  Charge       = 0
  Multiplicity = 1
  Basis Set: CC-PVTZ
  Basis Set:
  @DF-RHF Final Energy:  -321.86165490954897
    Total Energy =                       -321.8616549095488608
    Molecular point group: c1
  Basis Set: CC-PVTZ
  Basis Set:
  Basis Set: CC-PVTZ
  Basis Set:
  @DF-RHF Final Energy:  -321.86148009342480
    Total Energy =                       -321.8614800934244613
  Basis Set: CC-PVTZ
  Basis Set:
  Basis Set: CC-PVTZ
  Basis Set:
  @DF-RHF Final Energy:  -321.85848362950145
    Total Energy =                       -321.8584836295013361
  Basis Set: CC-PVTZ
  Basis Set:
  Basis Set: CC-PVTZ
  Basis Set:
  @DF-RHF Final Energy:  -321.86231392368944
    Total Energy =                       -321.8623139236892712
  Basis Set: CC-PVTZ
  Basis Set:
  Basis Set: CC-PVTZ
  Basis Set:
  @DF-RHF Final Energy:  -321.86245170451673
    Total Energy =                       -321.8624517045165021
  Basis Set: CC-PVTZ
  Basis Set:
  Basis Set: CC-PVTZ
  Basis Set:
  @DF-RHF Final Energy:  -321.86254021200398
    Total Energy =                       -321.8625402120038643
  Basis Set: CC-PVTZ
  Basis Set:
  Basis Set: CC-PVTZ
  Basis Set:
  @DF-RHF Final Energy:  -321.86254311042018
    Total Energy =                       -321.8625431104200629
  Basis Set: CC-PVTZ
  Basis Set:
  Charge       = 0
  Multiplicity = 1
  Basis Set: CC-PVTZ
  Basis Set:

    Orbital Energies (a.u.)
    -----------------------

    Doubly Occupied:

       1A    -20.590971     2A    -20.586041     3A    -15.833836
       4A    -11.306681     5A    -11.240595     6A    -11.237289
       7A     -1.634483     8A     -1.418212     9A     -1.140009
      10A     -0.968299    11A     -0.958194    12A     -0.815040
      13A     -0.764069    14A     -0.730140    15A     -0.723457
      16A     -0.641065    17A     -0.594873    18A     -0.586953
      19A     -0.570330    20A     -0.523237    21A     -0.521442
      22A     -0.483744    23A     -0.472451    24A     -0.451854

  @DF-RHF Final Energy:  -321.86254405960022

   => Energetics <=

    Nuclear Repulsion Energy =            257.2726906724691958
    One-Electron Energy =                -948.6839328526023110
    Two-Electron Energy =                 369.5486981205332313
    DFT Exchange-Correlation Energy =       0.0000000000000000
    Empirical Dispersion Energy =           0.0000000000000000
    PCM Polarization Energy =               0.0000000000000000
    EFP Energy =                            0.0000000000000000
    Total Energy =                       -321.8625440595998271
    Molecular point group: c1
  Basis Set: CC-PVTZ
  Basis Set:

  -Total Gradient:
     Atom            X                  Y                   Z
    ------   -----------------  -----------------  -----------------
       1        0.000001334649     0.000010436813    -0.000008810609
       2        0.000027623555    -0.000003061422     0.000031802751
       3       -0.000123477154    -0.001571859573     0.000363802881
       4        0.000013010217    -0.000029611429    -0.000000611348
       5       -0.000003438493    -0.000008970698    -0.000000185362
       6       -0.000015230668     0.000014618607    -0.000008234245
       7        0.000451875090     0.000690938090    -0.001533136213
       8        0.000006638059     0.001247145282     0.000010919974
       9        0.000001845627     0.000015727444     0.000007636211
      10       -0.000008449150     0.000011366634     0.000005007873
      11       -0.000005964776     0.000004171890     0.000001503220
      12       -0.000374269727    -0.000365758566     0.001130331959
      13        0.000028502770    -0.000015143073    -0.000000027093

  **** Optimization is complete! (in 8 steps) ****
    Final optimized geometry and variables:
    Molecular point group: c1

    Geometry (in Angstrom), charge = 0, multiplicity = 1:

    H           -2.360019605333    -1.308798659872    -0.377029203842
    C           -1.348357101860    -1.288260599793     0.006686838335
    C           -0.682657760268     0.000931586376    -0.449741963434
    H           -0.820075933030    -2.155395979874    -0.354808878237
    H           -1.395804086938    -1.332889507460     1.088136646643
    C           -1.415092265964     1.251700826247    -0.003034835337
    N            0.752743278323     0.013172613164     0.024196668721
    H           -0.573332229336     0.001685687908    -1.526161093328
    H           -2.417050929500     1.219860149986    -0.412637926722
    H           -0.927260312025     2.147675040660    -0.353531592688
    H           -1.486520229352     1.300587680589     1.075086043353
    O            1.379867070993    -0.977628229504    -0.153150087251
    O            1.175365283625     1.000845151976     0.520887887501

  Mulliken Charges: (a.u.)
   Center  Symbol    Alpha    Beta     Spin     Total
       1     H     0.45020  0.45020  0.00000  0.09960
       2     C     3.14424  3.14424  0.00000 -0.28847
       3     C     3.00664  3.00664  0.00000 -0.01328
       4     H     0.43052  0.43052  0.00000  0.13895
       5     H     0.44659  0.44659  0.00000  0.10682
       6     C     3.14236  3.14236  0.00000 -0.28473
       7     N     3.27534  3.27534  0.00000  0.44932
       8     H     0.43028  0.43028  0.00000  0.13945
       9     H     0.45045  0.45045  0.00000  0.09909
      10     H     0.43497  0.43497  0.00000  0.13005
      11     H     0.44404  0.44404  0.00000  0.11191
      12     O     4.17491  4.17491  0.00000 -0.34982
      13     O     4.16945  4.16945  0.00000 -0.33890

   Total alpha = 24.00000, Total beta = 24.00000, Total charge = -0.00000

*** Psi4 exiting successfully. Buy a developer a beer!
