  ==> Input File <==

--------------------------------------------------------------------------
set {
	reference rhf
	basis 6-31G*
}

set_num_threads( 4 )
memory 2 gb

molecule MOL {
0 1

H	 1.244178	 -1.076751	 0.292177
O	 1.281670	 -0.557320	 -0.499428
C	 0.675820	 0.679820	 -0.261954
C	 -0.793441	 0.596080	 0.058728
H	 0.819011	 1.264657	 -1.163434
H	 1.186350	 1.213323	 0.539144
C	 -1.530462	 -0.493172	 -0.025500
H	 -1.243553	 1.524007	 0.376271
H	 -1.092586	 -1.461565	 -0.186463
H	 -2.602122	 -0.450675	 0.050101

	symmetry c1
}
set optking {
	frozen_dihedral = ("
		3 4 7 9
	")
}

ee = optimize('scf')
oeprop('DIPOLE', 'QUADRUPOLE', 'MULLIKEN_CHARGES')
f=open( 'psi4out.xyz', 'w' )
f.write( "10  " )
f.write( str(ee) + "\n" )
f.write( MOL.save_string_xyz() )
f.close()
--------------------------------------------------------------------------

    Molecular point group: c1
  Charge       = 0
  Multiplicity = 1
  Basis Set: 6-31G*
  Basis Set:
  @DF-RHF Final Energy:  -191.91440461861873
    Total Energy =                       -191.9144046186187325
    Molecular point group: c1
  Basis Set: 6-31G*
  Basis Set:
  Basis Set: 6-31G*
  Basis Set:
  @DF-RHF Final Energy:  -191.91614457776524
    Total Energy =                       -191.9161445777652943
  Basis Set: 6-31G*
  Basis Set:
  Basis Set: 6-31G*
  Basis Set:
  @DF-RHF Final Energy:  -191.91623763882274
    Total Energy =                       -191.9162376388227074
  Basis Set: 6-31G*
  Basis Set:
  Basis Set: 6-31G*
  Basis Set:
  @DF-RHF Final Energy:  -191.91624553700655
    Total Energy =                       -191.9162455370066027
  Basis Set: 6-31G*
  Basis Set:
  Basis Set: 6-31G*
  Basis Set:
  @DF-RHF Final Energy:  -191.91624692066489
    Total Energy =                       -191.9162469206648325
  Basis Set: 6-31G*
  Basis Set:
  Charge       = 0
  Multiplicity = 1
  Basis Set: 6-31G*
  Basis Set:

    Orbital Energies (a.u.)
    -----------------------

    Doubly Occupied:

       1A    -20.560586     2A    -11.278349     3A    -11.230518
       4A    -11.219389     5A     -1.369017     6A     -1.057688
       7A     -0.928162     8A     -0.768606     9A     -0.687866
      10A     -0.660814    11A     -0.614855    12A     -0.571091
      13A     -0.538987    14A     -0.490703    15A     -0.447660
      16A     -0.364187

  @DF-RHF Final Energy:  -191.91624696956174

   => Energetics <=

    Nuclear Repulsion Energy =            119.3050449468225054
    One-Electron Energy =                -496.8656266750232930
    Two-Electron Energy =                 185.6443347586390473
    DFT Exchange-Correlation Energy =       0.0000000000000000
    Empirical Dispersion Energy =           0.0000000000000000
    PCM Polarization Energy =               0.0000000000000000
    EFP Energy =                            0.0000000000000000
    Total Energy =                       -191.9162469695617119
    Molecular point group: c1
  Basis Set: 6-31G*
  Basis Set:

  -Total Gradient:
     Atom            X                  Y                   Z
    ------   -----------------  -----------------  -----------------
       1        0.000002115206    -0.000003902475    -0.000001617404
       2       -0.000014741448    -0.000002771362     0.000009635197
       3       -0.001025033486     0.001300172934    -0.004209369631
       4        0.001943500377    -0.002669395578     0.009492251195
       5       -0.000007803045     0.000003572255     0.000005573052
       6        0.000000514006     0.000006338485     0.000004632388
       7       -0.001433151633     0.002551264797    -0.011215465554
       8        0.000003378822    -0.000004654522     0.000011506315
       9        0.000535689044    -0.001187748329     0.005924419028
      10       -0.000004467848     0.000007123796    -0.000021564585

  **** Optimization is complete! (in 6 steps) ****
    Final optimized geometry and variables:
    Molecular point group: c1

    Geometry (in Angstrom), charge = 0, multiplicity = 1:

    H            1.294244641929    -1.083324634066     0.518878001598
    O            1.305883579911    -0.587233684126    -0.288251492190
    C            0.693094319588     0.650861663389    -0.072314614928
    C           -0.773312115351     0.564381894045     0.260752780946
    H            0.813290932695     1.212734029425    -0.991309790158
    H            1.214032583038     1.209228737746     0.704895655266
    C           -1.526401749770    -0.507445606087     0.113853321578
    H           -1.228559392600     1.500909043409     0.544318284044
    H           -1.106335920257    -1.469592187857    -0.116613834635
    H           -2.582249225808    -0.477759225954     0.315259088547

  Mulliken Charges: (a.u.)
   Center  Symbol    Alpha    Beta     Spin     Total
       1     H     0.28094  0.28094  0.00000  0.43813
       2     O     4.36679  4.36679  0.00000 -0.73359
       3     C     2.99975  2.99975  0.00000  0.00050
       4     C     3.09657  3.09657  0.00000 -0.19314
       5     H     0.40737  0.40737  0.00000  0.18526
       6     H     0.42635  0.42635  0.00000  0.14730
       7     C     3.19236  3.19236  0.00000 -0.38472
       8     H     0.41086  0.41086  0.00000  0.17829
       9     H     0.40746  0.40746  0.00000  0.18507
      10     H     0.41155  0.41155  0.00000  0.17691

   Total alpha = 16.00000, Total beta = 16.00000, Total charge =  0.00000
