  ==> Input File <==

--------------------------------------------------------------------------
set {
	reference rhf
	basis 6-31G*
}

set_num_threads( 4 )
memory 2 gb

molecule MOL {
0 1

H	 -3.420663	 1.227371	 -1.044276
O	 -3.452007	 0.283848	 -0.965577
C	 -3.181085	 -0.079926	 0.364119
C	 -1.765924	 0.277073	 0.805136
H	 -3.327791	 -1.152017	 0.410903
H	 -3.905698	 0.375695	 1.036898
C	 -0.677594	 -0.417312	 -0.014550
H	 -1.637766	 1.358238	 0.744969
H	 -1.659588	 0.017670	 1.857098
C	 0.738335	 -0.034840	 0.421385
H	 -0.814977	 -0.178223	 -1.064632
H	 -0.802730	 -1.495410	 0.071702
C	 1.822265	 -0.738362	 -0.399735
H	 0.853533	 1.043532	 0.342250
H	 0.871597	 -0.279636	 1.474438
C	 1.744465	 -2.269355	 -0.386991
H	 2.802716	 -0.426391	 -0.043245
H	 1.753165	 -0.398193	 -1.430912
C	 2.010131	 -2.908245	 0.977430
H	 2.468671	 -2.656723	 -1.099564
H	 0.767005	 -2.582766	 -0.748306
H	 2.976417	 -2.602421	 1.369735
H	 2.013166	 -3.991353	 0.901896
H	 1.255343	 -2.635947	 1.707713

	symmetry c1
}
set optking {
	frozen_dihedral = ("
		17 13 10 7
	")
}

ee = optimize('scf')
oeprop('DIPOLE', 'QUADRUPOLE', 'MULLIKEN_CHARGES')
f=open( 'psi4out.xyz', 'w' )
f.write( "24  " )
f.write( str(ee) + "\n" )
f.write( MOL.save_string_xyz() )
f.close()
--------------------------------------------------------------------------

    Molecular point group: c1
  Charge       = 0
  Multiplicity = 1
  Basis Set: 6-31G*
  Basis Set:
  @DF-RHF Final Energy:  -349.24497568903359
    Total Energy =                       -349.2449756890335948
    Molecular point group: c1
  Basis Set: 6-31G*
  Basis Set:
  Basis Set: 6-31G*
  Basis Set:
  @DF-RHF Final Energy:  -349.24561634933804
    Total Energy =                       -349.2456163493379790
  Basis Set: 6-31G*
  Basis Set:
  Basis Set: 6-31G*
  Basis Set:
  @DF-RHF Final Energy:  -349.24602736291700
    Total Energy =                       -349.2460273629167773
  Basis Set: 6-31G*
  Basis Set:
  Basis Set: 6-31G*
  Basis Set:
  @DF-RHF Final Energy:  -349.24605144398390
    Total Energy =                       -349.2460514439837880
  Basis Set: 6-31G*
  Basis Set:
  Basis Set: 6-31G*
  Basis Set:
  @DF-RHF Final Energy:  -349.24605679926657
    Total Energy =                       -349.2460567992664551
  Basis Set: 6-31G*
  Basis Set:
  Basis Set: 6-31G*
  Basis Set:
  @DF-RHF Final Energy:  -349.24605930844984
    Total Energy =                       -349.2460593084496168
  Basis Set: 6-31G*
  Basis Set:
  Charge       = 0
  Multiplicity = 1
  Basis Set: 6-31G*
  Basis Set:

    Orbital Energies (a.u.)
    -----------------------

    Doubly Occupied:

       1A    -20.553694     2A    -11.267826     3A    -11.217680
       4A    -11.212795     5A    -11.212562     6A    -11.211871
       7A    -11.210995     8A    -11.207139     9A     -1.360302
      10A     -1.088745    11A     -1.046274    12A     -0.984123
      13A     -0.916664    14A     -0.853367    15A     -0.809578
      16A     -0.761225    17A     -0.680155    18A     -0.652696
      19A     -0.622808    20A     -0.619006    21A     -0.610002
      22A     -0.573775    23A     -0.555648    24A     -0.545085
      25A     -0.521554    26A     -0.510006    27A     -0.493933
      28A     -0.475525    29A     -0.469258    30A     -0.460554
      31A     -0.450842    32A     -0.444938    33A     -0.420427

  @DF-RHF Final Energy:  -349.24605945196811

   => Energetics <=

    Nuclear Repulsion Energy =            391.9640032102116720
    One-Electron Energy =               -1250.3780180289465989
    Two-Electron Energy =                 509.1679553667667619
    DFT Exchange-Correlation Energy =       0.0000000000000000
    Empirical Dispersion Energy =           0.0000000000000000
    PCM Polarization Energy =               0.0000000000000000
    EFP Energy =                            0.0000000000000000
    Total Energy =                       -349.2460594519681649
    Molecular point group: c1
  Basis Set: 6-31G*
  Basis Set:

  -Total Gradient:
     Atom            X                  Y                   Z
    ------   -----------------  -----------------  -----------------
       1        0.000002335696    -0.000007390984     0.000007456175
       2        0.000022498861    -0.000024573020    -0.000013547971
       3       -0.000002580066     0.000051277112    -0.000000967818
       4        0.000000910416    -0.000030777721     0.000020682280
       5        0.000001114848     0.000003341926    -0.000000315627
       6        0.000003692819     0.000001841873     0.000002732949
       7        0.000000929995    -0.000641502692     0.000503911236
       8       -0.000012624187    -0.000003638677     0.000001987522
       9        0.000001115934    -0.000004482885     0.000008817433
      10       -0.000008335646     0.000726970092    -0.000612600601
      11       -0.000010302030    -0.000000796019    -0.000026185649
      12        0.000004867426     0.000000743566     0.000011820201
      13        0.000009285233     0.000820191267    -0.000632425718
      14        0.000000721150    -0.000007612299    -0.000008005839
      15        0.000026348578    -0.000002735121    -0.000007071802
      16       -0.000063571443    -0.000012903911     0.000006765757
      17        0.000022915416    -0.000853095353     0.000720840344
      18       -0.000016350547     0.000012781820     0.000020434416
      19        0.000015764152    -0.000010611034    -0.000001354348
      20       -0.000000982251     0.000009869457     0.000015547562
      21       -0.000003631463    -0.000023177543    -0.000014746725
      22        0.000000470135     0.000000898848     0.000003186126
      23        0.000002889193    -0.000000685809     0.000001814312
      24        0.000002517792    -0.000003932896    -0.000008774213

  **** Optimization is complete! (in 7 steps) ****
    Final optimized geometry and variables:
    Molecular point group: c1

    Geometry (in Angstrom), charge = 0, multiplicity = 1:

    H           -3.008380616071     1.905887962707    -1.199679764727
    O           -3.067104491371     0.972679743419    -1.047936731477
    C           -2.797717958924     0.704928652697     0.304676261263
    C           -1.370115885232     1.053932035544     0.710289402445
    H           -2.974494333402    -0.355642574197     0.434579441950
    H           -3.504536948826     1.231525397832     0.943670033340
    C           -0.306887815245     0.274226475121    -0.065216684404
    H           -1.213846093129     2.124229935355     0.573278860272
    H           -1.262108945342     0.866495647411     1.777384441081
    C            1.118530629696     0.647508825702     0.350023724846
    H           -0.439218000599     0.451783656877    -1.128524496495
    H           -0.473595231095    -0.788880130431     0.089641744587
    C            2.224600175210    -0.009665535369    -0.486481143773
    H            1.237140261503     1.726587410238     0.272741237194
    H            1.260302114508     0.408824782188     1.401812147932
    C            2.230111645508    -1.543851667631    -0.518155436486
    H            3.186981680645     0.325666342717    -0.104191866839
    H            2.155009834689     0.357027050310    -1.508427372148
    C            2.423474457504    -2.201577736993     0.849237521795
    H            3.035513644701    -1.862440404083    -1.175513437483
    H            1.313767323838    -1.911867221113    -0.970994367309
    H            3.331698063316    -1.846634327062     1.329137082809
    H            2.502179670015    -3.279967865584     0.751274972600
    H            1.594967547317    -1.995854118014     1.519466791410

  Mulliken Charges: (a.u.)
   Center  Symbol    Alpha    Beta     Spin     Total
       1     H     0.28337  0.28337  0.00000  0.43327
       2     O     4.36828  4.36828  0.00000 -0.73656
       3     C     2.99603  2.99603  0.00000  0.00793
       4     C     3.16886  3.16886  0.00000 -0.33772
       5     H     0.41647  0.41647  0.00000  0.16706
       6     H     0.42815  0.42815  0.00000  0.14370
       7     C     3.15410  3.15410  0.00000 -0.30820
       8     H     0.42817  0.42817  0.00000  0.14367
       9     H     0.42245  0.42245  0.00000  0.15510
      10     C     3.15533  3.15533  0.00000 -0.31066
      11     H     0.41274  0.41274  0.00000  0.17452
      12     H     0.42152  0.42152  0.00000  0.15696
      13     C     3.15242  3.15242  0.00000 -0.30483
      14     H     0.42323  0.42323  0.00000  0.15354
      15     H     0.42318  0.42318  0.00000  0.15364
      16     C     3.15522  3.15522  0.00000 -0.31045
      17     H     0.42333  0.42333  0.00000  0.15333
      18     H     0.42217  0.42217  0.00000  0.15565
      19     C     3.24113  3.24113  0.00000 -0.48227
      20     H     0.42110  0.42110  0.00000  0.15780
      21     H     0.41974  0.41974  0.00000  0.16051
      22     H     0.42246  0.42246  0.00000  0.15507
      23     H     0.41924  0.41924  0.00000  0.16152
      24     H     0.42129  0.42129  0.00000  0.15742

   Total alpha = 33.00000, Total beta = 33.00000, Total charge =  0.00000
