  ==> Input File <==

--------------------------------------------------------------------------
set {
	reference rhf
	basis 6-31G*
}

set_num_threads( 4 )
memory 2 gb

molecule MOL {
0 1

H	 2.418451	 0.533962	 1.169921
O	 1.558160	 0.130095	 1.229738
C	 1.050492	 0.053836	 0.000068
C	 -0.318135	 -0.576402	 0.000164
O	 1.640143	 0.447487	 -0.953005
C	 -1.454360	 0.441875	 -0.000474
H	 -0.374042	 -1.230163	 -0.866135
H	 -0.374274	 -1.229227	 0.867154
C	 -2.826123	 -0.230780	 0.000056
H	 -1.357605	 1.085198	 -0.868380
H	 -1.357504	 1.086451	 0.866496
H	 -2.959731	 -0.858053	 -0.876869
H	 -3.619374	 0.509403	 -0.000080
H	 -2.959371	 -0.857318	 0.877556

	symmetry c1
}
set optking {
	frozen_dihedral = ("
		2 3 4 7
	")
}

ee = optimize('scf')
oeprop('DIPOLE', 'QUADRUPOLE', 'MULLIKEN_CHARGES')
f=open( 'psi4out.xyz', 'w' )
f.write( "14  " )
f.write( str(ee) + "\n" )
f.write( MOL.save_string_xyz() )
f.close()
--------------------------------------------------------------------------

    Molecular point group: c1
  Charge       = 0
  Multiplicity = 1
  Basis Set: 6-31G*
  Basis Set:
  @DF-RHF Final Energy:  -305.87837657178801
    Total Energy =                       -305.8783765717878396
    Molecular point group: c1
  Basis Set: 6-31G*
  Basis Set:
  Basis Set: 6-31G*
  Basis Set:
  @DF-RHF Final Energy:  -305.87889635947602
    Total Energy =                       -305.8788963594760730
  Basis Set: 6-31G*
  Basis Set:
  Basis Set: 6-31G*
  Basis Set:
  @DF-RHF Final Energy:  -305.87753840226719
    Total Energy =                       -305.8775384022670778
  Basis Set: 6-31G*
  Basis Set:
  Basis Set: 6-31G*
  Basis Set:
  @DF-RHF Final Energy:  -305.87910297182918
    Total Energy =                       -305.8791029718292975
  Basis Set: 6-31G*
  Basis Set:
  Basis Set: 6-31G*
  Basis Set:
  @DF-RHF Final Energy:  -305.87910765973601
    Total Energy =                       -305.8791076597361780
  Basis Set: 6-31G*
  Basis Set:
  Charge       = 0
  Multiplicity = 1
  Basis Set: 6-31G*
  Basis Set:

    Orbital Energies (a.u.)
    -----------------------

    Doubly Occupied:

       1A    -20.614378     2A    -20.548800     3A    -11.380338
       4A    -11.239338     5A    -11.235568     6A    -11.220972
       7A     -1.474583     8A     -1.364515     9A     -1.086066
      10A     -0.979599    11A     -0.853284    12A     -0.806097
      13A     -0.702139    14A     -0.686246    15A     -0.644202
      16A     -0.633492    17A     -0.593795    18A     -0.568891
      19A     -0.552688    20A     -0.515612    21A     -0.497953
      22A     -0.488801    23A     -0.470692    24A     -0.439300

  @DF-RHF Final Energy:  -305.87910776684089

   => Energetics <=

    Nuclear Repulsion Energy =            240.2586718171791915
    One-Electron Energy =                -893.0808585292090811
    Two-Electron Energy =                 346.9430789451889723
    DFT Exchange-Correlation Energy =       0.0000000000000000
    Empirical Dispersion Energy =           0.0000000000000000
    PCM Polarization Energy =               0.0000000000000000
    EFP Energy =                            0.0000000000000000
    Total Energy =                       -305.8791077668408889
    Molecular point group: c1
  Basis Set: 6-31G*
  Basis Set:

  -Total Gradient:
     Atom            X                  Y                   Z
    ------   -----------------  -----------------  -----------------
       1       -0.000012397474     0.000009531722    -0.000008244871
       2        0.000089118278    -0.000221798403    -0.000001539609
       3       -0.000099264930     0.000235220338     0.000000400664
       4       -0.000083533453     0.000195116075    -0.000175783302
       5       -0.000011546496    -0.000008569889     0.000013107229
       6        0.000012786729    -0.000002014532     0.000031434944
       7        0.000103997146    -0.000215641471     0.000147032188
       8       -0.000000661556     0.000003055078    -0.000003192998
       9       -0.000003482955    -0.000005492290    -0.000013490039
      10        0.000008925905     0.000000121597     0.000016107218
      11       -0.000012502345     0.000003558723     0.000000801721
      12        0.000004177802    -0.000005861001     0.000002129289
      13       -0.000001213950     0.000003158216    -0.000007980009
      14        0.000005597293     0.000009615838    -0.000000782425

  **** Optimization is complete! (in 6 steps) ****
    Final optimized geometry and variables:
    Molecular point group: c1

    Geometry (in Angstrom), charge = 0, multiplicity = 1:

    H            2.456856905101     0.517610696492     1.068858565324
    O            1.626772309770     0.057877645615     1.151835609220
    C            1.066419565064    -0.002674745125    -0.054414453828
    C           -0.283479832217    -0.671292865145    -0.039726164816
    O            1.587104233752     0.458680011238    -1.018223173208
    C           -1.409497506618     0.374242247932    -0.057145242476
    H           -0.345831550361    -1.294491607225    -0.924072449129
    H           -0.367556305623    -1.302433214447     0.836282442580
    C           -2.792244971801    -0.273699010390    -0.078606067851
    H           -1.284489320282     1.009533527189    -0.927754556748
    H           -1.319231162589     1.013166119559     0.817074395120
    H           -2.918134520649    -0.899002880420    -0.957481420300
    H           -3.571950896499     0.480641332189    -0.093939107478
    H           -2.949117552649    -0.895503075130     0.797789624996

  Mulliken Charges: (a.u.)
   Center  Symbol    Alpha    Beta     Spin     Total
       1     H     0.26814  0.26814  0.00000  0.46372
       2     O     4.34709  4.34709  0.00000 -0.69418
       3     C     2.63195  2.63195  0.00000  0.73609
       4     C     3.19815  3.19815  0.00000 -0.39631
       5     O     4.27966  4.27966  0.00000 -0.55932
       6     C     3.16522  3.16522  0.00000 -0.33044
       7     H     0.39898  0.39898  0.00000  0.20205
       8     H     0.40128  0.40128  0.00000  0.19744
       9     C     3.24113  3.24113  0.00000 -0.48227
      10     H     0.40512  0.40512  0.00000  0.18976
      11     H     0.41221  0.41221  0.00000  0.17559
      12     H     0.41794  0.41794  0.00000  0.16412
      13     H     0.41430  0.41430  0.00000  0.17140
      14     H     0.41883  0.41883  0.00000  0.16234

   Total alpha = 24.00000, Total beta = 24.00000, Total charge =  0.00000
