  ==> Input File <==

--------------------------------------------------------------------------
set {
	reference rhf
	basis 6-31G*
}

set_num_threads( 4 )
memory 2 gb

molecule MOL {
0 1

H	 2.340343	 -2.053893	 -0.132873
N	 1.353546	 -1.887811	 -0.135786
C	 0.985819	 -1.034370	 -1.250742
C	 0.931025	 -1.318179	 1.130590
H	 1.303545	 -1.505891	 -2.174586
H	 1.455584	 -0.049516	 -1.195734
C	 -0.524739	 -0.854129	 -1.263270
H	 1.209069	 -1.995228	 1.931254
H	 1.397470	 -0.350514	 1.329827
C	 -0.579500	 -1.137762	 1.116586
H	 -0.997548	 -1.818910	 -1.470028
H	 -0.802461	 -0.172188	 -2.060373
N	 -0.975995	 -0.298722	 0.000000
H	 -0.896768	 -0.660651	 2.038135
H	 -1.055978	 -2.121545	 1.069270
C	 -2.393863	 -0.024976	 0.000000
H	 -2.854032	 -0.467193	 -0.876721
H	 -2.854032	 -0.467193	 0.876721
H	 -2.623281	 1.044943	 0.000000

	symmetry c1
}
set optking {
	frozen_dihedral = ("
		7 13 16 19
	")
}

ee = optimize('scf')
oeprop('DIPOLE', 'QUADRUPOLE', 'MULLIKEN_CHARGES')
f=open( 'psi4out.xyz', 'w' )
f.write( "19  " )
f.write( str(ee) + "\n" )
f.write( MOL.save_string_xyz() )
f.close()
--------------------------------------------------------------------------

    Molecular point group: c1
  Charge       = 0
  Multiplicity = 1
  Basis Set: 6-31G*
  Basis Set:
  @DF-RHF Final Energy:  -305.19265724943403
    Total Energy =                       -305.1926572494338643
    Molecular point group: c1
  Basis Set: 6-31G*
  Basis Set:
  Basis Set: 6-31G*
  Basis Set:
  @DF-RHF Final Energy:  -305.19327829122142
    Total Energy =                       -305.1932782912211337
  Basis Set: 6-31G*
  Basis Set:
  Basis Set: 6-31G*
  Basis Set:
  @DF-RHF Final Energy:  -305.19342947274913
    Total Energy =                       -305.1934294727490737
  Basis Set: 6-31G*
  Basis Set:
  Charge       = 0
  Multiplicity = 1
  Basis Set: 6-31G*
  Basis Set:

    Orbital Energies (a.u.)
    -----------------------

    Doubly Occupied:

       1A    -15.537757     2A    -15.535831     3A    -11.237649
       4A    -11.237618     5A    -11.236841     6A    -11.236766
       7A    -11.234694     8A     -1.243890     9A     -1.182761
      10A     -1.022136    11A     -0.963656    12A     -0.859774
      13A     -0.858012    14A     -0.756496    15A     -0.690150
      16A     -0.630149    17A     -0.622951    18A     -0.604884
      19A     -0.603085    20A     -0.579759    21A     -0.543661
      22A     -0.535181    23A     -0.511826    24A     -0.487962
      25A     -0.465258    26A     -0.455775    27A     -0.362528
      28A     -0.339451

  @DF-RHF Final Energy:  -305.19343159668000

   => Energetics <=

    Nuclear Repulsion Energy =            339.2788406279703963
    One-Electron Energy =               -1085.7915377984961651
    Two-Electron Energy =                 441.3192655738456551
    DFT Exchange-Correlation Energy =       0.0000000000000000
    Empirical Dispersion Energy =           0.0000000000000000
    PCM Polarization Energy =               0.0000000000000000
    EFP Energy =                            0.0000000000000000
    Total Energy =                       -305.1934315966801705
    Molecular point group: c1
  Basis Set: 6-31G*
  Basis Set:

  -Total Gradient:
     Atom            X                  Y                   Z
    ------   -----------------  -----------------  -----------------
       1       -0.000033397608     0.000026490174     0.000000730932
       2       -0.000046151935    -0.000004219642    -0.000003270518
       3        0.000036802376     0.000013324924    -0.000000875930
       4        0.000026604170    -0.000038952225     0.000021949988
       5        0.000043614486    -0.000019899127    -0.000005347477
       6       -0.000007239203    -0.000011604491    -0.000003017263
       7       -0.000201562970    -0.001235133561     0.000398037413
       8        0.000063876202    -0.000027963628     0.000008118927
       9       -0.000027918331    -0.000017274861    -0.000004724188
      10        0.000105614419    -0.000041828171     0.000023097029
      11       -0.000007008515     0.000029348244     0.000025266729
      12        0.000002885264    -0.000003407852     0.000020861109
      13        0.000206914151     0.001684842026    -0.000122787082
      14        0.000007504944    -0.000000636929    -0.000022210924
      15        0.000013604881     0.000039395193    -0.000013518347
      16       -0.000124638762    -0.000375040964    -0.002019502398
      17       -0.000008207888    -0.000007192713     0.000005668283
      18       -0.000004800185     0.000009751652    -0.000001050352
      19       -0.000046495493    -0.000019998050     0.001692574070

  **** Optimization is complete! (in 4 steps) ****
    Final optimized geometry and variables:
    Molecular point group: c1

    Geometry (in Angstrom), charge = 0, multiplicity = 1:

    H            2.537959191962    -1.088967676128    -0.071363935805
    N            1.548746718040    -0.938167779231    -0.076036730646
    C            1.170154878651    -0.090876616534    -1.191815889285
    C            1.116013077094    -0.373472353185     1.188920471899
    H            1.496731920357    -0.557843776945    -2.115101943787
    H            1.624805186492     0.901016509525    -1.136120719053
    C           -0.342618518315     0.067140959000    -1.207120433281
    H            1.405297851337    -1.044256311895     1.991144249967
    H            1.566058530823     0.602366820518     1.386122388412
    C           -0.397080021490    -0.216843708967     1.175520842925
    H           -0.800728559342    -0.903196248740    -1.419971938404
    H           -0.624398231633     0.747727066832    -2.003856592111
    N           -0.806463317271     0.612830214038     0.055774883387
    H           -0.715269319693     0.260524458472     2.096078893833
    H           -0.857063310084    -1.208649091831     1.136673597700
    C           -2.227345655414     0.930394617121     0.054291031747
    H           -2.732534415685     0.526206393367    -0.818908120032
    H           -2.720421170979     0.514193872609     0.926900208211
    H           -2.386906503997     2.004591385398     0.074221247538

  Mulliken Charges: (a.u.)
   Center  Symbol    Alpha    Beta     Spin     Total
       1     H     0.32963  0.32963  0.00000  0.34073
       2     N     3.85425  3.85425  0.00000 -0.70851
       3     C     3.06329  3.06329  0.00000 -0.12658
       4     C     3.06342  3.06342  0.00000 -0.12684
       5     H     0.41801  0.41801  0.00000  0.16398
       6     H     0.42790  0.42790  0.00000  0.14420
       7     C     3.05519  3.05519  0.00000 -0.11038
       8     H     0.41801  0.41801  0.00000  0.16398
       9     H     0.42791  0.42791  0.00000  0.14417
      10     C     3.05490  3.05490  0.00000 -0.10980
      11     H     0.42827  0.42827  0.00000  0.14345
      12     H     0.41820  0.41820  0.00000  0.16360
      13     N     3.79243  3.79243  0.00000 -0.58486
      14     H     0.41832  0.41832  0.00000  0.16335
      15     H     0.42844  0.42844  0.00000  0.14312
      16     C     3.13954  3.13954  0.00000 -0.27909
      17     H     0.42386  0.42386  0.00000  0.15227
      18     H     0.42184  0.42184  0.00000  0.15632
      19     H     0.41656  0.41656  0.00000  0.16689

   Total alpha = 28.00000, Total beta = 28.00000, Total charge =  0.00000
