  ==> Input File <==

--------------------------------------------------------------------------
set {
	reference rhf
	basis 6-31G*
}

set_num_threads( 4 )
memory 2 gb

molecule MOL {
0 1

O	 -0.291628	 1.323815	 -0.000732
C	 -0.449655	 0.146360	 0.000961
C	 -1.783294	 -0.549321	 -0.000296
O	 0.550821	 -0.724572	 0.000672
H	 -1.863538	 -1.185371	 -0.874187
H	 -2.574672	 0.185258	 -0.002793
H	 -1.866414	 -1.182381	 0.875436
C	 1.566459	 -0.534978	 -0.968252
H	 1.155223	 -0.593940	 -1.965631
H	 2.277838	 -1.330188	 -0.809102
H	 2.042396	 0.425915	 -0.835917

	symmetry c1
}
set optking {
	frozen_dihedral = ("
		8 4 2 1
	")
}

ee = optimize('scf')
oeprop('DIPOLE', 'QUADRUPOLE', 'MULLIKEN_CHARGES')
f=open( 'psi4out.xyz', 'w' )
f.write( "11  " )
f.write( str(ee) + "\n" )
f.write( MOL.save_string_xyz() )
f.close()
--------------------------------------------------------------------------

    Molecular point group: c1
  Charge       = 0
  Multiplicity = 1
  Basis Set: 6-31G*
  Basis Set:
  @DF-RHF Final Energy:  -266.82421559862348
    Total Energy =                       -266.8242155986233684
    Molecular point group: c1
  Basis Set: 6-31G*
  Basis Set:
  Basis Set: 6-31G*
  Basis Set:
  @DF-RHF Final Energy:  -266.82193678602869
    Total Energy =                       -266.8219367860285729
  Basis Set: 6-31G*
  Basis Set:
  Basis Set: 6-31G*
  Basis Set:
  @DF-RHF Final Energy:  -266.82505325599152
    Total Energy =                       -266.8250532559914632
  Basis Set: 6-31G*
  Basis Set:
  Basis Set: 6-31G*
  Basis Set:
  @DF-RHF Final Energy:  -266.82511622075634
    Total Energy =                       -266.8251162207565699
  Basis Set: 6-31G*
  Basis Set:
  @DF-RHF Final Energy:  -266.82512175337479
    Total Energy =                       -266.8251217533746740
  @DF-RHF Final Energy:  -266.82512317811734
    Total Energy =                       -266.8251231781174511
  Basis Set: 6-31G*
  Basis Set:
  @DF-RHF Final Energy:  -266.82205458545366
    Total Energy =                       -266.8220545854532588
  Basis Set: 6-31G*
  Basis Set:
  Basis Set: 6-31G*
  Basis Set:
  @DF-RHF Final Energy:  -266.82502920166689
    Total Energy =                       -266.8250292016669505
  Basis Set: 6-31G*
  Basis Set:
  Basis Set: 6-31G*
  Basis Set:
  @DF-RHF Final Energy:  -266.82512324976631
    Total Energy =                       -266.8251232497663636
  Basis Set: 6-31G*
  Basis Set:
  Charge       = 0
  Multiplicity = 1
  Basis Set: 6-31G*
  Basis Set:

    Orbital Energies (a.u.)
    -----------------------

    Doubly Occupied:

       1A    -20.594760     2A    -20.552892     3A    -11.378282
       4A    -11.287028     5A    -11.235798     6A     -1.464090
       7A     -1.366591     8A     -1.031975     9A     -0.956274
      10A     -0.777361    11A     -0.695069    12A     -0.679971
      13A     -0.672156    14A     -0.602929    15A     -0.593297
      16A     -0.568061    17A     -0.535016    18A     -0.508428
      19A     -0.456014    20A     -0.440991

  @DF-RHF Final Energy:  -266.82512373260528

   => Energetics <=

    Nuclear Repulsion Energy =            182.5348559152811845
    One-Electron Energy =                -725.9259933156931766
    Two-Electron Energy =                 276.5660136678063168
    DFT Exchange-Correlation Energy =       0.0000000000000000
    Empirical Dispersion Energy =           0.0000000000000000
    PCM Polarization Energy =               0.0000000000000000
    EFP Energy =                            0.0000000000000000
    Total Energy =                       -266.8251237326056184
    Molecular point group: c1
  Basis Set: 6-31G*
  Basis Set:

  -Total Gradient:
     Atom            X                  Y                   Z
    ------   -----------------  -----------------  -----------------
       1       -0.000348823133    -0.000273582032     0.009958888279
       2       -0.001302070225    -0.001676902431    -0.017402075137
       3        0.000002337188    -0.000004405229     0.000080364621
       4        0.005396895484     0.006292776503     0.012623496376
       5       -0.000000384217     0.000002111430     0.000001014192
       6       -0.000004006267     0.000002074608    -0.000002845436
       7       -0.000002735112    -0.000004219408    -0.000002367948
       8       -0.003746324592    -0.004342709318    -0.005241046535
       9       -0.000003249858     0.000000368997    -0.000002647827
      10        0.000001306403     0.000002406735    -0.000004895686
      11        0.000007054328     0.000002080142    -0.000007884899

  **** Optimization is complete! (in 10 steps) ****
    Final optimized geometry and variables:
    Molecular point group: c1

    Geometry (in Angstrom), charge = 0, multiplicity = 1:

    O           -0.230595035722     1.390977197601     0.208550719647
    C           -0.398745602390     0.219099351057     0.170886657003
    C           -1.738856342642    -0.459943802680     0.229907272462
    O            0.609771519533    -0.665582800337     0.182707488321
    H           -1.887664218246    -1.051112980789    -0.667352531847
    H           -2.523156697522     0.276538940304     0.322499650462
    H           -1.761812715088    -1.139989119541     1.073675265013
    C            1.663599098997    -0.458618424800    -0.739639248319
    H            1.299776641105    -0.575396418755    -1.753740749010
    H            2.401914484871    -1.217437657683    -0.532655377141
    H            2.097007228526     0.523246386307    -0.617404785144

  Mulliken Charges: (a.u.)
   Center  Symbol    Alpha    Beta     Spin     Total
       1     O     4.26562  4.26562  0.00000 -0.53123
       2     C     2.62300  2.62300  0.00000  0.75400
       3     C     3.28381  3.28381  0.00000 -0.56762
       4     O     4.30684  4.30684  0.00000 -0.61367
       5     H     0.40420  0.40420  0.00000  0.19159
       6     H     0.39732  0.39732  0.00000  0.20535
       7     H     0.39756  0.39756  0.00000  0.20489
       8     C     3.09481  3.09481  0.00000 -0.18962
       9     H     0.41885  0.41885  0.00000  0.16230
      10     H     0.40564  0.40564  0.00000  0.18871
      11     H     0.40235  0.40235  0.00000  0.19530

   Total alpha = 20.00000, Total beta = 20.00000, Total charge =  0.00000
