                              Psi4 1.0.54 Driver

  ==> Input File <==

--------------------------------------------------------------------------
set {
	reference rhf
	basis cc-pvtz
}

set_num_threads( 4 )
memory 2 gb

molecule MOL {
0 1

H	 2.491761	 2.125001	 0.788199
O	 3.281539	 1.800826	 0.397059
C	 3.493098	 0.463669	 0.766557
C	 2.541322	 -0.510694	 0.088749
H	 4.510406	 0.235110	 0.478762
H	 3.431952	 0.354504	 1.847664
C	 1.077822	 -0.339296	 0.489549
H	 2.641461	 -0.399626	 -0.986795
H	 2.865519	 -1.519334	 0.333577
C	 0.157297	 -1.355310	 -0.185125
H	 0.752682	 0.664976	 0.239101
H	 0.986410	 -0.437608	 1.569949
C	 -1.311023	 -1.277304	 0.237018
H	 0.227130	 -1.238970	 -1.263927
H	 0.525117	 -2.353642	 0.035127
C	 -2.041121	 -0.006551	 -0.194127
H	 -1.832049	 -2.133844	 -0.181789
H	 -1.379443	 -1.382273	 1.317507
C	 -3.489218	 0.042606	 0.286507
H	 -2.022185	 0.066287	 -1.279394
H	 -1.518764	 0.869305	 0.178730
C	 -4.219984	 1.311773	 -0.139038
H	 -4.022855	 -0.824300	 -0.093339
H	 -3.510372	 -0.038577	 1.370031
H	 -4.244251	 1.405725	 -1.219696
H	 -5.244345	 1.313233	 0.215630
H	 -3.732090	 2.196311	 0.257073

	symmetry c1
}
set optking {
	frozen_dihedral = ("
		10 13 16 20
	")
}

ee,wfn = optimize('scf', return_wfn=True)
oeprop( wfn, 'DIPOLE', 'QUADRUPOLE', 'MULLIKEN_CHARGES')
f=open( 'psi4out.xyz', 'w' )
f.write( "27  " )
f.write( str(ee) + "\n" )
f.write( MOL.save_string_xyz() )
f.close()
--------------------------------------------------------------------------

    Molecular point group: c1
  Charge       = 0
  Multiplicity = 1
  Basis Set: CC-PVTZ
  Basis Set:
  @DF-RHF Final Energy:  -388.42766743368958
    Total Energy =                       -388.4276674336895212
    Molecular point group: c1
  Basis Set: CC-PVTZ
  Basis Set:
  Basis Set: CC-PVTZ
  Basis Set:
  @DF-RHF Final Energy:  -388.42758531337114
    Total Energy =                       -388.4275853133715373
  Basis Set: CC-PVTZ
  Basis Set:
  Basis Set: CC-PVTZ
  Basis Set:
  @DF-RHF Final Energy:  -388.42769269863851
    Total Energy =                       -388.4276926986391345
  Basis Set: CC-PVTZ
  Basis Set:
  Basis Set: CC-PVTZ
  Basis Set:
  @DF-RHF Final Energy:  -388.42769431486369
    Total Energy =                       -388.4276943148636292
  Basis Set: CC-PVTZ
  Basis Set:
  Charge       = 0
  Multiplicity = 1
  Basis Set: CC-PVTZ
  Basis Set:

    Orbital Energies (a.u.)
    -----------------------

    Doubly Occupied:

       1A    -20.545417     2A    -11.265047     3A    -11.216807
       4A    -11.214701     5A    -11.213824     6A    -11.213288
       7A    -11.213235     8A    -11.211766     9A    -11.207230
      10A     -1.363279    11A     -1.096158    12A     -1.062622
      13A     -1.012474    14A     -0.949505    15A     -0.888528
      16A     -0.820521    17A     -0.801317    18A     -0.778949
      19A     -0.696343    20A     -0.651604    21A     -0.641273
      22A     -0.615725    23A     -0.601458    24A     -0.582983
      25A     -0.581434    26A     -0.553635    27A     -0.542070
      28A     -0.531964    29A     -0.505767    30A     -0.495009
      31A     -0.485474    32A     -0.474933    33A     -0.469040
      34A     -0.461484    35A     -0.452536    36A     -0.442488
      37A     -0.425820

  @DF-RHF Final Energy:  -388.42769520155616

   => Energetics <=

    Nuclear Repulsion Energy =            460.1999705772359448
    One-Electron Energy =               -1438.6839331519418010
    Two-Electron Energy =                 590.0562673731494669
    DFT Exchange-Correlation Energy =       0.0000000000000000
    Empirical Dispersion Energy =           0.0000000000000000
    PCM Polarization Energy =               0.0000000000000000
    EFP Energy =                            0.0000000000000000
    Total Energy =                       -388.4276952015563893
    Molecular point group: c1
  Basis Set: CC-PVTZ
  Basis Set:

  -Total Gradient:
     Atom            X                  Y                   Z
    ------   -----------------  -----------------  -----------------
       1       -0.000013192837     0.000022691117    -0.000002706851
       2       -0.000020791836     0.000033165509     0.000005978505
       3        0.000017987122    -0.000013583328    -0.000016389111
       4        0.000005343753    -0.000016003790     0.000006551323
       5       -0.000006366407    -0.000024230858    -0.000000534279
       6        0.000005476694    -0.000000348545     0.000023238021
       7        0.000005658100     0.000008105667    -0.000003590467
       8       -0.000005776872    -0.000003398932    -0.000014670979
       9       -0.000001902722    -0.000013036091     0.000000273333
      10        0.000192836915     0.000315712973     0.000565515865
      11       -0.000005408256     0.000007290766     0.000007050020
      12        0.000008166470     0.000000056432     0.000009709724
      13       -0.000463144275    -0.000574160597    -0.000862067602
      14       -0.000000437885    -0.000014786632     0.000001763473
      15       -0.000005930107     0.000015739026     0.000005133285
      16        0.001060559460     0.000744152779     0.000317944898
      17        0.000007423981     0.000007604236     0.000001124255
      18       -0.000002654655    -0.000002456930    -0.000001644984
      19        0.000021504859    -0.000006215924     0.000009738718
      20       -0.000807278419    -0.000491004711    -0.000023648109
      21       -0.000008911962    -0.000009198779    -0.000003630953
      22       -0.000008482655     0.000015454970    -0.000017013900
      23        0.000010511541    -0.000013459724     0.000001162732
      24        0.000014241279    -0.000008617689     0.000007680920
      25       -0.000007013606     0.000011546059    -0.000019699924
      26        0.000013080518    -0.000003939824    -0.000004036640
      27       -0.000005498194     0.000012922822     0.000006768728

  **** Optimization is complete! (in 5 steps) ****
    Final optimized geometry and variables:
    Molecular point group: c1

    Geometry (in Angstrom), charge = 0, multiplicity = 1:

    H            2.513773012605     2.066651840999     0.655506359956
    O            3.299571877847     1.758335760495     0.244347347713
    C            3.520658025677     0.410730705262     0.567431500755
    C            2.565114599662    -0.545099332607    -0.131017783243
    H            4.535479736935     0.195945171931     0.260919909383
    H            3.472261568280     0.266184059681     1.645014940014
    C            1.104783656556    -0.388947885368     0.287063134741
    H            2.655774003662    -0.401705550409    -1.203519285967
    H            2.893509133678    -1.559837554476     0.080754063826
    C            0.182354907115    -1.393710158968    -0.401748973513
    H            0.773872569898     0.619703545939     0.063679779926
    H            1.024176844361    -0.513109118785     1.365543282707
    C           -1.283002825564    -1.329614410093     0.033813224113
    H            0.244468588459    -1.256361226122    -1.478608318645
    H            0.555885864894    -2.394489177674    -0.203754242647
    C           -2.031698108210    -0.069926509750    -0.397703100099
    H           -1.801394700931    -2.194265012428    -0.370702649959
    H           -1.336122111821    -1.426194179807     1.116017697553
    C           -3.479320345887    -0.041885190342     0.086781121515
    H           -2.022622825101    -0.005386198151    -1.483456641457
    H           -1.522365594627     0.815958522781    -0.031784449345
    C           -4.237819631065     1.203295429372    -0.360587192923
    H           -3.995812467578    -0.926952675660    -0.274657045120
    H           -3.495615239618    -0.102729726681     1.171619974341
    H           -4.269616973842     1.274723217128    -1.442744651011
    H           -5.260098744157     1.191461654886    -0.000314141392
    H           -3.765903444697     2.105427277523     0.014693354102

  Mulliken Charges: (a.u.)
   Center  Symbol    Alpha    Beta     Spin     Total
       1     H     0.39229  0.39229  0.00000  0.21543
       2     O     4.20549  4.20549  0.00000 -0.41098
       3     C     2.98000  2.98000  0.00000  0.04000
       4     C     3.08908  3.08908  0.00000 -0.17816
       5     H     0.44857  0.44857  0.00000  0.10287
       6     H     0.46964  0.46964  0.00000  0.06071
       7     C     3.10234  3.10234  0.00000 -0.20468
       8     H     0.45071  0.45071  0.00000  0.09858
       9     H     0.45522  0.45522  0.00000  0.08957
      10     C     3.09852  3.09852  0.00000 -0.19705
      11     H     0.45614  0.45614  0.00000  0.08773
      12     H     0.45385  0.45385  0.00000  0.09230
      13     C     3.09843  3.09843  0.00000 -0.19686
      14     H     0.45189  0.45189  0.00000  0.09623
      15     H     0.44798  0.44798  0.00000  0.10405
      16     C     3.08684  3.08684  0.00000 -0.17367
      17     H     0.44738  0.44738  0.00000  0.10524
      18     H     0.45453  0.45453  0.00000  0.09093
      19     C     3.08436  3.08436  0.00000 -0.16872
      20     H     0.45431  0.45431  0.00000  0.09138
      21     H     0.45534  0.45534  0.00000  0.08932
      22     C     3.14949  3.14949  0.00000 -0.29899
      23     H     0.45395  0.45395  0.00000  0.09211
      24     H     0.45471  0.45471  0.00000  0.09057
      25     H     0.45487  0.45487  0.00000  0.09026
      26     H     0.44831  0.44831  0.00000  0.10339
      27     H     0.45577  0.45577  0.00000  0.08845

   Total alpha = 37.00000, Total beta = 37.00000, Total charge =  0.00000

*** Psi4 exiting successfully. Buy a developer a beer!
