                              Psi4 1.0.54 Driver

  ==> Input File <==

--------------------------------------------------------------------------
set {
	reference rhf
	basis cc-pvtz
}

set_num_threads( 4 )
memory 2 gb

molecule MOL {
0 1

H	 3.047520	 1.543029	 -1.296361
N	 2.283564	 0.901803	 -1.324948
C	 1.860978	 0.530248	 0.016256
H	 2.590331	 0.100882	 -1.836580
C	 0.644130	 -0.381765	 -0.031064
H	 1.604919	 1.440996	 0.547179
H	 2.651058	 0.044801	 0.590773
C	 -0.678115	 0.376691	 0.025731
H	 0.693998	 -0.977147	 -0.936845
H	 0.693309	 -1.082142	 0.800523
C	 -1.900706	 -0.535531	 -0.022488
H	 -0.725296	 1.079516	 -0.802982
H	 -0.715474	 0.974884	 0.933278
C	 -3.220513	 0.226854	 0.028039
H	 -1.865036	 -1.134397	 -0.928236
H	 -1.857948	 -1.236381	 0.806820
H	 -3.309098	 0.911849	 -0.808725
H	 -4.066838	 -0.449485	 -0.008086
H	 -3.301685	 0.809374	 0.939860

	symmetry c1
}
set optking {
	frozen_dihedral = ("
		6 3 5 9
	")
}

ee,wfn = optimize('scf', return_wfn=True)
oeprop( wfn, 'DIPOLE', 'QUADRUPOLE', 'MULLIKEN_CHARGES')
f=open( 'psi4out.xyz', 'w' )
f.write( "19  " )
f.write( str(ee) + "\n" )
f.write( MOL.save_string_xyz() )
f.close()
--------------------------------------------------------------------------

    Molecular point group: c1
  Charge       = 0
  Multiplicity = 1
  Basis Set: CC-PVTZ
  Basis Set:
  @DF-RHF Final Energy:  -251.44482372163114
    Total Energy =                       -251.4448237216311099
    Molecular point group: c1
  Basis Set: CC-PVTZ
  Basis Set:
  Basis Set: CC-PVTZ
  Basis Set:
  @DF-RHF Final Energy:  -251.44532506891352
    Total Energy =                       -251.4453250689135757
  Basis Set: CC-PVTZ
  Basis Set:
  Basis Set: CC-PVTZ
  Basis Set:
  @DF-RHF Final Energy:  -251.44541411635467
    Total Energy =                       -251.4454141163544136
  Basis Set: CC-PVTZ
  Basis Set:
  Basis Set: CC-PVTZ
  Basis Set:
  @DF-RHF Final Energy:  -251.44541817735106
    Total Energy =                       -251.4454181773509163
  Basis Set: CC-PVTZ
  Basis Set:
  Charge       = 0
  Multiplicity = 1
  Basis Set: CC-PVTZ
  Basis Set:

    Orbital Energies (a.u.)
    -----------------------

    Doubly Occupied:

       1A    -15.527068     2A    -11.238561     3A    -11.208055
       4A    -11.207876     5A    -11.203909     6A    -11.202208
       7A     -1.178104     8A     -1.069447     9A     -0.996170
      10A     -0.900216    11A     -0.812659    12A     -0.785089
      13A     -0.664033    14A     -0.643691    15A     -0.615326
      16A     -0.587502    17A     -0.558091    18A     -0.546024
      19A     -0.535894    20A     -0.487974    21A     -0.485273
      22A     -0.459147    23A     -0.458604    24A     -0.452248
      25A     -0.382021

  @DF-RHF Final Energy:  -251.44541885566147

   => Energetics <=

    Nuclear Repulsion Energy =            248.4683858852853575
    One-Electron Energy =                -831.4172327814158052
    Two-Electron Energy =                 331.5034280404688616
    DFT Exchange-Correlation Energy =       0.0000000000000000
    Empirical Dispersion Energy =           0.0000000000000000
    PCM Polarization Energy =               0.0000000000000000
    EFP Energy =                            0.0000000000000000
    Total Energy =                       -251.4454188556616145
    Molecular point group: c1
  Basis Set: CC-PVTZ
  Basis Set:

  -Total Gradient:
     Atom            X                  Y                   Z
    ------   -----------------  -----------------  -----------------
       1       -0.000002932099    -0.000015861124    -0.000028936956
       2        0.000061057279     0.000019065810    -0.000005054802
       3        0.000949724704    -0.001430971850     0.004058320106
       4       -0.000004907702     0.000027714357     0.000027034387
       5        0.002347607297    -0.003217652068     0.001740065871
       6       -0.001188568064     0.001665169544    -0.003686802935
       7       -0.000025596702    -0.000001623248    -0.000022220417
       8        0.000003550719     0.000033760361     0.000046197299
       9       -0.002098754681     0.002909054752    -0.002130372597
      10       -0.000002341948     0.000017629811     0.000001311942
      11        0.000004976893     0.000004178087    -0.000011514771
      12        0.000002067399    -0.000005093406     0.000012798891
      13       -0.000011640124     0.000009686867     0.000012960939
      14       -0.000018422012    -0.000012206720    -0.000004540021
      15       -0.000007241533    -0.000013539460     0.000002133717
      16       -0.000004162845     0.000011350599    -0.000005584399
      17        0.000001086402    -0.000002572919     0.000003483751
      18       -0.000011407470     0.000006186460    -0.000000881398
      19        0.000005904484    -0.000004275854    -0.000008398608

  **** Optimization is complete! (in 5 steps) ****
    Final optimized geometry and variables:
    Molecular point group: c1

    Geometry (in Angstrom), charge = 0, multiplicity = 1:

    H            3.120965885624     1.358971299877    -1.034768316538
    N            2.399783294148     0.669354206153    -1.035788107503
    C            2.013680243579     0.308597561148     0.323218900662
    H            2.750924021683    -0.124536884915    -1.529169433435
    C            0.781245853166    -0.598447560714     0.306536890302
    H            1.770124457214     1.237404676787     0.826751445470
    H            2.821266949738    -0.165981332492     0.877466426029
    C           -0.532534741363     0.180464991111     0.270746449172
    H            0.824262449990    -1.221200726010    -0.582824635608
    H            0.791636542921    -1.258247283062     1.168363337842
    C           -1.762810671698    -0.710530967113     0.129200737999
    H           -0.498418209520     0.885588942160    -0.554080770473
    H           -0.622404915390     0.771160534365     1.179815240595
    C           -3.071022959845     0.073227471766     0.109507105787
    H           -1.679801984763    -1.293414592494    -0.784144441218
    H           -1.785442306285    -1.427379626332     0.946117788303
    H           -3.092268718812     0.776214176059    -0.716530768647
    H           -3.924423531010    -0.587043533022     0.004121432418
    H           -3.202127646115     0.638914650040     1.026106160701

  Mulliken Charges: (a.u.)
   Center  Symbol    Alpha    Beta     Spin     Total
       1     H     0.42863  0.42863  0.00000  0.14274
       2     N     3.69349  3.69349  0.00000 -0.38699
       3     C     3.03668  3.03668  0.00000 -0.07336
       4     H     0.43086  0.43086  0.00000  0.13828
       5     C     3.08465  3.08465  0.00000 -0.16929
       6     H     0.45789  0.45789  0.00000  0.08421
       7     H     0.45838  0.45838  0.00000  0.08323
       8     C     3.08507  3.08507  0.00000 -0.17015
       9     H     0.46013  0.46013  0.00000  0.07974
      10     H     0.45093  0.45093  0.00000  0.09813
      11     C     3.08520  3.08520  0.00000 -0.17040
      12     H     0.44864  0.44864  0.00000  0.10273
      13     H     0.45815  0.45815  0.00000  0.08370
      14     C     3.14991  3.14991  0.00000 -0.29982
      15     H     0.45469  0.45469  0.00000  0.09063
      16     H     0.45673  0.45673  0.00000  0.08655
      17     H     0.45457  0.45457  0.00000  0.09087
      18     H     0.44946  0.44946  0.00000  0.10109
      19     H     0.45595  0.45595  0.00000  0.08810

   Total alpha = 25.00000, Total beta = 25.00000, Total charge = -0.00000

*** Psi4 exiting successfully. Buy a developer a beer!
