  ==> Input File <==

--------------------------------------------------------------------------
set {
	reference rhf
	basis 6-31G*
}

set_num_threads( 4 )
memory 2 gb

molecule MOL {
0 1

H	 2.438918	 -1.077441	 -0.185648
O	 1.654024	 -0.625927	 -0.460906
C	 1.135793	 0.118896	 0.612333
C	 0.031547	 1.023609	 0.088541
H	 1.915668	 0.729681	 1.063582
H	 0.754543	 -0.542641	 1.387006
C	 -1.134819	 0.293262	 -0.585751
H	 0.474374	 1.714721	 -0.623187
H	 -0.338529	 1.620940	 0.920081
C	 -1.917817	 -0.639439	 0.339494
H	 -0.758119	 -0.268455	 -1.433105
H	 -1.813832	 1.041889	 -0.986690
H	 -2.777680	 -1.057197	 -0.174994
H	 -1.310268	 -1.471279	 0.680599
H	 -2.283753	 -0.111424	 1.216626

	symmetry c1
}
set optking {
	frozen_dihedral = ("
		1 2 3 4
	")
}

ee = optimize('scf')
oeprop('DIPOLE', 'QUADRUPOLE', 'MULLIKEN_CHARGES')
f=open( 'psi4out.xyz', 'w' )
f.write( "15  " )
f.write( str(ee) + "\n" )
f.write( MOL.save_string_xyz() )
f.close()
--------------------------------------------------------------------------

    Molecular point group: c1
  Charge       = 0
  Multiplicity = 1
  Basis Set: 6-31G*
  Basis Set:
  @DF-RHF Final Energy:  -232.14373840380247
    Total Energy =                       -232.1437384038025016
    Molecular point group: c1
  Basis Set: 6-31G*
  Basis Set:
  Basis Set: 6-31G*
  Basis Set:
  @DF-RHF Final Energy:  -232.14373321073245
    Total Energy =                       -232.1437332107322504
  Basis Set: 6-31G*
  Basis Set:
  Basis Set: 6-31G*
  Basis Set:
  @DF-RHF Final Energy:  -232.14374075153989
    Total Energy =                       -232.1437407515400082
  Basis Set: 6-31G*
  Basis Set:
  Basis Set: 6-31G*
  Basis Set:
  @DF-RHF Final Energy:  -232.14374478829723
    Total Energy =                       -232.1437447882971128
  Basis Set: 6-31G*
  Basis Set:
  Charge       = 0
  Multiplicity = 1
  Basis Set: 6-31G*
  Basis Set:

    Orbital Energies (a.u.)
    -----------------------

    Doubly Occupied:

       1A    -20.553253     2A    -11.267470     3A    -11.212305
       4A    -11.208163     5A    -11.203844     6A     -1.359849
       7A     -1.063341     8A     -0.969559     9A     -0.868023
      10A     -0.774040    11A     -0.703636    12A     -0.648283
      13A     -0.607484    14A     -0.570717    15A     -0.564368
      16A     -0.531316    17A     -0.509125    18A     -0.474033
      19A     -0.465931    20A     -0.451560    21A     -0.430243

  @DF-RHF Final Energy:  -232.14374478324751

   => Energetics <=

    Nuclear Repulsion Energy =            191.9195216245426252
    One-Electron Energy =                -695.2534501885284044
    Two-Electron Energy =                 271.1901837807383799
    DFT Exchange-Correlation Energy =       0.0000000000000000
    Empirical Dispersion Energy =           0.0000000000000000
    PCM Polarization Energy =               0.0000000000000000
    EFP Energy =                            0.0000000000000000
    Total Energy =                       -232.1437447832473708
    Molecular point group: c1
  Basis Set: 6-31G*
  Basis Set:

  -Total Gradient:
     Atom            X                  Y                   Z
    ------   -----------------  -----------------  -----------------
       1        0.000535812913     0.000768152428    -0.000272596033
       2       -0.000542543805    -0.000774049523     0.000296488671
       3       -0.000384844893    -0.000394692852     0.000088414189
       4        0.000393585049     0.000385364106    -0.000122776772
       5        0.000014683343    -0.000003002179     0.000012478366
       6       -0.000027167920     0.000009693273    -0.000009769717
       7       -0.000000020346     0.000010783653    -0.000003316096
       8       -0.000000583594     0.000000313606     0.000003117090
       9        0.000011130919    -0.000006862001    -0.000000494746
      10        0.000000848465    -0.000006370904    -0.000002236876
      11       -0.000005225585    -0.000000225590     0.000005677416
      12        0.000002266590     0.000007115600    -0.000002432986
      13        0.000002546720    -0.000002950988     0.000000444863
      14        0.000010815588     0.000006473095     0.000005457971
      15       -0.000011303447     0.000000258278     0.000001544663

  **** Optimization is complete! (in 5 steps) ****
    Final optimized geometry and variables:
    Molecular point group: c1

    Geometry (in Angstrom), charge = 0, multiplicity = 1:

    H            2.430353632116    -1.086599780580    -0.186435625566
    O            1.645003590466    -0.634471479061    -0.459154392732
    C            1.136287862036     0.119693301315     0.612496195011
    C            0.031013498992     1.024716086498     0.091237026346
    H            1.920116219213     0.733478139480     1.052586009473
    H            0.761813205207    -0.536056335377     1.395297771358
    C           -1.133758179938     0.293920165798    -0.585713808732
    H            0.473027240505     1.718301365687    -0.618413399835
    H           -0.341097133379     1.618117251199     0.924747995790
    C           -1.916298940342    -0.641043816775     0.337608939476
    H           -0.754936166822    -0.266758643702    -1.433039647627
    H           -1.812899246003     1.042176394482    -0.987102731979
    H           -2.772958427951    -1.062192357019    -0.179501851353
    H           -1.306236526701    -1.470176563323     0.680605050979
    H           -2.286933247907    -0.113911354008     1.213281109643

  Mulliken Charges: (a.u.)
   Center  Symbol    Alpha    Beta     Spin     Total
       1     H     0.28045  0.28045  0.00000  0.43910
       2     O     4.37005  4.37005  0.00000 -0.74011
       3     C     2.99924  2.99924  0.00000  0.00151
       4     C     3.16049  3.16049  0.00000 -0.32099
       5     H     0.42983  0.42983  0.00000  0.14034
       6     H     0.42983  0.42983  0.00000  0.14034
       7     C     3.15368  3.15368  0.00000 -0.30736
       8     H     0.41513  0.41513  0.00000  0.16973
       9     H     0.42487  0.42487  0.00000  0.15025
      10     C     3.24332  3.24332  0.00000 -0.48664
      11     H     0.40716  0.40716  0.00000  0.18567
      12     H     0.42305  0.42305  0.00000  0.15390
      13     H     0.41918  0.41918  0.00000  0.16163
      14     H     0.41854  0.41854  0.00000  0.16292
      15     H     0.42515  0.42515  0.00000  0.14969

   Total alpha = 21.00000, Total beta = 21.00000, Total charge = -0.00000
