  ==> Input File <==

--------------------------------------------------------------------------
set {
	reference rhf
	basis cc-pvtz
}

set_num_threads( 4 )
memory 2 gb

molecule MOL {
0 1

O	 -0.972940	 -1.355488	 0.365080
C	 -0.661730	 -0.217771	 0.156594
C	 -1.718996	 0.867105	 0.148519
N	 0.622280	 0.144970	 -0.099307
H	 -1.754548	 1.376254	 -0.806389
H	 -2.668266	 0.393286	 0.335263
H	 -1.531607	 1.606395	 0.917486
C	 1.664396	 -0.854993	 0.000772
C	 1.081428	 1.512970	 -0.138219
H	 2.462727	 -0.615153	 -0.690869
H	 1.261798	 -1.821849	 -0.240651
H	 2.081615	 -0.891605	 1.003877
H	 1.887403	 1.597454	 -0.855786
H	 0.300265	 2.186888	 -0.445650
H	 1.459443	 1.841969	 0.827135

	symmetry c1
}
set optking {
	frozen_dihedral = ("
		2 4 8 10
	")
}

ee = optimize('scf')
oeprop('DIPOLE', 'QUADRUPOLE', 'MULLIKEN_CHARGES')
f=open( 'psi4out.xyz', 'w' )
f.write( "15  " )
f.write( str(ee) + "\n" )
f.write( MOL.save_string_xyz() )
f.close()
--------------------------------------------------------------------------

    Molecular point group: c1
  Charge       = 0
  Multiplicity = 1
  Basis Set: CC-PVTZ
  Basis Set:
  @DF-RHF Final Energy:  -286.13554854834319
    Total Energy =                       -286.1355485483431380
    Molecular point group: c1
  Basis Set: CC-PVTZ
  Basis Set:
  Basis Set: CC-PVTZ
  Basis Set:
  @DF-RHF Final Energy:  -286.13558174957961
    Total Energy =                       -286.1355817495796146
  Basis Set: CC-PVTZ
  Basis Set:
  Basis Set: CC-PVTZ
  Basis Set:
  @DF-RHF Final Energy:  -286.13555448056974
    Total Energy =                       -286.1355544805696809
  Basis Set: CC-PVTZ
  Basis Set:
  Basis Set: CC-PVTZ
  Basis Set:
  @DF-RHF Final Energy:  -286.13560572342362
    Total Energy =                       -286.1356057234237369
  Basis Set: CC-PVTZ
  Basis Set:
  Basis Set: CC-PVTZ
  Basis Set:
  @DF-RHF Final Energy:  -286.13560819056232
    Total Energy =                       -286.1356081905622091
  Basis Set: CC-PVTZ
  Basis Set:
  Charge       = 0
  Multiplicity = 1
  Basis Set: CC-PVTZ
  Basis Set:

    Orbital Energies (a.u.)
    -----------------------

    Doubly Occupied:

       1A    -20.504420     2A    -15.578188     3A    -11.334823
       4A    -11.263917     5A    -11.246549     6A    -11.226558
       7A     -1.387931     8A     -1.245976     9A     -1.015054
      10A     -0.973155    11A     -0.920314    12A     -0.738865
      13A     -0.683100    14A     -0.661595    15A     -0.653867
      16A     -0.590136    17A     -0.578352    18A     -0.568205
      19A     -0.562037    20A     -0.548003    21A     -0.530475
      22A     -0.506300    23A     -0.414386    24A     -0.370989

  @DF-RHF Final Energy:  -286.13560903441919

   => Energetics <=

    Nuclear Repulsion Energy =            252.9755831514497402
    One-Electron Energy =                -890.0159934779617288
    Two-Electron Energy =                 350.9048012920928841
    DFT Exchange-Correlation Energy =       0.0000000000000000
    Empirical Dispersion Energy =           0.0000000000000000
    PCM Polarization Energy =               0.0000000000000000
    EFP Energy =                            0.0000000000000000
    Total Energy =                       -286.1356090344190761
    Molecular point group: c1
  Basis Set: CC-PVTZ
  Basis Set:

  -Total Gradient:
     Atom            X                  Y                   Z
    ------   -----------------  -----------------  -----------------
       1       -0.000055353737    -0.000061179638     0.000015433546
       2        0.000000223146     0.000081080526     0.000178786239
       3        0.000040912133    -0.000002126492     0.000054938862
       4        0.000040898814     0.000030843948    -0.000240184360
       5        0.000017194494     0.000016147381    -0.000032210853
       6        0.000017712818    -0.000009273278    -0.000007702267
       7       -0.000003242289     0.000009377749    -0.000020364415
       8       -0.000071603074    -0.000151745380    -0.000114075835
       9       -0.000031012492    -0.000049980371     0.000033942516
      10        0.000086215324     0.000116963321     0.000130581350
      11        0.000008984356     0.000017996969     0.000005664408
      12       -0.000012806872    -0.000001639608     0.000008650880
      13        0.000003140484    -0.000000048830    -0.000003237968
      14       -0.000041474782     0.000004013699    -0.000007633280
      15        0.000000211680    -0.000000429997    -0.000002588824

  **** Optimization is complete! (in 6 steps) ****
    Final optimized geometry and variables:
    Molecular point group: c1

    Geometry (in Angstrom), charge = 0, multiplicity = 1:

    O           -0.974668116457    -1.372092040103     0.310845706870
    C           -0.672429895996    -0.235912995510     0.082559250332
    C           -1.735159448281     0.843130255480     0.066309096939
    N            0.608674149541     0.126131520076    -0.190638317294
    H           -1.762303021601     1.357998366301    -0.885695450333
    H           -2.683962293164     0.363619425739     0.240676269243
    H           -1.560177800720     1.578369953042     0.842171415990
    C            1.645358001485    -0.878679813217    -0.076399052371
    C            1.069735542398     1.494048353369    -0.211246288532
    H            2.437815042336    -0.653478029612    -0.778525591490
    H            1.237601207303    -1.848941428522    -0.296567511241
    H            2.070817893931    -0.901954086636     0.923649564275
    H            1.864984461473     1.592288405324    -0.938792960237
    H            0.284070635255     2.173455475009    -0.493836129759
    H            1.461312525355     1.805103105472     0.754762893827

  Mulliken Charges: (a.u.)
   Center  Symbol    Alpha    Beta     Spin     Total
       1     O     4.21980  4.21980  0.00000 -0.43960
       2     C     2.84512  2.84512  0.00000  0.30976
       3     C     3.16084  3.16084  0.00000 -0.32167
       4     N     3.56322  3.56322  0.00000 -0.12644
       5     H     0.44887  0.44887  0.00000  0.10227
       6     H     0.42864  0.42864  0.00000  0.14271
       7     H     0.44902  0.44902  0.00000  0.10196
       8     C     3.09658  3.09658  0.00000 -0.19315
       9     C     3.09560  3.09560  0.00000 -0.19120
      10     H     0.45725  0.45725  0.00000  0.08550
      11     H     0.42831  0.42831  0.00000  0.14337
      12     H     0.45711  0.45711  0.00000  0.08577
      13     H     0.44909  0.44909  0.00000  0.10183
      14     H     0.44523  0.44523  0.00000  0.10955
      15     H     0.45532  0.45532  0.00000  0.08935

   Total alpha = 24.00000, Total beta = 24.00000, Total charge =  0.00000
