                              Psi4 1.0.54 Driver

  ==> Input File <==

--------------------------------------------------------------------------
set {
	reference rhf
	basis cc-pvtz
}

set_num_threads( 4 )
memory 2 gb

molecule MOL {
0 1

H	 -3.024762	 0.566390	 -2.153423
C	 -2.301175	 -0.074117	 -1.692465
C	 -2.105997	 -0.000418	 -0.398703
H	 -1.754355	 -0.763368	 -2.305423
O	 -1.189946	 -0.765863	 0.237511
H	 -2.654392	 0.680643	 0.226234
C	 0.026572	 -0.995256	 -0.379403
C	 1.057223	 0.049888	 -0.004615
H	 -0.054361	 -1.010670	 -1.459674
H	 0.397526	 -1.952058	 -0.044198
F	 2.203233	 -0.234060	 -0.590375
F	 0.698147	 1.254887	 -0.392621
F	 1.266440	 0.094219	 1.288722

	symmetry c1
}
set optking {
	frozen_dihedral = ("
		6 3 5 7
	")
}

ee,wfn = optimize('scf', return_wfn=True)
oeprop( wfn, 'DIPOLE', 'QUADRUPOLE', 'MULLIKEN_CHARGES')
f=open( 'psi4out.xyz', 'w' )
f.write( "13  " )
f.write( str(ee) + "\n" )
f.write( MOL.save_string_xyz() )
f.close()
--------------------------------------------------------------------------

    Molecular point group: c1
  Charge       = 0
  Multiplicity = 1
  Basis Set: CC-PVTZ
  Basis Set:
  @DF-RHF Final Energy:  -527.73527174907758
    Total Energy =                       -527.7352717490776968
    Molecular point group: c1
  Basis Set: CC-PVTZ
  Basis Set:
  Basis Set: CC-PVTZ
  Basis Set:
  @DF-RHF Final Energy:  -527.68988997598080
    Total Energy =                       -527.6898899759812593
  Basis Set: CC-PVTZ
  Basis Set:
  Basis Set: CC-PVTZ
  Basis Set:
  @DF-RHF Final Energy:  -527.73623166682557
    Total Energy =                       -527.7362316668252333
  Basis Set: CC-PVTZ
  Basis Set:
  Basis Set: CC-PVTZ
  Basis Set:
  @DF-RHF Final Energy:  -527.73788929695604
    Total Energy =                       -527.7378892969559274
  Basis Set: CC-PVTZ
  Basis Set:
  @DF-RHF Final Energy:  -527.73671524648444
    Total Energy =                       -527.7367152464846640
  @DF-RHF Final Energy:  -527.73861263421009
    Total Energy =                       -527.7386126342103125
  @DF-RHF Final Energy:  -527.73872784480204
    Total Energy =                       -527.7387278448019288
  @DF-RHF Final Energy:  -527.73880397798837
    Total Energy =                       -527.7388039779882547
  @DF-RHF Final Energy:  -527.73887233371306
    Total Energy =                       -527.7388723337123793
  @DF-RHF Final Energy:  -527.73894052913420
    Total Energy =                       -527.7389405291344247
  @DF-RHF Final Energy:  -527.73900897550220
    Total Energy =                       -527.7390089755026565
  @DF-RHF Final Energy:  -527.73912421937894
    Total Energy =                       -527.7391242193791641
  @DF-RHF Final Energy:  -527.73927958159550
    Total Energy =                       -527.7392795815953832
  @DF-RHF Final Energy:  -527.73719947345353
    Total Energy =                       -527.7371994734539840
  @DF-RHF Final Energy:  -527.73964132688809
    Total Energy =                       -527.7396413268882043
  @DF-RHF Final Energy:  -527.73969364185064
    Total Energy =                       -527.7396936418506357
  @DF-RHF Final Energy:  -527.74011730354391
    Total Energy =                       -527.7401173035440252
  @DF-RHF Final Energy:  -527.73273965736803
    Total Energy =                       -527.7327396573683700
  @DF-RHF Final Energy:  -527.74028408240088
    Total Energy =                       -527.7402840824011037
  Basis Set: CC-PVTZ
  Basis Set:
  @DF-RHF Final Energy:  -527.74050926618634
    Total Energy =                       -527.7405092661867911
  Basis Set: CC-PVTZ
  Basis Set:
  Basis Set: CC-PVTZ
  Basis Set:
  @DF-RHF Final Energy:  -527.74054223883127
    Total Energy =                       -527.7405422388308125
  Basis Set: CC-PVTZ
  Basis Set:
  Basis Set: CC-PVTZ
  Basis Set:
  @DF-RHF Final Energy:  -527.74055533067371
    Total Energy =                       -527.7405553306738284
  Basis Set: CC-PVTZ
  Basis Set:
  Charge       = 0
  Multiplicity = 1
  Basis Set: CC-PVTZ
  Basis Set:

    Orbital Energies (a.u.)
    -----------------------

    Doubly Occupied:

       1A    -26.338157     2A    -26.335081     3A    -26.334825
       4A    -20.601472     5A    -11.496270     6A    -11.316687
       7A    -11.303694     8A    -11.225832     9A     -1.746993
      10A     -1.642984    11A     -1.641648    12A     -1.443057
      13A     -1.086517    14A     -1.026223    15A     -0.934880
      16A     -0.844248    17A     -0.836706    18A     -0.823982
      19A     -0.782153    20A     -0.722768    21A     -0.717133
      22A     -0.705922    23A     -0.685040    24A     -0.670131
      25A     -0.661567    26A     -0.655188    27A     -0.646777
      28A     -0.585898    29A     -0.562783    30A     -0.534916
      31A     -0.498618    32A     -0.372419

  @DF-RHF Final Energy:  -527.74055631362057

   => Energetics <=

    Nuclear Repulsion Energy =            410.5563434625557306
    One-Electron Energy =               -1545.0326588043844822
    Two-Electron Energy =                 606.7357590282080082
    DFT Exchange-Correlation Energy =       0.0000000000000000
    Empirical Dispersion Energy =           0.0000000000000000
    PCM Polarization Energy =               0.0000000000000000
    EFP Energy =                            0.0000000000000000
    Total Energy =                       -527.7405563136206865
    Molecular point group: c1
  Basis Set: CC-PVTZ
  Basis Set:

  -Total Gradient:
     Atom            X                  Y                   Z
    ------   -----------------  -----------------  -----------------
       1        0.000052647057    -0.000013146060     0.000007624031
       2       -0.000080091075     0.000030415524    -0.000072828216
       3       -0.003230440731    -0.003499766216     0.001093174538
       4       -0.000030796027     0.000025436801     0.000070260420
       5       -0.000600785720    -0.003373684711    -0.003357927783
       6        0.002863643187     0.003842181096    -0.000031251710
       7        0.001069026544     0.002998396566     0.002218712964
       8       -0.000034029051    -0.000093239874     0.000254795237
       9       -0.000013584414    -0.000063672168     0.000033607406
      10        0.000018966715     0.000039805066     0.000032340622
      11       -0.000025950684    -0.000027325289    -0.000025834129
      12       -0.000022532127    -0.000053114640    -0.000126043195
      13        0.000033926329     0.000187713909    -0.000096630186

  **** Optimization is complete! (in 23 steps) ****
    Final optimized geometry and variables:
    Molecular point group: c1

    Geometry (in Angstrom), charge = 0, multiplicity = 1:

    H           -3.359435936282     1.686067689834    -2.085765447407
    C           -2.526962114445     1.071744334868    -1.809376119687
    C           -2.294680687541     0.843672872490    -0.536726998394
    H           -1.923210236336     0.665074087511    -2.597069771765
    O           -1.286989071004     0.107774942323    -0.020203999528
    H           -2.897899891270     1.277736594180     0.236802390955
    C           -0.038679126324     0.170141255185    -0.621972366892
    C            0.983362761574    -0.325757873514     0.373642946208
    H            0.219302333039     1.185050412411    -0.894948403781
    H            0.026622218388    -0.461938025498    -1.499196404788
    F            2.179909046452    -0.286392848927    -0.179451821923
    F            1.018683390407     0.416610278532     1.455043292066
    F            0.754660876199    -1.563364361671     0.743002066723

  Mulliken Charges: (a.u.)
   Center  Symbol    Alpha    Beta     Spin     Total
       1     H     0.42220  0.42220  0.00000  0.15559
       2     C     3.19395  3.19395  0.00000 -0.38790
       3     C     2.97978  2.97978  0.00000  0.04045
       4     H     0.42607  0.42607  0.00000  0.14786
       5     O     4.15011  4.15011  0.00000 -0.30023
       6     H     0.41528  0.41528  0.00000  0.16943
       7     C     3.00591  3.00591  0.00000 -0.01181
       8     C     2.66870  2.66870  0.00000  0.66260
       9     H     0.45418  0.45418  0.00000  0.09165
      10     H     0.45440  0.45440  0.00000  0.09120
      11     F     4.61291  4.61291  0.00000 -0.22583
      12     F     4.60868  4.60868  0.00000 -0.21737
      13     F     4.60782  4.60782  0.00000 -0.21565

   Total alpha = 32.00000, Total beta = 32.00000, Total charge =  0.00000

*** Psi4 exiting successfully. Buy a developer a beer!
