                              Psi4 1.0.54 Driver

  ==> Input File <==

--------------------------------------------------------------------------
set {
	reference rhf
	basis cc-pvtz
}

set_num_threads( 4 )
memory 2 gb

molecule MOL {
0 1

O	 -3.254823	 0.420267	 -0.981285
C	 -2.664672	 0.129869	 0.003507
C	 -3.187035	 0.375057	 1.393221
O	 -1.481217	 -0.452708	 0.001092
H	 -4.135463	 -0.134198	 1.499164
H	 -2.498292	 0.032719	 2.148918
H	 -3.367822	 1.435071	 1.510518
C	 -0.332055	 0.384012	 -0.000250
C	 0.892252	 -0.506059	 -0.000295
H	 -0.360822	 1.020205	 -0.874146
H	 -0.359817	 1.021310	 0.872861
C	 2.188199	 0.299473	 -0.001416
H	 0.857046	 -1.152781	 -0.871031
H	 0.857910	 -1.151798	 0.871202
C	 3.437151	 -0.577593	 -0.000991
H	 2.209565	 0.950707	 -0.871712
H	 2.210062	 0.952234	 0.867721
C	 4.732399	 0.226982	 -0.000914
H	 3.417321	 -1.229122	 -0.869998
H	 3.416993	 -1.228707	 0.868337
H	 4.797903	 0.863451	 -0.876963
H	 5.598517	 -0.424436	 -0.000420
H	 4.797415	 0.864118	 0.874691

	symmetry c1
}
set optking {
	frozen_dihedral = ("
		1 2 4 8
	")
}

ee,wfn = optimize('scf', return_wfn=True)
oeprop( wfn, 'DIPOLE', 'QUADRUPOLE', 'MULLIKEN_CHARGES')
f=open( 'psi4out.xyz', 'w' )
f.write( "23  " )
f.write( str(ee) + "\n" )
f.write( MOL.save_string_xyz() )
f.close()
--------------------------------------------------------------------------

    Molecular point group: c1
  Charge       = 0
  Multiplicity = 1
  Basis Set: CC-PVTZ
  Basis Set:
  @DF-RHF Final Energy:  -423.11344347312479
    Total Energy =                       -423.1134434731246756
    Molecular point group: c1
  Basis Set: CC-PVTZ
  Basis Set:
  Basis Set: CC-PVTZ
  Basis Set:
  @DF-RHF Final Energy:  -423.11394173464913
    Total Energy =                       -423.1139417346491882
  Basis Set: CC-PVTZ
  Basis Set:
  Basis Set: CC-PVTZ
  Basis Set:
  @DF-RHF Final Energy:  -423.11387810868968
    Total Energy =                       -423.1138781086897325
  Basis Set: CC-PVTZ
  Basis Set:
  Basis Set: CC-PVTZ
  Basis Set:
  @DF-RHF Final Energy:  -423.11487170651077
    Total Energy =                       -423.1148717065101437
  Basis Set: CC-PVTZ
  Basis Set:
  @DF-RHF Final Energy:  -423.11491393076705
    Total Energy =                       -423.1149139307668747
  @DF-RHF Final Energy:  -423.11494653260030
    Total Energy =                       -423.1149465326002428
  @DF-RHF Final Energy:  -423.11447238604950
    Total Energy =                       -423.1144723860495560
  @DF-RHF Final Energy:  -423.11520828612379
    Total Energy =                       -423.1152082861232202
  @DF-RHF Final Energy:  -423.11436490708337
    Total Energy =                       -423.1143649070828587
  @DF-RHF Final Energy:  -423.08835620081567
    Total Energy =                       -423.0883562008156105
  @DF-RHF Final Energy:  -423.11533895751779
    Total Energy =                       -423.1153389575174515
  @DF-RHF Final Energy:  -423.11576983556188
    Total Energy =                       -423.1157698355617640
  @DF-RHF Final Energy:  -423.11567069719149
    Total Energy =                       -423.1156706971916037
  @DF-RHF Final Energy:  -423.11619579158287
    Total Energy =                       -423.1161957915826406
  @DF-RHF Final Energy:  -423.11382216938847
    Total Energy =                       -423.1138221693882997
  @DF-RHF Final Energy:  -423.11646186769781
    Total Energy =                       -423.1164618676978080
  @DF-RHF Final Energy:  -423.11664449012750
    Total Energy =                       -423.1166444901271007
  Basis Set: CC-PVTZ
  Basis Set:
  @DF-RHF Final Energy:  -423.11663780711558
    Total Energy =                       -423.1166378071158078
  Basis Set: CC-PVTZ
  Basis Set:
  Basis Set: CC-PVTZ
  Basis Set:
  @DF-RHF Final Energy:  -423.11672795714594
    Total Energy =                       -423.1167279571462814
  Basis Set: CC-PVTZ
  Basis Set:
  Basis Set: CC-PVTZ
  Basis Set:
  @DF-RHF Final Energy:  -423.11673873031191
    Total Energy =                       -423.1167387303125906
  Basis Set: CC-PVTZ
  Basis Set:
  Charge       = 0
  Multiplicity = 1
  Basis Set: CC-PVTZ
  Basis Set:

    Orbital Energies (a.u.)
    -----------------------

    Doubly Occupied:

       1A    -20.574977     2A    -20.544168     3A    -11.369200
       4A    -11.289759     5A    -11.235496     6A    -11.224339
       7A    -11.223696     8A    -11.220996     9A    -11.212373
      10A     -1.460243    11A     -1.368653    12A     -1.095730
      13A     -1.037880    14A     -1.009732    15A     -0.934915
      16A     -0.843021    17A     -0.805072    18A     -0.775679
      19A     -0.699524    20A     -0.689792    21A     -0.655751
      22A     -0.652030    23A     -0.620435    24A     -0.591888
      25A     -0.583145    26A     -0.576815    27A     -0.560837
      28A     -0.549703    29A     -0.516569    30A     -0.501845
      31A     -0.493854    32A     -0.479875    33A     -0.473537
      34A     -0.472896    35A     -0.454487    36A     -0.436722

  @DF-RHF Final Energy:  -423.11673877649764

   => Energetics <=

    Nuclear Repulsion Energy =            449.7234476968582157
    One-Electron Energy =               -1467.2091013857302642
    Two-Electron Energy =                 594.3689149123742936
    DFT Exchange-Correlation Energy =       0.0000000000000000
    Empirical Dispersion Energy =           0.0000000000000000
    PCM Polarization Energy =               0.0000000000000000
    EFP Energy =                            0.0000000000000000
    Total Energy =                       -423.1167387764977548
    Molecular point group: c1
  Basis Set: CC-PVTZ
  Basis Set:

  -Total Gradient:
     Atom            X                  Y                   Z
    ------   -----------------  -----------------  -----------------
       1       -0.001290984908    -0.002542293135    -0.000058516534
       2        0.001921745188     0.003653443721     0.001175116821
       3       -0.000001832839    -0.000027965048    -0.000000726684
       4       -0.000734363355    -0.000979591788    -0.003373295073
       5        0.000002154980     0.000015834754    -0.000003591588
       6       -0.000000654839     0.000004746287    -0.000001331940
       7        0.000009424566     0.000002861676     0.000004786195
       8        0.000084100353    -0.000131216743     0.002261881970
       9        0.000006915963     0.000002800141     0.000002611183
      10        0.000002239801     0.000001956165     0.000000783088
      11       -0.000000930774     0.000002416430    -0.000000207607
      12       -0.000000603823    -0.000002744625    -0.000006798616
      13        0.000000391709     0.000002932912     0.000000165583
      14        0.000000809505    -0.000002733930    -0.000001264376
      15        0.000001208093     0.000000770527    -0.000000001439
      16       -0.000000740591    -0.000000357064    -0.000002480327
      17       -0.000000350580    -0.000000287212    -0.000003392296
      18        0.000001209684    -0.000001173619     0.000005452298
      19       -0.000000612406     0.000003292236     0.000000398245
      20        0.000000718516    -0.000002629169    -0.000001078194
      21       -0.000001210877    -0.000001896041     0.000000580489
      22        0.000000100734     0.000000661870     0.000001224347
      23        0.000001265895     0.000001171659    -0.000000315543

  **** Optimization is complete! (in 21 steps) ****
    Final optimized geometry and variables:
    Molecular point group: c1

    Geometry (in Angstrom), charge = 0, multiplicity = 1:

    O           -3.288992316491     0.463422566770    -0.852460552545
    C           -2.693898793510     0.132073969431     0.106278821153
    C           -3.209294742899     0.262303425672     1.512376825078
    O           -1.498134770109    -0.484772410064     0.021867182467
    H           -3.331782160013    -0.729614211081     1.929849206590
    H           -2.490848577537     0.786746130427     2.130012433110
    H           -4.152405753875     0.784442594333     1.516514158699
    C           -0.344637331878     0.338246516008     0.008580978218
    C            0.874882331677    -0.549768732913    -0.114038828719
    H           -0.408446298828     1.024452054892    -0.828208642556
    H           -0.300539774376     0.920991739822     0.924412449429
    C            2.174182834078     0.249563105485    -0.143158399888
    H            0.779038090892    -1.140980502843    -1.018059045861
    H            0.883408225019    -1.246021711053     0.718105299480
    C            3.413665689578    -0.631941496010    -0.269260369652
    H            2.149836810375     0.951376284927    -0.973160803185
    H            2.253842714305     0.848776988232     0.760979178202
    C            4.713137146562     0.165175069097    -0.298463478545
    H            3.336579424062    -1.229752349217    -1.172826932050
    H            3.439478084125    -1.334050043231     0.559295946793
    H            4.731951463508     0.852704820245    -1.137431398796
    H            5.572075920659    -0.489451091119    -0.388687748436
    H            4.835698731793     0.748194258967     0.608291652411

  Mulliken Charges: (a.u.)
   Center  Symbol    Alpha    Beta     Spin     Total
       1     O     4.17037  4.17037  0.00000 -0.34073
       2     C     2.80576  2.80576  0.00000  0.38848
       3     C     3.14423  3.14423  0.00000 -0.28847
       4     O     4.16995  4.16995  0.00000 -0.33989
       5     H     0.44358  0.44358  0.00000  0.11284
       6     H     0.45058  0.45058  0.00000  0.09884
       7     H     0.43673  0.43673  0.00000  0.12654
       8     C     2.97373  2.97373  0.00000  0.05255
       9     C     3.08470  3.08470  0.00000 -0.16939
      10     H     0.45478  0.45478  0.00000  0.09044
      11     H     0.46658  0.46658  0.00000  0.06685
      12     C     3.10003  3.10003  0.00000 -0.20005
      13     H     0.44512  0.44512  0.00000  0.10976
      14     H     0.44989  0.44989  0.00000  0.10022
      15     C     3.08535  3.08535  0.00000 -0.17069
      16     H     0.45228  0.45228  0.00000  0.09544
      17     H     0.45464  0.45464  0.00000  0.09071
      18     C     3.14952  3.14952  0.00000 -0.29904
      19     H     0.45212  0.45212  0.00000  0.09576
      20     H     0.45335  0.45335  0.00000  0.09331
      21     H     0.45432  0.45432  0.00000  0.09136
      22     H     0.44721  0.44721  0.00000  0.10558
      23     H     0.45519  0.45519  0.00000  0.08961

   Total alpha = 36.00000, Total beta = 36.00000, Total charge = -0.00000

*** Psi4 exiting successfully. Buy a developer a beer!
