  ==> Input File <==

--------------------------------------------------------------------------
set {
	reference rhf
	basis 6-31G*
}

set_num_threads( 4 )
memory 2 gb

molecule MOL {
0 1

O	 1.517926	 0.161294	 0.000176
C	 2.701189	 0.057885	 -0.047330
C	 3.660902	 1.130185	 -0.503301
O	 3.347903	 -1.046386	 0.304773
C	 2.963288	 2.427023	 -0.907854
H	 4.371540	 1.284595	 0.301896
H	 4.234326	 0.719908	 -1.330679
C	 3.913396	 3.488879	 -1.471990
H	 2.428994	 2.828838	 -0.052171
H	 2.207627	 2.195855	 -1.650794
C	 4.924043	 4.049695	 -0.467406
H	 3.311703	 4.310046	 -1.854577
H	 4.445643	 3.080197	 -2.329721
C	 5.774126	 5.181789	 -1.047684
H	 4.391813	 4.413370	 0.410255
H	 5.583915	 3.258623	 -0.118484
C	 6.791223	 5.746420	 -0.054288
H	 5.121305	 5.984085	 -1.387361
H	 6.298289	 4.821790	 -1.931626
C	 7.633439	 6.879064	 -0.640367
H	 6.269211	 6.105694	 0.830059
H	 7.447431	 4.946820	 0.283072
H	 8.344500	 7.258116	 0.087177
H	 7.008303	 7.709758	 -0.955562
H	 8.195072	 6.542018	 -1.507109
C	 4.728119	 -1.109107	 -0.004993
H	 4.882018	 -1.033965	 -1.071845
H	 5.068212	 -2.067527	 0.355250
H	 5.265056	 -0.311663	 0.488280

	symmetry c1
}
set optking {
	frozen_dihedral = ("
		1 2 4 26
	")
}

ee = optimize('scf')
oeprop('DIPOLE', 'QUADRUPOLE', 'MULLIKEN_CHARGES')
f=open( 'psi4out.xyz', 'w' )
f.write( "29  " )
f.write( str(ee) + "\n" )
f.write( MOL.save_string_xyz() )
f.close()
--------------------------------------------------------------------------

    Molecular point group: c1
  Charge       = 0
  Multiplicity = 1
  Basis Set: 6-31G*
  Basis Set:
  @DF-RHF Final Energy:  -501.01641993475334
    Total Energy =                       -501.0164199347533440
    Molecular point group: c1
  Basis Set: 6-31G*
  Basis Set:
  Basis Set: 6-31G*
  Basis Set:
  @DF-RHF Final Energy:  -501.01399902895298
    Total Energy =                       -501.0139990289526395
  Basis Set: 6-31G*
  Basis Set:
  Basis Set: 6-31G*
  Basis Set:
  @DF-RHF Final Energy:  -501.02479750698433
    Total Energy =                       -501.0247975069844415
  Basis Set: 6-31G*
  Basis Set:
  Basis Set: 6-31G*
  Basis Set:
  @DF-RHF Final Energy:  -501.02769048595485
    Total Energy =                       -501.0276904859547358
  Basis Set: 6-31G*
  Basis Set:
  @DF-RHF Final Energy:  -501.02708385004075
    Total Energy =                       -501.0270838500409809
  Basis Set: 6-31G*
  Basis Set:
  @DF-RHF Final Energy:  -501.02818546837898
    Total Energy =                       -501.0281854683788652
  Basis Set: 6-31G*
  Basis Set:
  Basis Set: 6-31G*
  Basis Set:
  @DF-RHF Final Energy:  -501.02872076369874
    Total Energy =                       -501.0287207636984022
  Basis Set: 6-31G*
  Basis Set:
  Basis Set: 6-31G*
  Basis Set:
  @DF-RHF Final Energy:  -501.02872310561133
    Total Energy =                       -501.0287231056101973
  Basis Set: 6-31G*
  Basis Set:
  Charge       = 0
  Multiplicity = 1
  Basis Set: 6-31G*
  Basis Set:

    Orbital Energies (a.u.)
    -----------------------

    Doubly Occupied:

       1A    -20.601486     2A    -20.538723     3A    -11.373346
       4A    -11.296272     5A    -11.244912     6A    -11.223287
       7A    -11.221676     8A    -11.220335     9A    -11.219124
      10A    -11.218018    11A    -11.211747    12A     -1.462623
      13A     -1.364222    14A     -1.101801    15A     -1.068771
      16A     -1.014748    17A     -0.986112    18A     -0.945567
      19A     -0.870198    20A     -0.806048    21A     -0.795082
      22A     -0.762934    23A     -0.704754    24A     -0.688105
      25A     -0.672455    26A     -0.654675    27A     -0.632828
      28A     -0.608001    29A     -0.598761    30A     -0.588034
      31A     -0.570404    32A     -0.555938    33A     -0.542225
      34A     -0.540369    35A     -0.521246    36A     -0.510146
      37A     -0.501611    38A     -0.481358    39A     -0.473961
      40A     -0.466029    41A     -0.462274    42A     -0.446172
      43A     -0.443223    44A     -0.430200

  @DF-RHF Final Energy:  -501.02872290322478

   => Energetics <=

    Nuclear Repulsion Energy =            614.9191998301261037
    One-Electron Energy =               -1900.6162514838908919
    Two-Electron Energy =                 784.6683287505400131
    DFT Exchange-Correlation Energy =       0.0000000000000000
    Empirical Dispersion Energy =           0.0000000000000000
    PCM Polarization Energy =               0.0000000000000000
    EFP Energy =                            0.0000000000000000
    Total Energy =                       -501.0287229032248888
    Molecular point group: c1
  Basis Set: 6-31G*
  Basis Set:

  -Total Gradient:
     Atom            X                  Y                   Z
    ------   -----------------  -----------------  -----------------
       1        0.000127066925    -0.000515384570    -0.000920292365
       2        0.000019785372     0.000318662801     0.000844789064
       3       -0.000038909910    -0.000034496249     0.000031910654
       4        0.000155439949     0.000484382465     0.000791731261
       5        0.000017694584     0.000012542126     0.000063919790
       6       -0.000056602361    -0.000007883002    -0.000013207462
       7       -0.000011999254    -0.000020385838    -0.000008350065
       8        0.000026013951    -0.000012241152    -0.000001333253
       9        0.000027672181    -0.000008597783     0.000011507173
      10       -0.000013127400     0.000020843553     0.000006047639
      11        0.000013204727     0.000022530836    -0.000025029522
      12        0.000009319419     0.000006028056    -0.000038288500
      13        0.000019187346    -0.000032180059     0.000030008044
      14       -0.000024504597     0.000015143825     0.000005872759
      15       -0.000001587216    -0.000017263393     0.000018000329
      16        0.000013236149     0.000062853662    -0.000036584237
      17       -0.000010873494     0.000008828612     0.000003832991
      18        0.000001803417     0.000002509843    -0.000008946380
      19       -0.000000352452    -0.000003848582     0.000007972933
      20       -0.000000540049    -0.000000197442    -0.000000091624
      21        0.000001547778     0.000000972985     0.000002291243
      22        0.000000544025    -0.000001706986    -0.000000896376
      23       -0.000000076797    -0.000000690303    -0.000000069880
      24        0.000000427641    -0.000000999581     0.000000625758
      25       -0.000000273346     0.000000144606    -0.000000524756
      26       -0.000242470306    -0.000289771456    -0.000764602232
      27       -0.000032171746    -0.000005381662     0.000004750387
      28       -0.000035304791     0.000022947825    -0.000006023349
      29        0.000035850254    -0.000027363137     0.000000979977

  **** Optimization is complete! (in 9 steps) ****
    Final optimized geometry and variables:
    Molecular point group: c1

    Geometry (in Angstrom), charge = 0, multiplicity = 1:

    O           -2.774877395924    -2.192075684861     0.443254276760
    C           -1.603825562815    -2.348946326418     0.368263946900
    C           -0.646171735452    -1.269911575308    -0.099542978593
    O           -1.087277853029    -3.527058648403     0.729754725863
    C           -1.366107783595     0.026168966392    -0.470177354350
    H            0.080197356237    -1.102316925196     0.689826602503
    H           -0.084110350059    -1.642945927612    -0.952107329767
    C           -0.437753131117     1.105731418423    -1.036830223957
    H           -1.887084595317     0.406498147228     0.402267647936
    H           -2.133604900199    -0.203862967803    -1.200210631211
    C            0.578230232013     1.674170116317    -0.041782408065
    H           -1.057159496247     1.920953137307    -1.403156711831
    H            0.088271566490     0.714116164869    -1.906496731608
    C            1.392552155237     2.833460103337    -0.619695579870
    H            0.054059886666     2.012553007014     0.850559576100
    H            1.262532559221     0.893509792201     0.283776201148
    C            2.414501764933     3.406176358559     0.364035142138
    H            0.715803439856     3.625527271151    -0.935291129549
    H            1.908388585652     2.498705111721    -1.518367722472
    C            3.220219602352     4.566291672158    -0.219574035854
    H            1.900649616220     3.740186057499     1.262871864705
    H            3.094718837357     2.616828667474     0.677459416480
    H            3.935756222337     4.950279266733     0.500884110675
    H            2.570910155994     5.387183742458    -0.510406759859
    H            3.773243302407     4.255273786182    -1.101451106081
    C            0.252065306735    -3.886626300844     0.489738855208
    H            0.476898104599    -3.895062441835    -0.569612063941
    H            0.360000662647    -4.887077671245     0.878743780310
    H            0.945602111132    -3.232757279387     1.003068197444

  Mulliken Charges: (a.u.)
   Center  Symbol    Alpha    Beta     Spin     Total
       1     O     4.26736  4.26736  0.00000 -0.53472
       2     C     2.59722  2.59722  0.00000  0.80555
       3     C     3.23598  3.23598  0.00000 -0.47195
       4     O     4.30357  4.30357  0.00000 -0.60715
       5     C     3.15021  3.15021  0.00000 -0.30043
       6     H     0.40128  0.40128  0.00000  0.19744
       7     H     0.40577  0.40577  0.00000  0.18847
       8     C     3.15749  3.15749  0.00000 -0.31499
       9     H     0.40970  0.40970  0.00000  0.18060
      10     H     0.40617  0.40617  0.00000  0.18766
      11     C     3.15470  3.15470  0.00000 -0.30941
      12     H     0.41674  0.41674  0.00000  0.16651
      13     H     0.42480  0.42480  0.00000  0.15040
      14     C     3.15034  3.15034  0.00000 -0.30068
      15     H     0.42140  0.42140  0.00000  0.15720
      16     H     0.42639  0.42639  0.00000  0.14723
      17     C     3.15150  3.15150  0.00000 -0.30300
      18     H     0.42244  0.42244  0.00000  0.15513
      19     H     0.42421  0.42421  0.00000  0.15158
      20     C     3.23943  3.23943  0.00000 -0.47887
      21     H     0.42222  0.42222  0.00000  0.15555
      22     H     0.42420  0.42420  0.00000  0.15160
      23     H     0.41886  0.41886  0.00000  0.16228
      24     H     0.42104  0.42104  0.00000  0.15792
      25     H     0.42188  0.42188  0.00000  0.15624
      26     C     3.09340  3.09340  0.00000 -0.18679
      27     H     0.41628  0.41628  0.00000  0.16745
      28     H     0.39795  0.39795  0.00000  0.20409
      29     H     0.41747  0.41747  0.00000  0.16506

   Total alpha = 44.00000, Total beta = 44.00000, Total charge = -0.00000
