  ==> Input File <==

--------------------------------------------------------------------------
set {
	reference rhf
	basis 6-31G*
}

set_num_threads( 4 )
memory 2 gb

molecule MOL {
0 1

O	 1.357642	 -2.755292	 -0.361031
C	 0.430845	 -2.031367	 -0.192639
C	 -1.010595	 -2.460417	 -0.165551
O	 0.550821	 -0.724572	 0.000672
H	 -1.452656	 -2.198327	 0.788689
H	 -1.073799	 -3.526808	 -0.322737
H	 -1.562454	 -1.937419	 -0.937888
C	 1.863949	 -0.193559	 -0.000319
H	 2.028859	 0.409284	 -0.881648
H	 2.526261	 -1.045082	 -0.000003
H	 2.029520	 0.410555	 0.880008

	symmetry c1
}
set optking {
	frozen_dihedral = ("
		2 4 8 9
	")
}

ee = optimize('scf')
oeprop('DIPOLE', 'QUADRUPOLE', 'MULLIKEN_CHARGES')
f=open( 'psi4out.xyz', 'w' )
f.write( "11  " )
f.write( str(ee) + "\n" )
f.write( MOL.save_string_xyz() )
f.close()
--------------------------------------------------------------------------

    Molecular point group: c1
  Charge       = 0
  Multiplicity = 1
  Basis Set: 6-31G*
  Basis Set:
  @DF-RHF Final Energy:  -266.83231683004561
    Total Energy =                       -266.8323168300457837
    Molecular point group: c1
  Basis Set: 6-31G*
  Basis Set:
  Basis Set: 6-31G*
  Basis Set:
  @DF-RHF Final Energy:  -266.83333287320852
    Total Energy =                       -266.8333328732084624
  Basis Set: 6-31G*
  Basis Set:
  Basis Set: 6-31G*
  Basis Set:
  @DF-RHF Final Energy:  -266.83429033025539
    Total Energy =                       -266.8342903302553282
  Basis Set: 6-31G*
  Basis Set:
  Basis Set: 6-31G*
  Basis Set:
  @DF-RHF Final Energy:  -266.83428589444156
    Total Energy =                       -266.8342858944413933
  Basis Set: 6-31G*
  Basis Set:
  Basis Set: 6-31G*
  Basis Set:
  @DF-RHF Final Energy:  -266.83443921821794
    Total Energy =                       -266.8344392182178240
  Basis Set: 6-31G*
  Basis Set:
  Charge       = 0
  Multiplicity = 1
  Basis Set: 6-31G*
  Basis Set:

    Orbital Energies (a.u.)
    -----------------------

    Doubly Occupied:

       1A    -20.604897     2A    -20.545730     3A    -11.377790
       4A    -11.280685     5A    -11.234055     6A     -1.468558
       7A     -1.364966     8A     -1.035973     9A     -0.953434
      10A     -0.777172    11A     -0.696963    12A     -0.678729
      13A     -0.677000    14A     -0.597212    15A     -0.591177
      16A     -0.560543    17A     -0.528598    18A     -0.519217
      19A     -0.454126    20A     -0.442502

  @DF-RHF Final Energy:  -266.83444627640375

   => Energetics <=

    Nuclear Repulsion Energy =            182.8654697252669052
    One-Electron Energy =                -726.6211811283505995
    Two-Electron Energy =                 276.9212651266798275
    DFT Exchange-Correlation Energy =       0.0000000000000000
    Empirical Dispersion Energy =           0.0000000000000000
    PCM Polarization Energy =               0.0000000000000000
    EFP Energy =                            0.0000000000000000
    Total Energy =                       -266.8344462764039235
    Molecular point group: c1
  Basis Set: 6-31G*
  Basis Set:

  -Total Gradient:
     Atom            X                  Y                   Z
    ------   -----------------  -----------------  -----------------
       1        0.000058164548     0.000093187578     0.000008429182
       2        0.000047386502    -0.000109018885     0.000702544513
       3       -0.000042350771    -0.000001911507    -0.000017315008
       4       -0.000067954885     0.000407661956    -0.000933723163
       5       -0.000017086502    -0.000000007956     0.000013577393
       6       -0.000002508589     0.000002821398    -0.000002187870
       7        0.000013622053    -0.000010007882     0.000013152433
       8        0.000281650009    -0.000961815733    -0.000177281701
       9       -0.000312809030     0.000623678543     0.000403407978
      10        0.000066732168    -0.000036167709    -0.000002611789
      11       -0.000024845504    -0.000008419801    -0.000007991967

  **** Optimization is complete! (in 6 steps) ****
    Final optimized geometry and variables:
    Molecular point group: c1

    Geometry (in Angstrom), charge = 0, multiplicity = 1:

    O            0.676693000947    -1.173047245648    -0.240952987219
    C           -0.223476778346    -0.421028852476    -0.054186392638
    C           -1.675832913224    -0.811601098373    -0.010884557436
    O           -0.078190748313     0.883712979532     0.143954155994
    H           -2.098427524275    -0.543239608443     0.950391791998
    H           -1.769723643538    -1.874801192387    -0.173658330326
    H           -2.222814936994    -0.268886184323    -0.773048150494
    C            1.225269962996     1.441749606104     0.153842238030
    H            1.347906948940     2.045462571331    -0.734983376993
    H            1.975122337095     0.669556272105     0.186499654718
    H            1.294947321214     2.073901000162     1.027255735223

  Mulliken Charges: (a.u.)
   Center  Symbol    Alpha    Beta     Spin     Total
       1     O     4.28174  4.28174  0.00000 -0.56349
       2     C     2.62208  2.62208  0.00000  0.75583
       3     C     3.28212  3.28212  0.00000 -0.56424
       4     O     4.30142  4.30142  0.00000 -0.60284
       5     H     0.40015  0.40015  0.00000  0.19970
       6     H     0.39680  0.39680  0.00000  0.20640
       7     H     0.40001  0.40001  0.00000  0.19999
       8     C     3.09825  3.09825  0.00000 -0.19650
       9     H     0.41256  0.41256  0.00000  0.17489
      10     H     0.39373  0.39373  0.00000  0.21255
      11     H     0.41114  0.41114  0.00000  0.17771

   Total alpha = 20.00000, Total beta = 20.00000, Total charge = -0.00000
