  ==> Input File <==

--------------------------------------------------------------------------
set {
	reference rhf
	basis cc-pvtz
}

set_num_threads( 4 )
memory 2 gb

molecule MOL {
0 1

H	 -3.091675	 0.208959	 -0.200839
O	 -2.346257	 -0.289210	 0.080372
C	 -1.183935	 0.486039	 -0.009831
C	 0.062853	 -0.375310	 0.027457
H	 -1.178881	 1.094526	 -0.908634
H	 -1.184406	 1.155156	 0.838676
O	 1.172093	 0.457955	 -0.054438
H	 0.052476	 -1.081302	 -0.804627
H	 0.076323	 -0.955658	 0.947560
C	 2.395478	 -0.199028	 -0.000366
H	 2.505946	 -0.901710	 -0.823354
H	 3.174616	 0.545641	 -0.071768
H	 2.513730	 -0.742241	 0.934223

	symmetry c1
}
set optking {
	frozen_dihedral = ("
		1 2 3 5
	")
}

ee = optimize('scf')
oeprop('DIPOLE', 'QUADRUPOLE', 'MULLIKEN_CHARGES')
f=open( 'psi4out.xyz', 'w' )
f.write( "13  " )
f.write( str(ee) + "\n" )
f.write( MOL.save_string_xyz() )
f.close()
--------------------------------------------------------------------------

    Molecular point group: c1
  Charge       = 0
  Multiplicity = 1
  Basis Set: CC-PVTZ
  Basis Set:
  @DF-RHF Final Energy:  -268.06113344788821
    Total Energy =                       -268.0611334478882668
    Molecular point group: c1
  Basis Set: CC-PVTZ
  Basis Set:
  Basis Set: CC-PVTZ
  Basis Set:
  @DF-RHF Final Energy:  -268.06221360197350
    Total Energy =                       -268.0622136019737241
  Basis Set: CC-PVTZ
  Basis Set:
  Basis Set: CC-PVTZ
  Basis Set:
  @DF-RHF Final Energy:  -268.06249121280320
    Total Energy =                       -268.0624912128033657
  Basis Set: CC-PVTZ
  Basis Set:
  Basis Set: CC-PVTZ
  Basis Set:
  @DF-RHF Final Energy:  -268.06249973650262
    Total Energy =                       -268.0624997365024456
  Basis Set: CC-PVTZ
  Basis Set:
  Charge       = 0
  Multiplicity = 1
  Basis Set: CC-PVTZ
  Basis Set:

    Orbital Energies (a.u.)
    -----------------------

    Doubly Occupied:

       1A    -20.552567     2A    -20.551748     3A    -11.267454
       4A    -11.265172     5A    -11.264792     6A     -1.388747
       7A     -1.368107     8A     -1.019654     9A     -0.911869
      10A     -0.832178    11A     -0.713004    12A     -0.685164
      13A     -0.644134    14A     -0.637545    15A     -0.618613
      16A     -0.554956    17A     -0.540059    18A     -0.497167
      19A     -0.472578    20A     -0.443915    21A     -0.421112

  @DF-RHF Final Energy:  -268.06250062477159

   => Energetics <=

    Nuclear Repulsion Energy =            190.6805755465975949
    One-Electron Energy =                -744.1850871909937268
    Two-Electron Energy =                 285.4420110196246014
    DFT Exchange-Correlation Energy =       0.0000000000000000
    Empirical Dispersion Energy =           0.0000000000000000
    PCM Polarization Energy =               0.0000000000000000
    EFP Energy =                            0.0000000000000000
    Total Energy =                       -268.0625006247715874
    Molecular point group: c1
  Basis Set: CC-PVTZ
  Basis Set:

  -Total Gradient:
     Atom            X                  Y                   Z
    ------   -----------------  -----------------  -----------------
       1        0.000165350080    -0.000371680849    -0.000946161506
       2       -0.000312977464     0.000682575251     0.001268054188
       3        0.000597397542    -0.000984743065    -0.000707850277
       4       -0.000022113087    -0.000015556023     0.000016813166
       5       -0.000438639947     0.000645660510     0.000411364318
       6       -0.000000712694    -0.000009373472    -0.000006508306
       7        0.000037741527     0.000017257989    -0.000018807528
       8       -0.000005151564     0.000005122482    -0.000012524809
       9       -0.000021025099     0.000019737923    -0.000007956901
      10        0.000000972377     0.000014211050     0.000008021150
      11       -0.000005270404     0.000001756147     0.000001360197
      12        0.000008913843    -0.000002689149    -0.000003716407
      13       -0.000004485111    -0.000002278794    -0.000002087284

  **** Optimization is complete! (in 5 steps) ****
    Final optimized geometry and variables:
    Molecular point group: c1

    Geometry (in Angstrom), charge = 0, multiplicity = 1:

    H           -3.065613988842     0.108612302402    -0.225756109959
    O           -2.298292699481    -0.333234812124     0.085065794435
    C           -1.178464506697     0.502886473840    -0.021970339665
    C            0.053613906594    -0.371768789267     0.010721907662
    H           -1.194903952635     1.072723171408    -0.945425928546
    H           -1.138909338924     1.208749857252     0.801871317393
    O            1.172354927764     0.452885038139    -0.046532712856
    H            0.034935425232    -1.061355007397    -0.830455426964
    H            0.052703171089    -0.963760742271     0.923554709983
    C            2.386373691835    -0.221958735330    -0.015087437202
    H            2.486064012010    -0.900613099970    -0.859173080451
    H            3.175812180728     0.513746677306    -0.064773350330
    H            2.498622667616    -0.795410244803     0.902186584298

  Mulliken Charges: (a.u.)
   Center  Symbol    Alpha    Beta     Spin     Total
       1     H     0.39258  0.39258  0.00000  0.21485
       2     O     4.20033  4.20033  0.00000 -0.40066
       3     C     2.96525  2.96525  0.00000  0.06949
       4     C     2.96354  2.96354  0.00000  0.07293
       5     H     0.47090  0.47090  0.00000  0.05820
       6     H     0.46999  0.46999  0.00000  0.06002
       7     O     4.17635  4.17635  0.00000 -0.35271
       8     H     0.47160  0.47160  0.00000  0.05680
       9     H     0.47022  0.47022  0.00000  0.05956
      10     C     3.03111  3.03111  0.00000 -0.06223
      11     H     0.47076  0.47076  0.00000  0.05849
      12     H     0.44701  0.44701  0.00000  0.10598
      13     H     0.47036  0.47036  0.00000  0.05927

   Total alpha = 21.00000, Total beta = 21.00000, Total charge = -0.00000
