  ==> Input File <==

--------------------------------------------------------------------------
set {
	reference rhf
	basis 6-31G*
}

set_num_threads( 1 )
memory 2 gb

molecule MOL {
0 1

H	 -1.836216	 1.387520	 -0.000064
C	 -1.301823	 0.443321	 -0.000031
O	 -0.003969	 0.658512	 0.000451
O	 -1.829879	 -0.616434	 -0.000857
C	 0.847329	 -0.465876	 0.220067
C	 2.276169	 0.030792	 0.174732
H	 0.654105	 -1.204262	 -0.545941
H	 0.604753	 -0.905564	 1.177734
H	 2.498788	 0.475051	 -0.788652
H	 2.958765	 -0.796731	 0.337525
H	 2.449360	 0.775216	 0.943318

	symmetry c1
}
set optking {
	frozen_dihedral = ("
		7 5 3 2
	")
}

ee = energy('scf')
oeprop('DIPOLE', 'QUADRUPOLE', 'MULLIKEN_CHARGES')
f=open( 'psi4out.xyz', 'w' )
f.write( "11  " )
f.write( str(ee) + "\n" )
f.write( MOL.save_string_xyz() )
f.close()
--------------------------------------------------------------------------

    Molecular point group: c1

    Geometry (in Angstrom), charge = 0, multiplicity = 1:

       Center              X                  Y                   Z               Mass
    ------------   -----------------  -----------------  -----------------  -----------------
           H         -1.835064772421     1.380753027053    -0.079260270012     1.007825032070
           C         -1.300671772421     0.436554027053    -0.079227270012    12.000000000000
           O         -0.002817772421     0.651745027053    -0.078745270012    15.994914619560
           O         -1.828727772421    -0.623200972947    -0.080053270012    15.994914619560
           C          0.848480227579    -0.472642972947     0.140870729988    12.000000000000
           C          2.277320227579     0.024025027053     0.095535729988    12.000000000000
           H          0.655256227579    -1.211028972947    -0.625137270012     1.007825032070
           H          0.605904227579    -0.912330972947     1.098537729988     1.007825032070
           H          2.499939227579     0.468284027053    -0.867848270012     1.007825032070
           H          2.959916227579    -0.803497972947     0.258328729988     1.007825032070
           H          2.450511227579     0.768449027053     0.864121729988     1.007825032070

  Charge       = 0
  Multiplicity = 1
  Basis Set: 6-31G*
  Basis Set:

    Orbital Energies (a.u.)
    -----------------------

    Doubly Occupied:

       1A    -20.612357     2A    -20.557318     3A    -11.378405
       4A    -11.292095     5A    -11.226894     6A     -1.476295
       7A     -1.374075     8A     -1.052786     9A     -0.902368
      10A     -0.806054    11A     -0.737740    12A     -0.690078
      13A     -0.677601    14A     -0.593524    15A     -0.573928
      16A     -0.556833    17A     -0.518817    18A     -0.514342
      19A     -0.460557    20A     -0.453774

  @DF-RHF Final Energy:  -266.82831913385689

   => Energetics <=

    Nuclear Repulsion Energy =            179.2815930875631523
    One-Electron Energy =                -719.3081576459348980
    Two-Electron Energy =                 273.1982454245149938
    DFT Exchange-Correlation Energy =       0.0000000000000000
    Empirical Dispersion Energy =           0.0000000000000000
    PCM Polarization Energy =               0.0000000000000000
    EFP Energy =                            0.0000000000000000
    Total Energy =                       -266.8283191338567804

  Mulliken Charges: (a.u.)
   Center  Symbol    Alpha    Beta     Spin     Total
       1     H     0.41070  0.41070  0.00000  0.17860
       2     C     2.72750  2.72750  0.00000  0.54500
       3     O     4.29136  4.29136  0.00000 -0.58273
       4     O     4.26259  4.26259  0.00000 -0.52518
       5     C     3.00653  3.00653  0.00000 -0.01306
       6     C     3.24944  3.24944  0.00000 -0.49887
       7     H     0.40615  0.40615  0.00000  0.18770
       8     H     0.41004  0.41004  0.00000  0.17992
       9     H     0.40993  0.40993  0.00000  0.18013
      10     H     0.41503  0.41503  0.00000  0.16994
      11     H     0.41072  0.41072  0.00000  0.17856

   Total alpha = 20.00000, Total beta = 20.00000, Total charge = -0.00000
