  ==> Input File <==

--------------------------------------------------------------------------
set {
	reference rhf
	basis cc-pvtz
}

set_num_threads( 4 )
memory 2 gb

molecule MOL {
0 1

H	 1.343274	 -0.829592	 -2.980073
C	 1.362379	 -0.359731	 -2.002499
C	 0.054909	 -0.621600	 -1.267345
H	 1.511275	 0.704754	 -2.135254
H	 2.219124	 -0.751482	 -1.468408
N	 0.000297	 0.000045	 0.046090
H	 -0.751741	 -0.223537	 -1.867327
H	 -0.122975	 -1.698385	 -1.197916
C	 -1.359159	 0.315706	 0.454404
C	 0.718218	 -0.765407	 1.052667
C	 -2.416729	 -0.286720	 -0.460525
H	 -1.478729	 1.390261	 0.442008
H	 -1.539692	 0.003361	 1.486761
C	 1.257542	 0.092887	 2.188845
H	 1.556238	 -1.255124	 0.576265
H	 0.090836	 -1.564771	 1.456799
H	 -2.285276	 0.073129	 -1.473515
H	 -2.371743	 -1.368476	 -0.483209
H	 -3.408658	 -0.007405	 -0.121593
H	 1.934859	 0.844343	 1.802240
H	 0.468748	 0.602015	 2.728633
H	 1.796397	 -0.523235	 2.900771

	symmetry c1
}
set optking {
	frozen_dihedral = ("
		3 6 9 11
	")
}

ee = optimize('scf')
oeprop('DIPOLE', 'QUADRUPOLE', 'MULLIKEN_CHARGES')
f=open( 'psi4out.xyz', 'w' )
f.write( "22  " )
f.write( str(ee) + "\n" )
f.write( MOL.save_string_xyz() )
f.close()
--------------------------------------------------------------------------

    Molecular point group: c1
  Charge       = 0
  Multiplicity = 1
  Basis Set: CC-PVTZ
  Basis Set:
  @DF-RHF Final Energy:  -290.45605978778565
    Total Energy =                       -290.4560597877857049
    Molecular point group: c1
  Basis Set: CC-PVTZ
  Basis Set:
  Basis Set: CC-PVTZ
  Basis Set:
  @DF-RHF Final Energy:  -290.45276886688299
    Total Energy =                       -290.4527688668828205
  Basis Set: CC-PVTZ
  Basis Set:
  Basis Set: CC-PVTZ
  Basis Set:
  @DF-RHF Final Energy:  -290.46374951136858
    Total Energy =                       -290.4637495113686896
  Basis Set: CC-PVTZ
  Basis Set:
  Basis Set: CC-PVTZ
  Basis Set:
  @DF-RHF Final Energy:  -290.46610163913277
    Total Energy =                       -290.4661016391323187
  Basis Set: CC-PVTZ
  Basis Set:
  @DF-RHF Final Energy:  -290.46638445571762
    Total Energy =                       -290.4663844557175594
  Basis Set: CC-PVTZ
  Basis Set:
  @DF-RHF Final Energy:  -290.46659441272271
    Total Energy =                       -290.4665944127226567
  Basis Set: CC-PVTZ
  Basis Set:
  Basis Set: CC-PVTZ
  Basis Set:
  @DF-RHF Final Energy:  -290.46661886261904
    Total Energy =                       -290.4666188626197822
  Basis Set: CC-PVTZ
  Basis Set:
  Basis Set: CC-PVTZ
  Basis Set:
  @DF-RHF Final Energy:  -290.46662136170278
    Total Energy =                       -290.4666213617024937
  Basis Set: CC-PVTZ
  Basis Set:
  Charge       = 0
  Multiplicity = 1
  Basis Set: CC-PVTZ
  Basis Set:

    Orbital Energies (a.u.)
    -----------------------

    Doubly Occupied:

       1A    -15.527641     2A    -11.239694     3A    -11.237498
       4A    -11.237003     5A    -11.209834     6A    -11.201819
       7A    -11.201614     8A     -1.218946     9A     -1.024524
      10A     -1.023072    11A     -0.956685    12A     -0.858190
      13A     -0.844247    14A     -0.758780    15A     -0.656114
      16A     -0.643989    17A     -0.619589    18A     -0.596159
      19A     -0.585018    20A     -0.546042    21A     -0.538713
      22A     -0.517689    23A     -0.512867    24A     -0.502816
      25A     -0.493699    26A     -0.489821    27A     -0.467239
      28A     -0.458336    29A     -0.330840

  @DF-RHF Final Energy:  -290.46662208069938

   => Energetics <=

    Nuclear Repulsion Energy =            337.6042120018307742
    One-Electron Energy =               -1061.1447146217788031
    Two-Electron Energy =                 433.0738805392487052
    DFT Exchange-Correlation Energy =       0.0000000000000000
    Empirical Dispersion Energy =           0.0000000000000000
    PCM Polarization Energy =               0.0000000000000000
    EFP Energy =                            0.0000000000000000
    Total Energy =                       -290.4666220806993238
    Molecular point group: c1
  Basis Set: CC-PVTZ
  Basis Set:

  -Total Gradient:
     Atom            X                  Y                   Z
    ------   -----------------  -----------------  -----------------
       1        0.000003825886    -0.000006027793    -0.000005883907
       2        0.000008795139    -0.000025828197     0.000017879022
       3       -0.000150567143    -0.000398526463     0.000162971946
       4       -0.000006811012    -0.000010197753     0.000005497854
       5        0.000021445687    -0.000008025091     0.000038872071
       6        0.000183080650     0.000923167456    -0.000505205117
       7       -0.000011187504    -0.000045939797    -0.000011985990
       8        0.000013707686     0.000018685535     0.000042042192
       9       -0.000107222975    -0.000957508258     0.000619048089
      10       -0.000074222788     0.000078293129    -0.000044525225
      11        0.000042494528     0.000481488396    -0.000303272825
      12        0.000031228715    -0.000023516373    -0.000024723908
      13       -0.000046637678     0.000011785791     0.000022145823
      14        0.000013247406    -0.000003535957     0.000023590265
      15        0.000027963276     0.000002064088    -0.000048207210
      16        0.000006505973    -0.000020007142     0.000011556462
      17        0.000008620495     0.000002292614     0.000001740753
      18        0.000015475448    -0.000010024023    -0.000007410449
      19        0.000013782753    -0.000003529837     0.000002283052
      20       -0.000002874476    -0.000003751158    -0.000002395191
      21        0.000004670157    -0.000001172493    -0.000001685017
      22        0.000004679776    -0.000000186674     0.000007667314

  **** Optimization is complete! (in 9 steps) ****
    Final optimized geometry and variables:
    Molecular point group: c1

    Geometry (in Angstrom), charge = 0, multiplicity = 1:

    H            1.569381458294    -0.548409749649    -2.954029223282
    C            1.518651722044    -0.110733030903    -1.962346628210
    C            0.185970176130    -0.456620648690    -1.306228960813
    H            1.622597154141     0.963538658740    -2.054424522568
    H            2.366813235664    -0.480496485203    -1.400180853304
    N            0.036237907918     0.137880907006     0.008319638905
    H           -0.593260567626    -0.083314172814    -1.951009277740
    H            0.068459672744    -1.543335397241    -1.278708225681
    C           -1.305513219288     0.521089186999     0.455701109047
    C            0.802259515974    -0.534422745926     1.039729216960
    C           -2.496158272202     0.063762999997    -0.384021506224
    H           -1.358725262320     1.602253434370     0.550307227028
    H           -1.454994403410     0.128288157873     1.455593269263
    C            1.265097214272     0.400563490750     2.149768278155
    H            1.677764224432    -0.976929642388     0.585893511955
    H            0.234421300449    -1.362441786348     1.474512300534
    H           -2.533710377117     0.544487663019    -1.352675492444
    H           -2.500275926850    -1.009232617924    -0.535984688655
    H           -3.407412834097     0.328047958559     0.140605353121
    H            1.884587997074     1.190353850624     1.742124776261
    H            0.431136447693     0.863297196932     2.663445109766
    H            1.843263529025    -0.146385196585     2.887027324556

  Mulliken Charges: (a.u.)
   Center  Symbol    Alpha    Beta     Spin     Total
       1     H     0.45375  0.45375  0.00000  0.09250
       2     C     3.14009  3.14009  0.00000 -0.28018
       3     C     3.04513  3.04513  0.00000 -0.09026
       4     H     0.45294  0.45294  0.00000  0.09411
       5     H     0.45592  0.45592  0.00000  0.08816
       6     N     3.62248  3.62248  0.00000 -0.24497
       7     H     0.44847  0.44847  0.00000  0.10306
       8     H     0.46524  0.46524  0.00000  0.06952
       9     C     3.03229  3.03229  0.00000 -0.06459
      10     C     3.04604  3.04604  0.00000 -0.09209
      11     C     3.16116  3.16116  0.00000 -0.32233
      12     H     0.45262  0.45262  0.00000  0.09477
      13     H     0.46336  0.46336  0.00000  0.07328
      14     C     3.14005  3.14005  0.00000 -0.28009
      15     H     0.44893  0.44893  0.00000  0.10215
      16     H     0.46378  0.46378  0.00000  0.07244
      17     H     0.45119  0.45119  0.00000  0.09762
      18     H     0.45050  0.45050  0.00000  0.09900
      19     H     0.44549  0.44549  0.00000  0.10902
      20     H     0.45236  0.45236  0.00000  0.09529
      21     H     0.45473  0.45473  0.00000  0.09055
      22     H     0.45348  0.45348  0.00000  0.09305

   Total alpha = 29.00000, Total beta = 29.00000, Total charge =  0.00000
