                              Psi4 1.0.54 Driver

  ==> Input File <==

--------------------------------------------------------------------------
set {
	reference rhf
	basis cc-pvtz
}

set_num_threads( 4 )
memory 2 gb

molecule MOL {
0 1

H	 2.390096	 -1.146127	 -0.167900
O	 1.705534	 -0.579655	 -0.472102
C	 1.135873	 0.113391	 0.608264
C	 0.027642	 1.012027	 0.090274
H	 1.886147	 0.724854	 1.103208
H	 0.749025	 -0.585023	 1.345167
C	 -1.138737	 0.285728	 -0.581921
H	 0.464661	 1.708096	 -0.618252
H	 -0.340737	 1.603071	 0.925246
C	 -1.933983	 -0.631436	 0.343653
H	 -0.763151	 -0.285569	 -1.422081
H	 -1.808359	 1.035291	 -0.992333
H	 -2.789188	 -1.049673	 -0.174718
H	 -1.335629	 -1.461368	 0.700418
H	 -2.305435	 -0.092167	 1.209725

	symmetry c1
}
set optking {
	frozen_dihedral = ("
		2 3 4 8
	")
}

ee,wfn = optimize('scf', return_wfn=True)
oeprop( wfn, 'DIPOLE', 'QUADRUPOLE', 'MULLIKEN_CHARGES')
f=open( 'psi4out.xyz', 'w' )
f.write( "15  " )
f.write( str(ee) + "\n" )
f.write( MOL.save_string_xyz() )
f.close()
--------------------------------------------------------------------------

    Molecular point group: c1
  Charge       = 0
  Multiplicity = 1
  Basis Set: CC-PVTZ
  Basis Set:
  @DF-RHF Final Energy:  -232.23761944219115
    Total Energy =                       -232.2376194421910895
    Molecular point group: c1
  Basis Set: CC-PVTZ
  Basis Set:
  Basis Set: CC-PVTZ
  Basis Set:
  @DF-RHF Final Energy:  -232.23761532864143
    Total Energy =                       -232.2376153286416525
  Basis Set: CC-PVTZ
  Basis Set:
  Basis Set: CC-PVTZ
  Basis Set:
  @DF-RHF Final Energy:  -232.23762529634047
    Total Energy =                       -232.2376252963404113
  Basis Set: CC-PVTZ
  Basis Set:
  Charge       = 0
  Multiplicity = 1
  Basis Set: CC-PVTZ
  Basis Set:

    Orbital Energies (a.u.)
    -----------------------

    Doubly Occupied:

       1A    -20.546495     2A    -11.265336     3A    -11.210926
       4A    -11.207509     5A    -11.203380     6A     -1.364284
       7A     -1.065507     8A     -0.971736     9A     -0.869496
      10A     -0.775600    11A     -0.707220    12A     -0.650037
      13A     -0.609194    14A     -0.575145    15A     -0.566035
      16A     -0.533686    17A     -0.511085    18A     -0.475731
      19A     -0.468243    20A     -0.453150    21A     -0.433318

  @DF-RHF Final Energy:  -232.23762573903085

   => Energetics <=

    Nuclear Repulsion Energy =            191.7494058372987809
    One-Electron Energy =                -695.0478401021607624
    Two-Electron Energy =                 271.0608085258311348
    DFT Exchange-Correlation Energy =       0.0000000000000000
    Empirical Dispersion Energy =           0.0000000000000000
    PCM Polarization Energy =               0.0000000000000000
    EFP Energy =                            0.0000000000000000
    Total Energy =                       -232.2376257390308183
    Molecular point group: c1
  Basis Set: CC-PVTZ
  Basis Set:

  -Total Gradient:
     Atom            X                  Y                   Z
    ------   -----------------  -----------------  -----------------
       1       -0.000002169006     0.000007983288     0.000002952465
       2        0.000193425292     0.000233764453    -0.000030687077
       3       -0.000280229903    -0.000355338813    -0.000003285838
       4        0.000156333213     0.000409554464     0.000355330095
       5        0.000000560304    -0.000006184587    -0.000000012465
       6        0.000015292125    -0.000005030296    -0.000009546379
       7        0.000004534448    -0.000002075235     0.000014684166
       8       -0.000069327800    -0.000262433643    -0.000308548625
       9        0.000001120242    -0.000014578537    -0.000006031830
      10       -0.000012445581     0.000005967315    -0.000007849744
      11       -0.000002619916     0.000002374861     0.000005465567
      12       -0.000004115931    -0.000020056799     0.000004686131
      13       -0.000008342492    -0.000002207393    -0.000002759210
      14       -0.000003482733     0.000006488325    -0.000009377255
      15        0.000011467739     0.000001772594    -0.000005020002

  **** Optimization is complete! (in 4 steps) ****
    Final optimized geometry and variables:
    Molecular point group: c1

    Geometry (in Angstrom), charge = 0, multiplicity = 1:

    H            2.383891768595    -1.151071048734    -0.178118520978
    O            1.700626793552    -0.580513782667    -0.477310693817
    C            1.133115667476     0.105229125446     0.608849817021
    C            0.019870756663     1.001657428040     0.098139080766
    H            1.883698810311     0.717748548487     1.102084702259
    H            0.752989021840    -0.597397371269     1.345094252828
    C           -1.142724132749     0.273145233988    -0.578615849262
    H            0.454309340595     1.701031536573    -0.608611485033
    H           -0.351520897830     1.586971693615     0.935586831831
    C           -1.947434226332    -0.636642059622     0.346021034626
    H           -0.761499142326    -0.303555584700    -1.412637801034
    H           -1.808108475642     1.020967048523    -0.998835781705
    H           -2.797387102181    -1.058959129651    -0.177641243711
    H           -1.353458709084    -1.463867012129     0.716130622894
    H           -2.327521582182    -0.090107816077     1.203686432718

  Mulliken Charges: (a.u.)
   Center  Symbol    Alpha    Beta     Spin     Total
       1     H     0.39557  0.39557  0.00000  0.20887
       2     O     4.19914  4.19914  0.00000 -0.39827
       3     C     2.97525  2.97525  0.00000  0.04950
       4     C     3.09478  3.09478  0.00000 -0.18956
       5     H     0.46365  0.46365  0.00000  0.07271
       6     H     0.47257  0.47257  0.00000  0.05486
       7     C     3.08648  3.08648  0.00000 -0.17296
       8     H     0.44828  0.44828  0.00000  0.10344
       9     H     0.45447  0.45447  0.00000  0.09106
      10     C     3.15471  3.15471  0.00000 -0.30943
      11     H     0.44650  0.44650  0.00000  0.10700
      12     H     0.45095  0.45095  0.00000  0.09809
      13     H     0.44668  0.44668  0.00000  0.10663
      14     H     0.45400  0.45400  0.00000  0.09200
      15     H     0.45697  0.45697  0.00000  0.08605

   Total alpha = 21.00000, Total beta = 21.00000, Total charge = -0.00000

*** Psi4 exiting successfully. Buy a developer a beer!
