                              Psi4 1.0.54 Driver

  ==> Input File <==

--------------------------------------------------------------------------
set {
	reference rhf
	basis cc-pvtz
}

set_num_threads( 4 )
memory 2 gb

molecule MOL {
0 1

O	 0.888156	 1.036033	 0.697128
C	 0.576499	 0.134701	 -0.003900
C	 -0.765656	 -0.550508	 -0.002152
O	 1.390767	 -0.405976	 -0.895308
C	 -1.945526	 0.411052	 0.000603
H	 -0.794329	 -1.203792	 -0.868145
H	 -0.791555	 -1.205429	 0.862701
C	 -3.282915	 -0.321280	 0.002596
H	 -1.880300	 1.059126	 -0.864925
H	 -1.877207	 1.057892	 0.866807
H	 -3.388495	 -0.952755	 -0.873419
H	 -4.107811	 0.380864	 0.004116
H	 -3.385717	 -0.953283	 0.878571
C	 2.690849	 0.138638	 -1.001116
H	 2.645766	 1.181299	 -1.278385
H	 3.189328	 -0.429779	 -1.769302
H	 3.220575	 0.045244	 -0.064788

	symmetry c1
}
set optking {
	frozen_dihedral = ("
		1 2 3 6
	")
}

ee,wfn = optimize('scf', return_wfn=True)
oeprop( wfn, 'DIPOLE', 'QUADRUPOLE', 'MULLIKEN_CHARGES')
f=open( 'psi4out.xyz', 'w' )
f.write( "17  " )
f.write( str(ee) + "\n" )
f.write( MOL.save_string_xyz() )
f.close()
--------------------------------------------------------------------------

    Molecular point group: c1
  Charge       = 0
  Multiplicity = 1
  Basis Set: CC-PVTZ
  Basis Set:
  @DF-RHF Final Energy:  -345.03379632768338
    Total Energy =                       -345.0337963276837172
    Molecular point group: c1
  Basis Set: CC-PVTZ
  Basis Set:
  Basis Set: CC-PVTZ
  Basis Set:
  @DF-RHF Final Energy:  -344.64672729210849
    Total Energy =                       -344.6467272921083804
  Basis Set: CC-PVTZ
  Basis Set:
  Basis Set: CC-PVTZ
  Basis Set:
  @DF-RHF Final Energy:  -344.83349651252990
    Total Energy =                       -344.8334965125299618
  Basis Set: CC-PVTZ
  Basis Set:
  Basis Set: CC-PVTZ
  Basis Set:
  @DF-RHF Final Energy:  -344.99356939038393
    Total Energy =                       -344.9935693903839820
  Basis Set: CC-PVTZ
  Basis Set:
  @DF-RHF Final Energy:  -345.02589189254553
    Total Energy =                       -345.0258918925453600
  @DF-RHF Final Energy:  -345.03237642742471
    Total Energy =                       -345.0323764274247651
  @DF-RHF Final Energy:  -345.03411886875278
    Total Energy =                       -345.0341188687527847
  Basis Set: CC-PVTZ
  Basis Set:
  @DF-RHF Final Energy:  -345.03322361626874
    Total Energy =                       -345.0332236162680601
  Basis Set: CC-PVTZ
  Basis Set:
  Basis Set: CC-PVTZ
  Basis Set:
  @DF-RHF Final Energy:  -345.03425089596971
    Total Energy =                       -345.0342508959696488
  Basis Set: CC-PVTZ
  Basis Set:
  Basis Set: CC-PVTZ
  Basis Set:
  @DF-RHF Final Energy:  -345.03427821536866
    Total Energy =                       -345.0342782153686016
  Basis Set: CC-PVTZ
  Basis Set:
  Charge       = 0
  Multiplicity = 1
  Basis Set: CC-PVTZ
  Basis Set:

    Orbital Energies (a.u.)
    -----------------------

    Doubly Occupied:

       1A    -20.598847     2A    -20.532128     3A    -11.364757
       4A    -11.278809     5A    -11.233358     6A    -11.224251
       7A    -11.214088     8A     -1.473077     9A     -1.365270
      10A     -1.082325    11A     -1.001961    12A     -0.941654
      13A     -0.828661    14A     -0.772590    15A     -0.701580
      16A     -0.684845    17A     -0.676047    18A     -0.637777
      19A     -0.596168    20A     -0.581710    21A     -0.563564
      22A     -0.533444    23A     -0.525740    24A     -0.502757
      25A     -0.486242    26A     -0.480678    27A     -0.459745
      28A     -0.438944

  @DF-RHF Final Energy:  -345.03427894781112

   => Energetics <=

    Nuclear Repulsion Energy =            313.1399814484983608
    One-Electron Energy =               -1090.7864922086166644
    Two-Electron Energy =                 432.6122318123073001
    DFT Exchange-Correlation Energy =       0.0000000000000000
    Empirical Dispersion Energy =           0.0000000000000000
    PCM Polarization Energy =               0.0000000000000000
    EFP Energy =                            0.0000000000000000
    Total Energy =                       -345.0342789478110035
    Molecular point group: c1
  Basis Set: CC-PVTZ
  Basis Set:

  -Total Gradient:
     Atom            X                  Y                   Z
    ------   -----------------  -----------------  -----------------
       1        0.000417558101    -0.000828229354     0.000029703237
       2       -0.000491773422     0.001008895588    -0.000019414433
       3       -0.000281861631     0.000575876160     0.000039252742
       4        0.000115222294     0.000020570936    -0.000034325041
       5       -0.000014837019     0.000032496834    -0.000035876124
       6        0.000326898110    -0.000802342063     0.000010984248
       7       -0.000015672982     0.000023069526    -0.000012074854
       8       -0.000020550483    -0.000020855889     0.000016216112
       9        0.000004423567    -0.000011656432     0.000005631951
      10        0.000001455945    -0.000010185704    -0.000019382577
      11        0.000009128494     0.000009006443     0.000016243543
      12        0.000010520386    -0.000012612459    -0.000004819943
      13       -0.000001834520     0.000014986468    -0.000007031970
      14       -0.000030963532     0.000027729691     0.000003276623
      15        0.000012499779    -0.000039428223    -0.000016115402
      16       -0.000017771960    -0.000004437983     0.000054754491
      17       -0.000022441125     0.000017116461    -0.000027022598

  **** Optimization is complete! (in 11 steps) ****
    Final optimized geometry and variables:
    Molecular point group: c1

    Geometry (in Angstrom), charge = 0, multiplicity = 1:

    O            0.898824724698     0.276449635564     1.246431751516
    C            0.605735055757    -0.017803449232     0.137128342178
    C           -0.722831159167    -0.608584866720    -0.264786091326
    O            1.431467673441     0.111091468289    -0.886525180520
    C           -1.906539901450     0.112375876613     0.376438387377
    H           -0.799756645215    -0.619691166693    -1.343035596289
    H           -0.703885806506    -1.643731589899     0.064033397328
    C           -3.237899944203    -0.541363871268     0.025096597772
    H           -1.913314497392     1.148124228414     0.051432599144
    H           -1.769602884285     0.126464561956     1.449624360479
    H           -3.405386535488    -0.546465243560    -1.046739497023
    H           -4.062290512123    -0.010556711068     0.485796175194
    H           -3.272237961737    -1.569332221795     0.370115281912
    C            2.724503266033     0.614306709471    -0.615045108865
    H            2.665992889632     1.606142598717    -0.192461608549
    H            3.237582707100     0.642245576300    -1.562473360056
    H            3.247481357790    -0.032018403851     0.073957202960

  Mulliken Charges: (a.u.)
   Center  Symbol    Alpha    Beta     Spin     Total
       1     O     4.20260  4.20260  0.00000 -0.40520
       2     C     2.81380  2.81380  0.00000  0.37240
       3     C     3.08394  3.08394  0.00000 -0.16787
       4     O     4.14321  4.14321  0.00000 -0.28641
       5     C     3.08471  3.08471  0.00000 -0.16942
       6     H     0.43882  0.43882  0.00000  0.12236
       7     H     0.44635  0.44635  0.00000  0.10730
       8     C     3.15120  3.15120  0.00000 -0.30239
       9     H     0.45206  0.45206  0.00000  0.09587
      10     H     0.43958  0.43958  0.00000  0.12083
      11     H     0.45549  0.45549  0.00000  0.08903
      12     H     0.44591  0.44591  0.00000  0.10818
      13     H     0.45424  0.45424  0.00000  0.09152
      14     C     3.03468  3.03468  0.00000 -0.06935
      15     H     0.45411  0.45411  0.00000  0.09177
      16     H     0.44504  0.44504  0.00000  0.10992
      17     H     0.45427  0.45427  0.00000  0.09146

   Total alpha = 28.00000, Total beta = 28.00000, Total charge = -0.00000

*** Psi4 exiting successfully. Buy a developer a beer!
