                              Psi4 1.0.54 Driver

  ==> Input File <==

--------------------------------------------------------------------------
set {
	reference rhf
	basis cc-pvtz
}

set_num_threads( 4 )
memory 2 gb

molecule MOL {
0 1

H	 -3.436473	 1.252944	 -1.023892
O	 -3.458596	 0.315260	 -0.960865
C	 -3.176635	 -0.080824	 0.355601
C	 -1.763371	 0.265266	 0.799691
H	 -3.321825	 -1.153438	 0.379502
H	 -3.895468	 0.357385	 1.043382
C	 -0.673390	 -0.426948	 -0.013392
H	 -1.631049	 1.344913	 0.747560
H	 -1.664587	 -0.001624	 1.849167
C	 0.737842	 -0.043159	 0.423759
H	 -0.806103	 -0.190518	 -1.063345
H	 -0.797221	 -1.503753	 0.074146
C	 1.824000	 -0.743224	 -0.390623
H	 0.850588	 1.033777	 0.343840
H	 0.868587	 -0.286314	 1.476203
C	 3.255957	 -0.453067	 0.062319
H	 1.718250	 -0.470599	 -1.438164
H	 1.658105	 -1.815850	 -0.339904
C	 4.038417	 -1.678180	 0.529221
H	 3.219396	 0.265789	 0.875144
H	 3.796206	 0.032522	 -0.746232
H	 3.518797	 -2.188112	 1.334230
H	 5.016664	 -1.391762	 0.898327
H	 4.189793	 -2.392432	 -0.271114

	symmetry c1
}
set optking {
	frozen_dihedral = ("
		20 16 13 17
	")
}

ee,wfn = optimize('scf', return_wfn=True)
oeprop( wfn, 'DIPOLE', 'QUADRUPOLE', 'MULLIKEN_CHARGES')
f=open( 'psi4out.xyz', 'w' )
f.write( "24  " )
f.write( str(ee) + "\n" )
f.write( MOL.save_string_xyz() )
f.close()
--------------------------------------------------------------------------

    Molecular point group: c1
  Charge       = 0
  Multiplicity = 1
  Basis Set: CC-PVTZ
  Basis Set:
  @DF-RHF Final Energy:  -349.37608300871671
    Total Energy =                       -349.3760830087170461
    Molecular point group: c1
  Basis Set: CC-PVTZ
  Basis Set:
  Basis Set: CC-PVTZ
  Basis Set:
  @DF-RHF Final Energy:  -349.37650314814857
    Total Energy =                       -349.3765031481481742
  Basis Set: CC-PVTZ
  Basis Set:
  Basis Set: CC-PVTZ
  Basis Set:
  @DF-RHF Final Energy:  -349.37656534330347
    Total Energy =                       -349.3765653433033549
  Basis Set: CC-PVTZ
  Basis Set:
  Basis Set: CC-PVTZ
  Basis Set:
  @DF-RHF Final Energy:  -349.37656434102604
    Total Energy =                       -349.3765643410263237
  Basis Set: CC-PVTZ
  Basis Set:
  Basis Set: CC-PVTZ
  Basis Set:
  @DF-RHF Final Energy:  -349.37656869963570
    Total Energy =                       -349.3765686996360955
  Basis Set: CC-PVTZ
  Basis Set:
  Charge       = 0
  Multiplicity = 1
  Basis Set: CC-PVTZ
  Basis Set:

    Orbital Energies (a.u.)
    -----------------------

    Doubly Occupied:

       1A    -20.546331     2A    -11.265571     3A    -11.215293
       4A    -11.211399     5A    -11.211081     6A    -11.208948
       7A    -11.208842     8A    -11.205880     9A     -1.364189
      10A     -1.088809    11A     -1.048674    12A     -0.988760
      13A     -0.914463    14A     -0.844265    15A     -0.799280
      16A     -0.787404    17A     -0.681725    18A     -0.655597
      19A     -0.627329    20A     -0.616830    21A     -0.596350
      22A     -0.587016    23A     -0.556541    24A     -0.537680
      25A     -0.525994    26A     -0.508052    27A     -0.494520
      28A     -0.473625    29A     -0.466527    30A     -0.460835
      31A     -0.456973    32A     -0.452121    33A     -0.420266

  @DF-RHF Final Energy:  -349.37656872572836

   => Energetics <=

    Nuclear Repulsion Energy =            381.7450901068635858
    One-Electron Energy =               -1230.1889762498344680
    Two-Electron Energy =                 499.0673174172426911
    DFT Exchange-Correlation Energy =       0.0000000000000000
    Empirical Dispersion Energy =           0.0000000000000000
    PCM Polarization Energy =               0.0000000000000000
    EFP Energy =                            0.0000000000000000
    Total Energy =                       -349.3765687257281911
    Molecular point group: c1
  Basis Set: CC-PVTZ
  Basis Set:

  -Total Gradient:
     Atom            X                  Y                   Z
    ------   -----------------  -----------------  -----------------
       1        0.000000217651    -0.000000124934    -0.000000014715
       2        0.000002883602    -0.000001077394    -0.000001878100
       3       -0.000000596665     0.000000645352     0.000001582025
       4        0.000003446317    -0.000005384848     0.000005092970
       5       -0.000000019730    -0.000000124466     0.000000065628
       6        0.000000830222     0.000000090494     0.000000761311
       7        0.000000699240     0.000006539639    -0.000006111689
       8       -0.000001745727    -0.000002508915    -0.000001883466
       9       -0.000000378508     0.000001795355     0.000003705942
      10       -0.000002834280     0.000005694266    -0.000002354689
      11        0.000000085190     0.000003042780    -0.000003816600
      12        0.000001127660     0.000000516139    -0.000000069937
      13        0.000049148611    -0.000130460718    -0.000039613954
      14        0.000001095270     0.000001870341     0.000001032161
      15       -0.000002809624    -0.000003192297    -0.000002742826
      16       -0.000018681146    -0.000078847274     0.000098517285
      17       -0.000035870223     0.000113824195     0.000032969674
      18        0.000000947568    -0.000002221936    -0.000000971616
      19       -0.000000986888    -0.000002341206     0.000002564672
      20        0.000006919930     0.000088091053    -0.000081602814
      21        0.000001826725    -0.000000748628    -0.000004192153
      22       -0.000002665272    -0.000001838604     0.000001337293
      23       -0.000005389819     0.000002030445    -0.000000264030
      24        0.000002749894     0.000004731161    -0.000002112373

  **** Optimization is complete! (in 6 steps) ****
    Final optimized geometry and variables:
    Molecular point group: c1

    Geometry (in Angstrom), charge = 0, multiplicity = 1:

    H           -3.441511682021     1.666030959077    -1.111550477871
    O           -3.487173121158     0.728704063935    -1.056641866307
    C           -3.220934751666     0.314846637151     0.257532733306
    C           -1.801291572123     0.621621310439     0.710130645589
    H           -3.393102312826    -0.753950680916     0.271512736323
    H           -3.931555996444     0.765093997606     0.946078946986
    C           -0.725439887763    -0.088958378282    -0.106069498937
    H           -1.642169279466     1.698125209616     0.669236027668
    H           -1.713115004543     0.342045467148     1.757228007450
    C            0.692326339835     0.254409322834     0.340146800263
    H           -0.848017080771     0.161248392585    -1.154093370671
    H           -0.876142658679    -1.163329959877    -0.030122796446
    C            1.772376530260    -0.462157152760    -0.467580730084
    H            0.843720384960     1.328717988159     0.263104656118
    H            0.811460477453     0.007139511480     1.392986574667
    C            3.208760098845    -0.125817545310    -0.015986460299
    H            1.646507588944    -0.213675160895    -1.516547083525
    H            1.610051591393    -1.533605621227    -0.394890217891
    C            4.000478018862    -1.341928896087     0.456393135726
    H            3.175135997605     0.604305149579     0.786512390570
    H            3.748029018316     0.351118754994    -0.827288570272
    H            3.508252192660    -1.826379390127     1.293580330832
    H            4.998738667824    -1.063246109974     0.774988513050
    H            4.098204981636    -2.076028809795    -0.336426050755

  Mulliken Charges: (a.u.)
   Center  Symbol    Alpha    Beta     Spin     Total
       1     H     0.39532  0.39532  0.00000  0.20937
       2     O     4.20369  4.20369  0.00000 -0.40739
       3     C     2.97771  2.97771  0.00000  0.04459
       4     C     3.10214  3.10214  0.00000 -0.20428
       5     H     0.45889  0.45889  0.00000  0.08221
       6     H     0.46026  0.46026  0.00000  0.07947
       7     C     3.08868  3.08868  0.00000 -0.17735
       8     H     0.45907  0.45907  0.00000  0.08186
       9     H     0.45333  0.45333  0.00000  0.09333
      10     C     3.08953  3.08953  0.00000 -0.17905
      11     H     0.44653  0.44653  0.00000  0.10694
      12     H     0.45504  0.45504  0.00000  0.08992
      13     C     3.09401  3.09401  0.00000 -0.18801
      14     H     0.45429  0.45429  0.00000  0.09141
      15     H     0.45560  0.45560  0.00000  0.08881
      16     C     3.08935  3.08935  0.00000 -0.17870
      17     H     0.44939  0.44939  0.00000  0.10122
      18     H     0.45453  0.45453  0.00000  0.09094
      19     C     3.14718  3.14718  0.00000 -0.29437
      20     H     0.45501  0.45501  0.00000  0.08999
      21     H     0.45015  0.45015  0.00000  0.09969
      22     H     0.45585  0.45585  0.00000  0.08830
      23     H     0.45001  0.45001  0.00000  0.09999
      24     H     0.45445  0.45445  0.00000  0.09111

   Total alpha = 33.00000, Total beta = 33.00000, Total charge = -0.00000

*** Psi4 exiting successfully. Buy a developer a beer!
