                              Psi4 1.0.54 Driver

  ==> Input File <==

--------------------------------------------------------------------------
set {
	reference rhf
	basis cc-pvtz
}

set_num_threads( 4 )
memory 2 gb

molecule MOL {
0 1

O	 2.551119	 1.843716	 0.460427
C	 1.861808	 1.679704	 1.413349
C	 0.596667	 0.847300	 1.364848
C	 2.205547	 2.297020	 2.750132
C	 0.288398	 0.247429	 0.000314
H	 0.689205	 0.067000	 2.116937
H	 -0.222924	 1.477337	 1.702977
C	 -0.993089	 -0.581367	 -0.000217
H	 1.124325	 -0.366397	 -0.315216
H	 0.211524	 1.045237	 -0.729567
C	 -2.258482	 0.271340	 0.000669
H	 -1.002280	 -1.233920	 -0.870484
H	 -1.002061	 -1.235367	 0.868958
C	 -3.544441	 -0.550271	 -0.000253
H	 -2.250545	 0.925250	 -0.867923
H	 -2.250598	 0.923423	 0.870642
C	 -4.804551	 0.308747	 0.000556
H	 -3.553737	 -1.201524	 -0.870151
H	 -3.553831	 -1.203282	 0.868313
H	 -4.842050	 0.949078	 -0.874436
H	 -5.698404	 -0.304480	 -0.000254
H	 -4.842277	 0.947103	 0.876982
H	 2.321188	 1.523078	 3.500925
H	 3.120609	 2.862926	 2.667650
H	 1.402520	 2.947383	 3.079098

	symmetry c1
}
set optking {
	frozen_dihedral = ("
		9 5 8 12
	")
}

ee,wfn = optimize('scf', return_wfn=True)
oeprop( wfn, 'DIPOLE', 'QUADRUPOLE', 'MULLIKEN_CHARGES')
f=open( 'psi4out.xyz', 'w' )
f.write( "25  " )
f.write( str(ee) + "\n" )
f.write( MOL.save_string_xyz() )
f.close()
--------------------------------------------------------------------------

    Molecular point group: c1
  Charge       = 0
  Multiplicity = 1
  Basis Set: CC-PVTZ
  Basis Set:
  @DF-RHF Final Energy:  -387.27229581355044
    Total Energy =                       -387.2722958135498175
    Molecular point group: c1
  Basis Set: CC-PVTZ
  Basis Set:
  Basis Set: CC-PVTZ
  Basis Set:
  @DF-RHF Final Energy:  -387.27255787228620
    Total Energy =                       -387.2725578722861428
  Basis Set: CC-PVTZ
  Basis Set:
  Basis Set: CC-PVTZ
  Basis Set:
  @DF-RHF Final Energy:  -387.27243382413144
    Total Energy =                       -387.2724338241316673
  Basis Set: CC-PVTZ
  Basis Set:
  Basis Set: CC-PVTZ
  Basis Set:
  @DF-RHF Final Energy:  -387.27261247018743
    Total Energy =                       -387.2726124701868002
  Basis Set: CC-PVTZ
  Basis Set:
  Basis Set: CC-PVTZ
  Basis Set:
  @DF-RHF Final Energy:  -387.27261362079713
    Total Energy =                       -387.2726136207965055
  Basis Set: CC-PVTZ
  Basis Set:
  Charge       = 0
  Multiplicity = 1
  Basis Set: CC-PVTZ
  Basis Set:

    Orbital Energies (a.u.)
    -----------------------

    Doubly Occupied:

       1A    -20.538816     2A    -11.320494     3A    -11.229892
       4A    -11.226571     5A    -11.215401     6A    -11.215222
       7A    -11.214783     8A    -11.213892     9A    -11.208414
      10A     -1.398888    11A     -1.095764    12A     -1.057291
      13A     -1.015563    14A     -0.969326    15A     -0.897403
      16A     -0.816397    17A     -0.789271    18A     -0.732880
      19A     -0.660932    20A     -0.647986    21A     -0.641430
      22A     -0.623485    23A     -0.598982    24A     -0.578040
      25A     -0.570299    26A     -0.567868    27A     -0.543270
      28A     -0.528076    29A     -0.517547    30A     -0.495442
      31A     -0.488491    32A     -0.478292    33A     -0.464096
      34A     -0.460087    35A     -0.448028    36A     -0.402596

  @DF-RHF Final Energy:  -387.27261427658772

   => Energetics <=

    Nuclear Repulsion Energy =            444.6227430870616786
    One-Electron Energy =               -1406.0482906280176394
    Two-Electron Energy =                 574.1529332643682437
    DFT Exchange-Correlation Energy =       0.0000000000000000
    Empirical Dispersion Energy =           0.0000000000000000
    PCM Polarization Energy =               0.0000000000000000
    EFP Energy =                            0.0000000000000000
    Total Energy =                       -387.2726142765876602
    Molecular point group: c1
  Basis Set: CC-PVTZ
  Basis Set:

  -Total Gradient:
     Atom            X                  Y                   Z
    ------   -----------------  -----------------  -----------------
       1        0.000008082822     0.000000380388    -0.000017049231
       2       -0.000003587689    -0.000000756706     0.000021360870
       3        0.000013641746     0.000004071587    -0.000015625530
       4        0.000009502215    -0.000000412867     0.000005648663
       5        0.000470707066    -0.000782657126     0.002082930326
       6        0.000000713466    -0.000001801040    -0.000001893489
       7       -0.000006146216    -0.000011471370    -0.000008523407
       8       -0.000927920447     0.001510975166    -0.001383408812
       9       -0.000251160396     0.000434693821    -0.001521287709
      10        0.000004079457     0.000003888808     0.000000621283
      11        0.000010589340    -0.000022546728    -0.000013601515
      12        0.000707153409    -0.001145836694     0.000843907736
      13       -0.000003940157    -0.000007159309     0.000005157893
      14        0.000004218237     0.000015541696    -0.000018224403
      15       -0.000000202384     0.000001249292    -0.000000564789
      16        0.000005716241    -0.000006267436    -0.000005506068
      17       -0.000029584215    -0.000009558049     0.000014954806
      18        0.000003565990     0.000002596383     0.000002889844
      19        0.000001619052     0.000002608790    -0.000002533799
      20        0.000005194758    -0.000006694845     0.000002130276
      21       -0.000015976369     0.000006562400     0.000002002723
      22       -0.000003041027     0.000004561924    -0.000000182758
      23       -0.000003970689     0.000004648537     0.000003354436
      24        0.000001327601     0.000000735469     0.000000120065
      25       -0.000000581809     0.000002647908     0.000003322590

  **** Optimization is complete! (in 6 steps) ****
    Final optimized geometry and variables:
    Molecular point group: c1

    Geometry (in Angstrom), charge = 0, multiplicity = 1:

    O            3.041862519859     1.100117869464    -0.225050908466
    C            2.360445372606     0.962945329648     0.737636567760
    C            1.070300193142     0.168043984678     0.712634967256
    C            2.739617958546     1.579426155827     2.065409940346
    C            0.739767522206    -0.445577444810    -0.641683531430
    H            1.148301390418    -0.604987691972     1.473893951633
    H            0.278265061071     0.829400137877     1.052333808088
    C           -0.553308512274    -1.265118850485    -0.651568004415
    H            1.566313046681    -1.071042738665    -0.955501863901
    H            0.677826538648     0.342988158726    -1.383545000266
    C           -1.835977204983    -0.436330746645    -0.650570184958
    H           -0.547638163479    -1.906859078326    -1.527411510976
    H           -0.560501539684    -1.938809674381     0.203045006049
    C           -3.102085415315    -1.288047220240    -0.686400519232
    H           -1.828794357523     0.230225911938    -1.509604296368
    H           -1.867575954093     0.201874026273     0.228509779444
    C           -4.382712375179    -0.459944104815    -0.693585812733
    H           -3.080223496292    -1.924673330963    -1.566542803964
    H           -3.110010206990    -1.955512601613     0.171084223944
    H           -4.421005755531     0.193820474633    -1.558548152786
    H           -5.261034298771    -1.094592551157    -0.720250470431
    H           -4.451873232286     0.162481894465     0.192533635535
    H            2.842517065581     0.807725498496     2.820317876245
    H            3.669721941316     2.117656052232     1.966974293865
    H            1.960420528259     2.255500339084     2.399828784888

  Mulliken Charges: (a.u.)
   Center  Symbol    Alpha    Beta     Spin     Total
       1     O     4.17091  4.17091  0.00000 -0.34181
       2     C     2.86086  2.86086  0.00000  0.27827
       3     C     3.11087  3.11087  0.00000 -0.22175
       4     C     3.15067  3.15067  0.00000 -0.30133
       5     C     3.09337  3.09337  0.00000 -0.18673
       6     H     0.44555  0.44555  0.00000  0.10889
       7     H     0.44562  0.44562  0.00000  0.10876
       8     C     3.10124  3.10124  0.00000 -0.20249
       9     H     0.44007  0.44007  0.00000  0.11987
      10     H     0.44637  0.44637  0.00000  0.10726
      11     C     3.08667  3.08667  0.00000 -0.17334
      12     H     0.44513  0.44513  0.00000  0.10974
      13     H     0.45623  0.45623  0.00000  0.08754
      14     C     3.08433  3.08433  0.00000 -0.16867
      15     H     0.45288  0.45288  0.00000  0.09423
      16     H     0.45680  0.45680  0.00000  0.08640
      17     C     3.14963  3.14963  0.00000 -0.29927
      18     H     0.45327  0.45327  0.00000  0.09345
      19     H     0.45469  0.45469  0.00000  0.09062
      20     H     0.45452  0.45452  0.00000  0.09096
      21     H     0.44805  0.44805  0.00000  0.10389
      22     H     0.45602  0.45602  0.00000  0.08796
      23     H     0.45036  0.45036  0.00000  0.09928
      24     H     0.43531  0.43531  0.00000  0.12938
      25     H     0.45057  0.45057  0.00000  0.09887

   Total alpha = 36.00000, Total beta = 36.00000, Total charge = -0.00000

*** Psi4 exiting successfully. Buy a developer a beer!
