  ==> Input File <==

--------------------------------------------------------------------------
set {
	reference rhf
	basis 6-31G*
}

set_num_threads( 4 )
memory 2 gb

molecule MOL {
0 1

H	 2.591676	 2.013956	 0.335017
O	 3.341076	 1.666752	 -0.126416
C	 3.569581	 0.339145	 0.272707
C	 2.539767	 -0.640285	 -0.279495
H	 4.553106	 0.084646	 -0.100901
H	 3.608576	 0.269204	 1.359154
C	 1.211381	 0.009916	 -0.673824
H	 2.969961	 -1.143375	 -1.141586
H	 2.358772	 -1.403484	 0.475579
C	 0.180726	 -1.006557	 -1.173175
H	 1.392545	 0.752228	 -1.446170
H	 0.800638	 0.543175	 0.183653
C	 -1.196775	 -0.418855	 -1.500955
H	 0.574401	 -1.512991	 -2.052602
H	 0.055270	 -1.774334	 -0.412597
C	 -1.220465	 0.541967	 -2.692902
H	 -1.879366	 -1.241199	 -1.705000
H	 -1.589835	 0.088157	 -0.621023
C	 -2.630851	 1.018850	 -3.046216
H	 -0.781085	 0.049898	 -3.559461
H	 -0.597953	 1.409342	 -2.486887
C	 -2.656645	 1.983087	 -4.231646
H	 -3.256905	 0.157386	 -3.268526
H	 -3.075136	 1.502190	 -2.178530
H	 -2.248379	 1.517811	 -5.124429
H	 -3.669555	 2.301186	 -4.458501
H	 -2.068937	 2.873456	 -4.026205

	symmetry c1
}
set optking {
	frozen_dihedral = ("
		8 4 3 2
	")
}

ee = optimize('scf')
oeprop('DIPOLE', 'QUADRUPOLE', 'MULLIKEN_CHARGES')
f=open( 'psi4out.xyz', 'w' )
f.write( "27  " )
f.write( str(ee) + "\n" )
f.write( MOL.save_string_xyz() )
f.close()
--------------------------------------------------------------------------

    Molecular point group: c1
  Charge       = 0
  Multiplicity = 1
  Basis Set: 6-31G*
  Basis Set:
  @DF-RHF Final Energy:  -388.27516371941368
    Total Energy =                       -388.2751637194130581
    Molecular point group: c1
  Basis Set: 6-31G*
  Basis Set:
  Basis Set: 6-31G*
  Basis Set:
  @DF-RHF Final Energy:  -388.27573806143596
    Total Energy =                       -388.2757380614357317
  Basis Set: 6-31G*
  Basis Set:
  Basis Set: 6-31G*
  Basis Set:
  @DF-RHF Final Energy:  -388.27611672201510
    Total Energy =                       -388.2761167220155585
  Basis Set: 6-31G*
  Basis Set:
  Basis Set: 6-31G*
  Basis Set:
  @DF-RHF Final Energy:  -388.27608449825169
    Total Energy =                       -388.2760844982512936
  Basis Set: 6-31G*
  Basis Set:
  Basis Set: 6-31G*
  Basis Set:
  @DF-RHF Final Energy:  -388.27613811693755
    Total Energy =                       -388.2761381169370907
  Basis Set: 6-31G*
  Basis Set:
  Charge       = 0
  Multiplicity = 1
  Basis Set: 6-31G*
  Basis Set:

    Orbital Energies (a.u.)
    -----------------------

    Doubly Occupied:

       1A    -20.552067     2A    -11.267844     3A    -11.217997
       4A    -11.216209     5A    -11.216060     6A    -11.214774
       7A    -11.214563     8A    -11.212551     9A    -11.207976
      10A     -1.359020    11A     -1.093510    12A     -1.059026
      13A     -1.008830    14A     -0.947517    15A     -0.888593
      16A     -0.819520    17A     -0.799599    18A     -0.776390
      19A     -0.691950    20A     -0.647885    21A     -0.636156
      22A     -0.615548    23A     -0.601666    24A     -0.585372
      25A     -0.575478    26A     -0.554992    27A     -0.542392
      28A     -0.527172    29A     -0.503329    30A     -0.494712
      31A     -0.482024    32A     -0.472337    33A     -0.466896
      34A     -0.459875    35A     -0.445474    36A     -0.442627
      37A     -0.422368

  @DF-RHF Final Energy:  -388.27613856821228

   => Energetics <=

    Nuclear Repulsion Energy =            460.8142592376333937
    One-Electron Energy =               -1439.7001998207369979
    Two-Electron Energy =                 590.6098020148917840
    DFT Exchange-Correlation Energy =       0.0000000000000000
    Empirical Dispersion Energy =           0.0000000000000000
    PCM Polarization Energy =               0.0000000000000000
    EFP Energy =                            0.0000000000000000
    Total Energy =                       -388.2761385682117634
    Molecular point group: c1
  Basis Set: 6-31G*
  Basis Set:

  -Total Gradient:
     Atom            X                  Y                   Z
    ------   -----------------  -----------------  -----------------
       1       -0.000011391428     0.000040846432    -0.000009303514
       2       -0.002634265705     0.000748491340     0.003517671625
       3        0.004036522820    -0.002048798959    -0.004050944402
       4       -0.003166076494     0.005216038433    -0.002825376220
       5        0.000012612991    -0.000019991351     0.000003758419
       6       -0.000009280388     0.000029256446    -0.000005323634
       7        0.000036256796    -0.000032486400    -0.000014444293
       8        0.001758493957    -0.003923210599     0.003392561110
       9       -0.000023350598    -0.000029848372     0.000011748397
      10       -0.000017009211     0.000011689044     0.000004650714
      11        0.000023467389    -0.000000049262    -0.000009516806
      12       -0.000005757646    -0.000005963933    -0.000016172676
      13       -0.000007007726     0.000009719991     0.000031850144
      14       -0.000007630260     0.000024738448    -0.000007321095
      15        0.000020825396    -0.000007609434    -0.000002064124
      16        0.000001856256    -0.000014181879    -0.000017755988
      17        0.000014292110    -0.000003544275     0.000003519057
      18       -0.000013593342     0.000000210718     0.000003975335
      19        0.000000358608     0.000004157573     0.000003154191
      20       -0.000006764922    -0.000002728969    -0.000007297989
      21       -0.000005823131    -0.000002812162    -0.000012849760
      22        0.000002128824     0.000007630130     0.000006478290
      23        0.000004466206     0.000001471079    -0.000005278580
      24       -0.000003415559    -0.000003921836     0.000002213752
      25       -0.000000722103    -0.000001724246     0.000002079100
      26        0.000000298053     0.000001121750     0.000001723971
      27        0.000000509104     0.000001500292    -0.000001735026

  **** Optimization is complete! (in 6 steps) ****
    Final optimized geometry and variables:
    Molecular point group: c1

    Geometry (in Angstrom), charge = 0, multiplicity = 1:

    H            2.263562370873     1.615967868516     1.759221364576
    O            3.042330116525     1.251288134978     1.365105651647
    C            3.188641120004    -0.086650262483     1.768824922278
    C            2.132637788570    -1.052232286874     1.191540381559
    H            4.179658249315    -0.384561061407     1.455794983804
    H            3.169912988971    -0.136629289532     2.855830882679
    C            0.802963162751    -0.405434587980     0.802574354371
    H            2.549877712341    -1.593001255572     0.345874566036
    H            1.943387003569    -1.818809858048     1.941277905184
    C           -0.214827985450    -1.429802350515     0.293465684155
    H            0.983998727352     0.351148170668     0.048195300131
    H            0.378577013245     0.108209927609     1.666588331929
    C           -1.596949798128    -0.852169598971    -0.033182187366
    H            0.185894973842    -1.923187126720    -0.590333473302
    H           -0.335133260607    -2.206859274231     1.045417782001
    C           -1.626460173280     0.113609824702    -1.220940127674
    H           -2.272776010148    -1.679056588003    -0.241493218490
    H           -1.995292396520    -0.352265761134     0.848568835248
    C           -3.039009924749     0.588755007962    -1.567885612976
    H           -1.188987178765    -0.374438243399    -2.090739652898
    H           -1.004638951249     0.980954613761    -1.013815008825
    C           -3.070537212925     1.556897971486    -2.749991254448
    H           -3.664368689468    -0.273113130102    -1.790888123974
    H           -3.481329108884     1.068549372846    -0.697174838993
    H           -2.665047742454     1.095008044027    -3.645784725696
    H           -4.084739002099     1.874407629068    -2.972004543257
    H           -2.483003144551     2.447138712753    -2.543837482415

  Mulliken Charges: (a.u.)
   Center  Symbol    Alpha    Beta     Spin     Total
       1     H     0.27996  0.27996  0.00000  0.44009
       2     O     4.36967  4.36967  0.00000 -0.73934
       3     C     2.99551  2.99551  0.00000  0.00897
       4     C     3.17194  3.17194  0.00000 -0.34388
       5     H     0.41371  0.41371  0.00000  0.17258
       6     H     0.43056  0.43056  0.00000  0.13887
       7     C     3.16239  3.16239  0.00000 -0.32478
       8     H     0.41734  0.41734  0.00000  0.16532
       9     H     0.42286  0.42286  0.00000  0.15428
      10     C     3.15306  3.15306  0.00000 -0.30612
      11     H     0.40786  0.40786  0.00000  0.18428
      12     H     0.43226  0.43226  0.00000  0.13548
      13     C     3.15340  3.15340  0.00000 -0.30681
      14     H     0.42214  0.42214  0.00000  0.15572
      15     H     0.42226  0.42226  0.00000  0.15549
      16     C     3.15274  3.15274  0.00000 -0.30548
      17     H     0.42156  0.42156  0.00000  0.15688
      18     H     0.42493  0.42493  0.00000  0.15015
      19     C     3.15119  3.15119  0.00000 -0.30238
      20     H     0.42386  0.42386  0.00000  0.15229
      21     H     0.42197  0.42197  0.00000  0.15606
      22     C     3.23917  3.23917  0.00000 -0.47833
      23     H     0.42324  0.42324  0.00000  0.15352
      24     H     0.42362  0.42362  0.00000  0.15277
      25     H     0.42157  0.42157  0.00000  0.15685
      26     H     0.41957  0.41957  0.00000  0.16087
      27     H     0.42168  0.42168  0.00000  0.15664

   Total alpha = 37.00000, Total beta = 37.00000, Total charge =  0.00000
