  ==> Input File <==

--------------------------------------------------------------------------
set {
	reference rhf
	basis 6-31G*
}

set_num_threads( 4 )
memory 2 gb

molecule MOL {
0 1

H	 -3.420663	 1.227371	 -1.044276
O	 -3.452007	 0.283848	 -0.965577
C	 -3.181085	 -0.079926	 0.364119
C	 -1.765924	 0.277073	 0.805136
H	 -3.327791	 -1.152017	 0.410903
H	 -3.905698	 0.375695	 1.036898
C	 -0.677594	 -0.417312	 -0.014550
H	 -1.637766	 1.358238	 0.744969
H	 -1.659588	 0.017670	 1.857098
C	 0.738335	 -0.034840	 0.421385
H	 -0.814977	 -0.178223	 -1.064632
H	 -0.802730	 -1.495410	 0.071702
C	 1.822265	 -0.738362	 -0.399735
H	 0.853533	 1.043532	 0.342250
H	 0.871597	 -0.279636	 1.474438
C	 3.258060	 -0.455774	 0.057203
H	 1.718003	 -0.459167	 -1.447053
H	 1.651028	 -1.811884	 -0.354513
C	 4.156390	 0.163556	 -1.015102
H	 3.704372	 -1.390601	 0.387647
H	 3.236412	 0.194245	 0.929677
H	 4.187267	 -0.459175	 -1.905266
H	 5.174000	 0.269153	 -0.651570
H	 3.814093	 1.149208	 -1.312568

	symmetry c1
}
set optking {
	frozen_dihedral = ("
		20 16 13 17
	")
}

ee = optimize('scf')
oeprop('DIPOLE', 'QUADRUPOLE', 'MULLIKEN_CHARGES')
f=open( 'psi4out.xyz', 'w' )
f.write( "24  " )
f.write( str(ee) + "\n" )
f.write( MOL.save_string_xyz() )
f.close()
--------------------------------------------------------------------------

    Molecular point group: c1
  Charge       = 0
  Multiplicity = 1
  Basis Set: 6-31G*
  Basis Set:
  @DF-RHF Final Energy:  -349.24306774963981
    Total Energy =                       -349.2430677496395788
    Molecular point group: c1
  Basis Set: 6-31G*
  Basis Set:
  Basis Set: 6-31G*
  Basis Set:
  @DF-RHF Final Energy:  -349.24356124947025
    Total Energy =                       -349.2435612494701900
  Basis Set: 6-31G*
  Basis Set:
  Basis Set: 6-31G*
  Basis Set:
  @DF-RHF Final Energy:  -349.24362424541982
    Total Energy =                       -349.2436242454198236
  Basis Set: 6-31G*
  Basis Set:
  Basis Set: 6-31G*
  Basis Set:
  @DF-RHF Final Energy:  -349.24363694241742
    Total Energy =                       -349.2436369424173677
  Basis Set: 6-31G*
  Basis Set:
  Basis Set: 6-31G*
  Basis Set:
  @DF-RHF Final Energy:  -349.24364359989585
    Total Energy =                       -349.2436435998962452
  Basis Set: 6-31G*
  Basis Set:
  Charge       = 0
  Multiplicity = 1
  Basis Set: 6-31G*
  Basis Set:

    Orbital Energies (a.u.)
    -----------------------

    Doubly Occupied:

       1A    -20.553600     2A    -11.267726     3A    -11.217531
       4A    -11.213355     5A    -11.213173     6A    -11.211060
       7A    -11.210925     8A    -11.207681     9A     -1.360198
      10A     -1.087391    11A     -1.047442    12A     -0.987624
      13A     -0.913340    14A     -0.843387    15A     -0.798544
      16A     -0.787005    17A     -0.678992    18A     -0.654140
      19A     -0.625725    20A     -0.615702    21A     -0.597183
      22A     -0.583885    23A     -0.553820    24A     -0.536652
      25A     -0.527287    26A     -0.506028    27A     -0.493321
      28A     -0.472555    29A     -0.468248    30A     -0.457488
      31A     -0.456363    32A     -0.452110    33A     -0.418011

  @DF-RHF Final Energy:  -349.24364373487606

   => Energetics <=

    Nuclear Repulsion Energy =            381.5878330491877932
    One-Electron Energy =               -1229.6279721065686772
    Two-Electron Energy =                 498.7964953225048816
    DFT Exchange-Correlation Energy =       0.0000000000000000
    Empirical Dispersion Energy =           0.0000000000000000
    PCM Polarization Energy =               0.0000000000000000
    EFP Energy =                            0.0000000000000000
    Total Energy =                       -349.2436437348760023
    Molecular point group: c1
  Basis Set: 6-31G*
  Basis Set:

  -Total Gradient:
     Atom            X                  Y                   Z
    ------   -----------------  -----------------  -----------------
       1        0.000000015583     0.000000249717    -0.000000370635
       2        0.000000062858     0.000001459601     0.000000774153
       3        0.000001871643    -0.000006819610    -0.000002545426
       4        0.000007552657     0.000002016673     0.000003796323
       5       -0.000001528656    -0.000001499525     0.000000612972
       6        0.000002781625     0.000000275933    -0.000000150111
       7        0.000000052425     0.000003952241    -0.000010023563
       8       -0.000003457742     0.000000263556    -0.000001908486
       9        0.000002439189     0.000002566212     0.000001001375
      10        0.000002552236     0.000006726070     0.000010730424
      11       -0.000001477101     0.000005649729    -0.000001202676
      12        0.000001455643    -0.000000449371     0.000000387369
      13       -0.000014046064     0.000103465201     0.000025696652
      14       -0.000009502306    -0.000004052368    -0.000000020908
      15       -0.000001695033    -0.000001876161     0.000002708335
      16       -0.000043414191    -0.000002645415     0.000072557086
      17        0.000035682064    -0.000074333305    -0.000021605461
      18        0.000015926747    -0.000005089962     0.000007504123
      19       -0.000007115430     0.000006033979    -0.000007596131
      20        0.000012643303    -0.000030774725    -0.000089761573
      21       -0.000004019343    -0.000000077035     0.000006229152
      22        0.000009429057    -0.000006518900     0.000004090830
      23       -0.000009031573     0.000006369955     0.000004131678
      24        0.000002822414    -0.000004892487    -0.000005035503

  **** Optimization is complete! (in 6 steps) ****
    Final optimized geometry and variables:
    Molecular point group: c1

    Geometry (in Angstrom), charge = 0, multiplicity = 1:

    H           -3.425089196733     1.400609938314    -0.927982478521
    O           -3.479964253834     0.456832013794    -0.867843454583
    C           -3.233864572554     0.061525381818     0.457684685142
    C           -1.815778742792     0.375308911071     0.921581447420
    H           -3.406992238234    -1.007271936260     0.482132473355
    H           -3.955164353661     0.521863243306     1.130740682330
    C           -0.734908586926    -0.328586160846     0.100032927675
    H           -1.661040066154     1.454020731225     0.884597311230
    H           -1.727845546415     0.092518778122     1.969193736380
    C            0.683815859000     0.012805481193     0.556900053246
    H           -0.856012682049    -0.067575781012    -0.946830468874
    H           -0.885120299009    -1.405086609406     0.165215642767
    C            1.767910743031    -0.697773676539    -0.257332570919
    H            0.836070713560     1.089397437450     0.490487534070
    H            0.799231496649    -0.245001251570     1.608608614867
    C            3.205868936036    -0.344025873980     0.186140677873
    H            1.637233487611    -0.447180723807    -1.307692991224
    H            1.612072308366    -1.771339298518    -0.188475364473
    C            4.041785444826     0.302325577596    -0.919326172167
    H            3.715769321906    -1.236831517866     0.536612559539
    H            3.169710328570     0.330399538254     1.038033717536
    H            4.144248670462    -0.362908765035    -1.771986463690
    H            5.039653482038     0.547190529311    -0.567953083278
    H            3.579633440379     1.220365391040    -1.272141118832

  Mulliken Charges: (a.u.)
   Center  Symbol    Alpha    Beta     Spin     Total
       1     H     0.28339  0.28339  0.00000  0.43323
       2     O     4.36829  4.36829  0.00000 -0.73658
       3     C     2.99613  2.99613  0.00000  0.00773
       4     C     3.16902  3.16902  0.00000 -0.33803
       5     H     0.41633  0.41633  0.00000  0.16735
       6     H     0.42815  0.42815  0.00000  0.14370
       7     C     3.15283  3.15283  0.00000 -0.30565
       8     H     0.42825  0.42825  0.00000  0.14350
       9     H     0.42232  0.42232  0.00000  0.15537
      10     C     3.15368  3.15368  0.00000 -0.30737
      11     H     0.41198  0.41198  0.00000  0.17605
      12     H     0.42353  0.42353  0.00000  0.15295
      13     C     3.15495  3.15495  0.00000 -0.30990
      14     H     0.42510  0.42510  0.00000  0.14980
      15     H     0.42438  0.42438  0.00000  0.15123
      16     C     3.15514  3.15514  0.00000 -0.31028
      17     H     0.42029  0.42029  0.00000  0.15941
      18     H     0.42088  0.42088  0.00000  0.15824
      19     C     3.23957  3.23957  0.00000 -0.47914
      20     H     0.42041  0.42041  0.00000  0.15918
      21     H     0.42067  0.42067  0.00000  0.15866
      22     H     0.42121  0.42121  0.00000  0.15758
      23     H     0.42100  0.42100  0.00000  0.15800
      24     H     0.42251  0.42251  0.00000  0.15497

   Total alpha = 33.00000, Total beta = 33.00000, Total charge =  0.00000
