  ==> Input File <==

--------------------------------------------------------------------------
set {
	reference rhf
	basis 6-31G*
}

set_num_threads( 4 )
memory 2 gb

molecule MOL {
0 1

H	 -0.821032	 -1.655889	 0.000000
O	 -1.037828	 -0.728600	 0.000000
C	 0.100509	 -0.036935	 0.000000
C	 0.703975	 0.046480	 1.372871
O	 0.553253	 0.441883	 -0.987410
H	 0.003724	 0.520869	 2.050602
H	 1.621874	 0.612903	 1.330715
H	 0.898682	 -0.952046	 1.746704

	symmetry c1
}
set optking {
	frozen_dihedral = ("
		4 3 2 1
	")
}

ee = optimize('scf')
oeprop('DIPOLE', 'QUADRUPOLE', 'MULLIKEN_CHARGES')
f=open( 'psi4out.xyz', 'w' )
f.write( "8  " )
f.write( str(ee) + "\n" )
f.write( MOL.save_string_xyz() )
f.close()
--------------------------------------------------------------------------

    Molecular point group: c1
  Charge       = 0
  Multiplicity = 1
  Basis Set: 6-31G*
  Basis Set:
  @DF-RHF Final Energy:  -227.78652759748243
    Total Energy =                       -227.7865275974825181
    Molecular point group: c1
  Basis Set: 6-31G*
  Basis Set:
  Basis Set: 6-31G*
  Basis Set:
  @DF-RHF Final Energy:  -227.78772098269980
    Total Energy =                       -227.7877209826997387
  Basis Set: 6-31G*
  Basis Set:
  Basis Set: 6-31G*
  Basis Set:
  @DF-RHF Final Energy:  -227.78698750097092
    Total Energy =                       -227.7869875009708949
  Basis Set: 6-31G*
  Basis Set:
  Basis Set: 6-31G*
  Basis Set:
  @DF-RHF Final Energy:  -227.78838277900542
    Total Energy =                       -227.7883827790053317
  Basis Set: 6-31G*
  Basis Set:
  Basis Set: 6-31G*
  Basis Set:
  @DF-RHF Final Energy:  -227.78839626371831
    Total Energy =                       -227.7883962637182833
  Basis Set: 6-31G*
  Basis Set:
  Basis Set: 6-31G*
  Basis Set:
  @DF-RHF Final Energy:  -227.78839959208784
    Total Energy =                       -227.7883995920878419
  Basis Set: 6-31G*
  Basis Set:
  Basis Set: 6-31G*
  Basis Set:
  @DF-RHF Final Energy:  -227.78840075706694
    Total Energy =                       -227.7884007570669382
  Basis Set: 6-31G*
  Basis Set:
  Charge       = 0
  Multiplicity = 1
  Basis Set: 6-31G*
  Basis Set:

    Orbital Energies (a.u.)
    -----------------------

    Doubly Occupied:

       1A    -20.597421     2A    -20.563763     3A    -11.386121
       4A    -11.244213     5A     -1.462369     6A     -1.370340
       7A     -1.023140     8A     -0.827528     9A     -0.710693
      10A     -0.667899    11A     -0.661275    12A     -0.593138
      13A     -0.576674    14A     -0.510294    15A     -0.500163
      16A     -0.450151

  @DF-RHF Final Energy:  -227.78840098047945

   => Energetics <=

    Nuclear Repulsion Energy =            121.6869849980966762
    One-Electron Energy =                -552.6604057447470950
    Two-Electron Energy =                 203.1850197661709672
    DFT Exchange-Correlation Energy =       0.0000000000000000
    Empirical Dispersion Energy =           0.0000000000000000
    PCM Polarization Energy =               0.0000000000000000
    EFP Energy =                            0.0000000000000000
    Total Energy =                       -227.7884009804794232
    Molecular point group: c1
  Basis Set: 6-31G*
  Basis Set:

  -Total Gradient:
     Atom            X                  Y                   Z
    ------   -----------------  -----------------  -----------------
       1        0.000050389538     0.000000477645    -0.001597014314
       2       -0.000401920882     0.000324683023     0.002088054274
       3        0.000917703740    -0.001157624063    -0.000689306525
       4       -0.000548768181     0.000866890771     0.000178901182
       5       -0.000026890646    -0.000026156678     0.000021077782
       6        0.000001973165    -0.000003578329    -0.000001914037
       7        0.000005661289    -0.000000179847     0.000011607416
       8        0.000001851981    -0.000004512521    -0.000011405778

  **** Optimization is complete! (in 8 steps) ****
    Final optimized geometry and variables:
    Molecular point group: c1

    Geometry (in Angstrom), charge = 0, multiplicity = 1:

    H           -0.941554392850    -1.601485906247    -0.132772200954
    O           -1.104047585743    -0.665926748480    -0.128550750485
    C            0.054188815044     0.048683636736    -0.095198086336
    C            0.663063912926     0.151030581149     1.278283012939
    O            0.474408481959     0.584348055956    -1.056984933921
    H           -0.039420390909     0.648376462876     1.937899118692
    H            1.587658365574     0.707207257195     1.235632912218
    H            0.845940558237    -0.837347741320     1.687762264306

  Mulliken Charges: (a.u.)
   Center  Symbol    Alpha    Beta     Spin     Total
       1     H     0.26680  0.26680  0.00000  0.46641
       2     O     4.36292  4.36292  0.00000 -0.72584
       3     C     2.64325  2.64325  0.00000  0.71349
       4     C     3.28627  3.28627  0.00000 -0.57254
       5     O     4.24022  4.24022  0.00000 -0.48044
       6     H     0.39520  0.39520  0.00000  0.20960
       7     H     0.39488  0.39488  0.00000  0.21024
       8     H     0.41045  0.41045  0.00000  0.17909

   Total alpha = 16.00000, Total beta = 16.00000, Total charge =  0.00000
