  ==> Input File <==

--------------------------------------------------------------------------
set {
	reference rhf
	basis 6-31G*
}

set_num_threads( 4 )
memory 2 gb

molecule MOL {
0 1

H	 0.087060	 1.929986	 0.542517
O	 0.055946	 1.300438	 -0.164479
C	 0.004957	 -0.004114	 0.366649
C	 1.201664	 -0.828089	 -0.095740
C	 -1.317755	 -0.601827	 -0.081511
H	 0.013527	 0.048298	 1.454924
H	 1.216388	 -0.895289	 -1.178704
H	 2.135132	 -0.372895	 0.226467
H	 1.166770	 -1.832878	 0.313827
H	 -1.355732	 -0.658248	 -1.164429
H	 -2.141614	 0.017037	 0.254547
H	 -1.447303	 -1.600817	 0.322594

	symmetry c1
}
set optking {
	frozen_dihedral = ("
		1 2 3 4
	")
}

ee = optimize('scf')
oeprop('DIPOLE', 'QUADRUPOLE', 'MULLIKEN_CHARGES')
f=open( 'psi4out.xyz', 'w' )
f.write( "12  " )
f.write( str(ee) + "\n" )
f.write( MOL.save_string_xyz() )
f.close()
--------------------------------------------------------------------------

    Molecular point group: c1
  Charge       = 0
  Multiplicity = 1
  Basis Set: 6-31G*
  Basis Set:
  @DF-RHF Final Energy:  -193.11248847754516
    Total Energy =                       -193.1124884775450425
    Molecular point group: c1
  Basis Set: 6-31G*
  Basis Set:
  Basis Set: 6-31G*
  Basis Set:
  @DF-RHF Final Energy:  -193.11301129974584
    Total Energy =                       -193.1130112997458355
  Basis Set: 6-31G*
  Basis Set:
  Basis Set: 6-31G*
  Basis Set:
  @DF-RHF Final Energy:  -193.11311826566151
    Total Energy =                       -193.1131182656614556
  Basis Set: 6-31G*
  Basis Set:
  Basis Set: 6-31G*
  Basis Set:
  @DF-RHF Final Energy:  -193.11311951568302
    Total Energy =                       -193.1131195156830245
  Basis Set: 6-31G*
  Basis Set:
  Charge       = 0
  Multiplicity = 1
  Basis Set: 6-31G*
  Basis Set:

    Orbital Energies (a.u.)
    -----------------------

    Doubly Occupied:

       1A    -20.549209     2A    -11.276310     3A    -11.206116
       4A    -11.206045     5A     -1.357785     6A     -1.040705
       7A     -0.934965     8A     -0.798141     9A     -0.711598
      10A     -0.607388    11A     -0.596710    12A     -0.556974
      13A     -0.537724    14A     -0.522486    15A     -0.505306
      16A     -0.464077    17A     -0.428128

  @DF-RHF Final Energy:  -193.11312011407460

   => Energetics <=

    Nuclear Repulsion Energy =            135.2702381503290781
    One-Electron Energy =                -530.1673822739011257
    Two-Electron Energy =                 201.7840240094974718
    DFT Exchange-Correlation Energy =       0.0000000000000000
    Empirical Dispersion Energy =           0.0000000000000000
    PCM Polarization Energy =               0.0000000000000000
    EFP Energy =                            0.0000000000000000
    Total Energy =                       -193.1131201140745759
    Molecular point group: c1
  Basis Set: 6-31G*
  Basis Set:

  -Total Gradient:
     Atom            X                  Y                   Z
    ------   -----------------  -----------------  -----------------
       1        0.000149722788     0.000002487902     0.000002569712
       2       -0.000185796999     0.000025309073     0.000024879906
       3       -0.000019271929     0.000024362791    -0.000136975137
       4        0.000021194207    -0.000028698398     0.000101666067
       5        0.000020946114    -0.000010716138     0.000002646302
       6        0.000000557400    -0.000019958732     0.000001989132
       7       -0.000006767987     0.000003016133    -0.000009610318
       8       -0.000015322969     0.000011854955     0.000013699703
       9        0.000010494374    -0.000004553772    -0.000013317163
      10        0.000005600142     0.000009511399     0.000002952836
      11        0.000022187288    -0.000002311272    -0.000000110464
      12       -0.000003542428    -0.000010303940     0.000009609423

  **** Optimization is complete! (in 5 steps) ****
    Final optimized geometry and variables:
    Molecular point group: c1

    Geometry (in Angstrom), charge = 0, multiplicity = 1:

    H            0.140335077840     1.937838220339     0.513173945991
    O            0.105732609856     1.296893375529    -0.179910421253
    C            0.001255676801    -0.006547571935     0.361022613093
    C            1.202482107190    -0.821254836214    -0.097517824462
    C           -1.320319045474    -0.617455353625    -0.083535728715
    H            0.012241691002     0.049806778779     1.447607356347
    H            1.227977589648    -0.868221026219    -1.181349799098
    H            2.124434610179    -0.360407082645     0.240388164991
    H            1.161057627895    -1.834685979775     0.290486200504
    H           -1.363878186729    -0.661113589300    -1.166890753201
    H           -2.152808654369    -0.013725426871     0.261747698830
    H           -1.439299893937    -1.623694323077     0.307285363916

  Mulliken Charges: (a.u.)
   Center  Symbol    Alpha    Beta     Spin     Total
       1     H     0.27994  0.27994  0.00000  0.44011
       2     O     4.37449  4.37449  0.00000 -0.74899
       3     C     2.92524  2.92524  0.00000  0.14952
       4     C     3.23648  3.23648  0.00000 -0.47296
       5     C     3.23653  3.23653  0.00000 -0.47305
       6     H     0.43101  0.43101  0.00000  0.13799
       7     H     0.41473  0.41473  0.00000  0.17054
       8     H     0.41847  0.41847  0.00000  0.16306
       9     H     0.42473  0.42473  0.00000  0.15055
      10     H     0.41473  0.41473  0.00000  0.17055
      11     H     0.41890  0.41890  0.00000  0.16220
      12     H     0.42476  0.42476  0.00000  0.15049

   Total alpha = 17.00000, Total beta = 17.00000, Total charge =  0.00000
