  ==> Input File <==

--------------------------------------------------------------------------
set {
	reference rhf
	basis 6-31G*
}

set_num_threads( 1 )
memory 2 gb

molecule MOL {
0 1

H	 -1.043357	 -1.368781	 0.147961
O	 -1.422729	 -0.573567	 -0.196946
C	 -0.731407	 0.539437	 0.309156
C	 0.680193	 0.672443	 -0.251532
H	 -1.319765	 1.404033	 0.030086
H	 -0.700012	 0.506517	 1.397677
C	 1.599139	 -0.492137	 0.118598
H	 0.616402	 0.758534	 -1.332349
H	 1.107032	 1.602637	 0.117369
H	 1.239738	 -1.428634	 -0.297334
H	 2.601428	 -0.335055	 -0.265730
H	 1.674954	 -0.608418	 1.197020

	symmetry c1
}
set optking {
	frozen_dihedral = ("
		8 4 3 2
	")
}

ee = energy('scf')
oeprop('DIPOLE', 'QUADRUPOLE', 'MULLIKEN_CHARGES')
f=open( 'psi4out.xyz', 'w' )
f.write( "12  " )
f.write( str(ee) + "\n" )
f.write( MOL.save_string_xyz() )
f.close()
--------------------------------------------------------------------------

    Molecular point group: c1

    Geometry (in Angstrom), charge = 0, multiplicity = 1:

       Center              X                  Y                   Z               Mass
    ------------   -----------------  -----------------  -----------------  -----------------
           H         -1.043819419045    -1.368743495812     0.148510255082     1.007825032070
           O         -1.423191419045    -0.573529495812    -0.196396744918    15.994914619560
           C         -0.731869419045     0.539474504188     0.309705255082    12.000000000000
           C          0.679730580955     0.672480504188    -0.250982744918    12.000000000000
           H         -1.320227419045     1.404070504188     0.030635255082     1.007825032070
           H         -0.700474419045     0.506554504188     1.398226255082     1.007825032070
           C          1.598676580955    -0.492099495812     0.119147255082    12.000000000000
           H          0.615939580955     0.758571504188    -1.331799744918     1.007825032070
           H          1.106569580955     1.602674504188     0.117918255082     1.007825032070
           H          1.239275580955    -1.428596495812    -0.296784744918     1.007825032070
           H          2.600965580955    -0.335017495812    -0.265180744918     1.007825032070
           H          1.674491580955    -0.608380495812     1.197569255082     1.007825032070

  Charge       = 0
  Multiplicity = 1
  Basis Set: 6-31G*
  Basis Set:

    Orbital Energies (a.u.)
    -----------------------

    Doubly Occupied:

       1A    -20.553148     2A    -11.267993     3A    -11.219137
       4A    -11.218172     5A     -1.360097     6A     -1.051434
       7A     -0.927940     8A     -0.809776     9A     -0.695938
      10A     -0.636735    11A     -0.602190    12A     -0.588740
      13A     -0.539604    14A     -0.509818    15A     -0.493581
      16A     -0.469016    17A     -0.429753

  @DF-RHF Final Energy:  -193.10996485280285

   => Energetics <=

    Nuclear Repulsion Energy =            133.1162988959979145
    One-Electron Energy =                -525.7063358230544736
    Two-Electron Energy =                 199.4800720742538829
    DFT Exchange-Correlation Energy =       0.0000000000000000
    Empirical Dispersion Energy =           0.0000000000000000
    PCM Polarization Energy =               0.0000000000000000
    EFP Energy =                            0.0000000000000000
    Total Energy =                       -193.1099648528026478

  Mulliken Charges: (a.u.)
   Center  Symbol    Alpha    Beta     Spin     Total
       1     H     0.28005  0.28005  0.00000  0.43991
       2     O     4.37059  4.37059  0.00000 -0.74119
       3     C     2.99637  2.99637  0.00000  0.00727
       4     C     3.16143  3.16143  0.00000 -0.32285
       5     H     0.41436  0.41436  0.00000  0.17128
       6     H     0.43222  0.43222  0.00000  0.13555
       7     C     3.25042  3.25042  0.00000 -0.50084
       8     H     0.41390  0.41390  0.00000  0.17220
       9     H     0.42285  0.42285  0.00000  0.15431
      10     H     0.42241  0.42241  0.00000  0.15518
      11     H     0.41349  0.41349  0.00000  0.17302
      12     H     0.42191  0.42191  0.00000  0.15618

   Total alpha = 17.00000, Total beta = 17.00000, Total charge =  0.00000
