  ==> Input File <==

--------------------------------------------------------------------------
set {
	reference rhf
	basis 6-31G*
}

set_num_threads( 4 )
memory 2 gb

molecule MOL {
0 1

O	 -1.186334	 -2.792603	 -0.402026
C	 -0.889232	 -1.917193	 -1.156892
C	 -0.889235	 -0.467034	 -0.705952
C	 -0.469116	 -2.205331	 -2.580919
C	 0.379448	 -0.143569	 0.099626
H	 -1.762801	 -0.317006	 -0.080909
H	 -0.966311	 0.199037	 -1.560607
C	 1.631333	 -0.777471	 -0.511575
H	 0.482768	 0.934507	 0.149241
H	 0.263088	 -0.495696	 1.123449
C	 2.915987	 -0.544314	 0.291766
H	 1.766672	 -0.399098	 -1.523130
H	 1.471257	 -1.849544	 -0.605828
C	 3.373361	 0.914346	 0.347591
H	 3.708709	 -1.142521	 -0.150311
H	 2.780642	 -0.921148	 1.303579
H	 3.506512	 1.320010	 -0.651625
H	 4.322697	 0.999599	 0.867103
H	 2.660624	 1.545032	 0.868198
H	 -1.207047	 -1.800412	 -3.268497
H	 -0.384049	 -3.272274	 -2.733175
H	 0.477648	 -1.723513	 -2.807399

	symmetry c1
}
set optking {
	frozen_dihedral = ("
		6 3 5 8
	")
}

ee = optimize('scf')
oeprop('DIPOLE', 'QUADRUPOLE', 'MULLIKEN_CHARGES')
f=open( 'psi4out.xyz', 'w' )
f.write( "22  " )
f.write( str(ee) + "\n" )
f.write( MOL.save_string_xyz() )
f.close()
--------------------------------------------------------------------------

    Molecular point group: c1
  Charge       = 0
  Multiplicity = 1
  Basis Set: 6-31G*
  Basis Set:
  @DF-RHF Final Energy:  -348.09201869505455
    Total Energy =                       -348.0920186950544348
    Molecular point group: c1
  Basis Set: 6-31G*
  Basis Set:
  Basis Set: 6-31G*
  Basis Set:
  @DF-RHF Final Energy:  -348.09436175434882
    Total Energy =                       -348.0943617543488813
  Basis Set: 6-31G*
  Basis Set:
  Basis Set: 6-31G*
  Basis Set:
  @DF-RHF Final Energy:  -348.09450927458465
    Total Energy =                       -348.0945092745843681
  Basis Set: 6-31G*
  Basis Set:
  Basis Set: 6-31G*
  Basis Set:
  @DF-RHF Final Energy:  -348.09472449785250
    Total Energy =                       -348.0947244978526101
  Basis Set: 6-31G*
  Basis Set:
  @DF-RHF Final Energy:  -348.09485104402785
    Total Energy =                       -348.0948510440275641
  @DF-RHF Final Energy:  -348.09493388948363
    Total Energy =                       -348.0949338894836274
  @DF-RHF Final Energy:  -348.09504747751970
    Total Energy =                       -348.0950474775196994
  @DF-RHF Final Energy:  -348.09519306001062
    Total Energy =                       -348.0951930600108426
  @DF-RHF Final Energy:  -348.09529786475514
    Total Energy =                       -348.0952978647547980
  @DF-RHF Final Energy:  -348.09538592624847
    Total Energy =                       -348.0953859262482410
  @DF-RHF Final Energy:  -348.09546552786782
    Total Energy =                       -348.0954655278677592
  Basis Set: 6-31G*
  Basis Set:
  @DF-RHF Final Energy:  -348.09549534725932
    Total Energy =                       -348.0954953472593161
  Basis Set: 6-31G*
  Basis Set:
  Basis Set: 6-31G*
  Basis Set:
  @DF-RHF Final Energy:  -348.09552104653244
    Total Energy =                       -348.0955210465324399
  Basis Set: 6-31G*
  Basis Set:
  Basis Set: 6-31G*
  Basis Set:
  @DF-RHF Final Energy:  -348.09552440898204
    Total Energy =                       -348.0955244089816460
  Basis Set: 6-31G*
  Basis Set:
  Charge       = 0
  Multiplicity = 1
  Basis Set: 6-31G*
  Basis Set:

    Orbital Energies (a.u.)
    -----------------------

    Doubly Occupied:

       1A    -20.548428     2A    -11.326833     3A    -11.232625
       4A    -11.228751     5A    -11.221607     6A    -11.213746
       7A    -11.210552     8A    -11.207843     9A     -1.394996
      10A     -1.087343    11A     -1.041590    12A     -0.999907
      13A     -0.934687    14A     -0.855478    15A     -0.784022
      16A     -0.724144    17A     -0.662990    18A     -0.633106
      19A     -0.626858    20A     -0.613593    21A     -0.602161
      22A     -0.582441    23A     -0.560121    24A     -0.547788
      25A     -0.525352    26A     -0.521577    27A     -0.495342
      28A     -0.482316    29A     -0.461177    30A     -0.459386
      31A     -0.450511    32A     -0.396725

  @DF-RHF Final Energy:  -348.09552507370427

   => Energetics <=

    Nuclear Repulsion Energy =            379.7230843773442075
    One-Electron Energy =               -1224.3692259196400300
    Two-Electron Energy =                 496.5506164685914428
    DFT Exchange-Correlation Energy =       0.0000000000000000
    Empirical Dispersion Energy =           0.0000000000000000
    PCM Polarization Energy =               0.0000000000000000
    EFP Energy =                            0.0000000000000000
    Total Energy =                       -348.0955250737043798
    Molecular point group: c1
  Basis Set: 6-31G*
  Basis Set:

  -Total Gradient:
     Atom            X                  Y                   Z
    ------   -----------------  -----------------  -----------------
       1        0.000009712596     0.000017587244    -0.000027404372
       2       -0.000029606569     0.000006207735    -0.000002957164
       3       -0.000644393042     0.006331832608    -0.001439737171
       4       -0.000000643532    -0.000005989561     0.000003563452
       5        0.001579238338     0.004572957571    -0.003434861138
       6        0.000143994424    -0.006639203364     0.002125406798
       7        0.000003517136    -0.000020853582    -0.000006315210
       8       -0.001077601168    -0.004252866598     0.002765718578
       9        0.000006377869     0.000002659913     0.000006368038
      10        0.000012411891    -0.000000073587     0.000002605347
      11        0.000002644409    -0.000005386012    -0.000001039732
      12        0.000000168362     0.000002669934     0.000007352680
      13       -0.000000618112    -0.000001365476     0.000000198022
      14       -0.000003748605    -0.000002715606    -0.000006463124
      15        0.000004543128     0.000001488082     0.000002166595
      16       -0.000001839290    -0.000000557680    -0.000002542447
      17       -0.000000817019    -0.000000150030     0.000001552966
      18       -0.000000483034    -0.000003451991     0.000001582763
      19       -0.000002798256     0.000001603512    -0.000002845906
      20        0.000000859898     0.000003670983    -0.000000367633
      21        0.000002844032    -0.000002064460     0.000000692000
      22       -0.000003763460    -0.000005999633     0.000007326656

  **** Optimization is complete! (in 15 steps) ****
    Final optimized geometry and variables:
    Molecular point group: c1

    Geometry (in Angstrom), charge = 0, multiplicity = 1:

    O           -1.158513164177    -1.902066619668    -0.034833411095
    C           -1.442336665382    -1.004349037162    -0.768332010103
    C           -1.362536848845     0.449394381765    -0.324702701789
    C           -1.963260766211    -1.260881466993    -2.165312438232
    C           -0.220056222331     0.786979808071     0.647541998862
    H           -2.313784418978     0.593039594241     0.187372208955
    H           -1.351867777099     1.102327562038    -1.191297936605
    C            1.147900753836     0.200983711815     0.279951272094
    H           -0.165759795415     1.868122017096     0.721882863223
    H           -0.486914624108     0.422689510215     1.634974752784
    C            2.276473295041     0.625991807315     1.227500155653
    H            1.412718795799     0.492579939540    -0.737379694584
    H            1.078402927152    -0.878519340031     0.287799356999
    C            2.658048113098     2.105488730358     1.149701096112
    H            3.155834179468     0.029016480873     0.999394896508
    H            1.999180043670     0.375606963819     2.249395187875
    H            2.937850396676     2.383008214460     0.136818813133
    H            3.504702249707     2.319142039715     1.794924265736
    H            1.845249900553     2.754938905908     1.457838746894
    H           -2.894577120917    -0.727223046989    -2.331718660362
    H           -2.115868563048    -2.320837419006    -2.313471903049
    H           -1.247550472115    -0.892647436985    -2.895551610900

  Mulliken Charges: (a.u.)
   Center  Symbol    Alpha    Beta     Spin     Total
       1     O     4.26548  4.26548  0.00000 -0.53097
       2     C     2.73458  2.73458  0.00000  0.53084
       3     C     3.20939  3.20939  0.00000 -0.41879
       4     C     3.28875  3.28875  0.00000 -0.57750
       5     C     3.14902  3.14902  0.00000 -0.29804
       6     H     0.40197  0.40197  0.00000  0.19606
       7     H     0.41356  0.41356  0.00000  0.17288
       8     C     3.16421  3.16421  0.00000 -0.32843
       9     H     0.41760  0.41760  0.00000  0.16481
      10     H     0.41251  0.41251  0.00000  0.17498
      11     C     3.15398  3.15398  0.00000 -0.30795
      12     H     0.43034  0.43034  0.00000  0.13932
      13     H     0.39956  0.39956  0.00000  0.20088
      14     C     3.24103  3.24103  0.00000 -0.48206
      15     H     0.41976  0.41976  0.00000  0.16048
      16     H     0.42137  0.42137  0.00000  0.15727
      17     H     0.42308  0.42308  0.00000  0.15383
      18     H     0.41887  0.41887  0.00000  0.16226
      19     H     0.42165  0.42165  0.00000  0.15670
      20     H     0.40925  0.40925  0.00000  0.18149
      21     H     0.39708  0.39708  0.00000  0.20585
      22     H     0.40696  0.40696  0.00000  0.18608

   Total alpha = 32.00000, Total beta = 32.00000, Total charge = -0.00000
