                              Psi4 1.0.54 Driver

  ==> Input File <==

--------------------------------------------------------------------------
set {
	reference rhf
	basis cc-pvtz
}

set_num_threads( 4 )
memory 2 gb

molecule MOL {
0 1

H	 -3.971167	 -0.927035	 -0.815086
C	 -2.907157	 -0.789241	 -0.847825
C	 -2.330551	 -0.119216	 -1.911890
C	 -2.117125	 -1.281893	 0.173511
H	 -2.944393	 0.262901	 -2.704282
C	 -0.963229	 0.057458	 -1.953257
H	 -2.565258	 -1.801358	 0.998256
C	 -0.747861	 -1.105787	 0.133524
H	 -0.500311	 0.573732	 -2.769484
C	 -0.166874	 -0.435046	 -0.930935
H	 -0.133171	 -1.486076	 0.922869
C	 1.305382	 -0.218174	 -1.022304
O	 1.968286	 -0.725612	 -0.000027
O	 1.833790	 0.350655	 -1.918070
C	 3.373556	 -0.568203	 0.000011
H	 3.695416	 -0.031588	 -0.879663
H	 3.782700	 -1.565294	 -0.000152
H	 3.695405	 -0.031851	 0.879862

	symmetry c1
}
set optking {
	frozen_dihedral = ("
		12 13 15 16
	")
}

ee,wfn = optimize('scf', return_wfn=True)
oeprop( wfn, 'DIPOLE', 'QUADRUPOLE', 'MULLIKEN_CHARGES')
f=open( 'psi4out.xyz', 'w' )
f.write( "18  " )
f.write( str(ee) + "\n" )
f.write( MOL.save_string_xyz() )
f.close()
--------------------------------------------------------------------------

    Molecular point group: c1
  Charge       = 0
  Multiplicity = 1
  Basis Set: CC-PVTZ
  Basis Set:
  @DF-RHF Final Energy:  -457.50708842912650
    Total Energy =                       -457.5070884291267248
    Molecular point group: c1
  Basis Set: CC-PVTZ
  Basis Set:
  Basis Set: CC-PVTZ
  Basis Set:
  @DF-RHF Final Energy:  -457.50686378855494
    Total Energy =                       -457.5068637885545968
  Basis Set: CC-PVTZ
  Basis Set:
  Basis Set: CC-PVTZ
  Basis Set:
  @DF-RHF Final Energy:  -457.50800721418989
    Total Energy =                       -457.5080072141895471
  Basis Set: CC-PVTZ
  Basis Set:
  Basis Set: CC-PVTZ
  Basis Set:
  @DF-RHF Final Energy:  -457.50643341188652
    Total Energy =                       -457.5064334118866327
  Basis Set: CC-PVTZ
  Basis Set:
  Basis Set: CC-PVTZ
  Basis Set:
  @DF-RHF Final Energy:  -457.50806923602153
    Total Energy =                       -457.5080692360213561
  Basis Set: CC-PVTZ
  Basis Set:
  Basis Set: CC-PVTZ
  Basis Set:
  @DF-RHF Final Energy:  -457.50809302801702
    Total Energy =                       -457.5080930280170151
  Basis Set: CC-PVTZ
  Basis Set:
  Charge       = 0
  Multiplicity = 1
  Basis Set: CC-PVTZ
  Basis Set:

    Orbital Energies (a.u.)
    -----------------------

    Doubly Occupied:

       1A    -20.599832     2A    -20.533593     3A    -11.373297
       4A    -11.279812     5A    -11.244569     6A    -11.243168
       7A    -11.242241     8A    -11.239615     9A    -11.235672
      10A    -11.234906    11A     -1.474339    12A     -1.369067
      13A     -1.170315    14A     -1.051522    15A     -1.028635
      16A     -0.981633    17A     -0.862707    18A     -0.838021
      19A     -0.780311    20A     -0.745051    21A     -0.688399
      22A     -0.679174    23A     -0.676037    24A     -0.634300
      25A     -0.629709    26A     -0.600837    27A     -0.587429
      28A     -0.571664    29A     -0.526124    30A     -0.519957
      31A     -0.510141    32A     -0.501460    33A     -0.459914
      34A     -0.450051    35A     -0.350003    36A     -0.345839

  @DF-RHF Final Energy:  -457.50809344411385

   => Energetics <=

    Nuclear Repulsion Energy =            493.5719507351156494
    One-Electron Energy =               -1601.6413898271102880
    Two-Electron Energy =                 650.5613456478807848
    DFT Exchange-Correlation Energy =       0.0000000000000000
    Empirical Dispersion Energy =           0.0000000000000000
    PCM Polarization Energy =               0.0000000000000000
    EFP Energy =                            0.0000000000000000
    Total Energy =                       -457.5080934441137970
    Molecular point group: c1
  Basis Set: CC-PVTZ
  Basis Set:

  -Total Gradient:
     Atom            X                  Y                   Z
    ------   -----------------  -----------------  -----------------
       1        0.000002242991     0.000001407294    -0.000001032333
       2        0.000002909785     0.000007553593    -0.000009193646
       3       -0.000018787739    -0.000010040410     0.000004618626
       4       -0.000000095993     0.000001016510    -0.000006234225
       5       -0.000006604723    -0.000004112042     0.000004904775
       6       -0.000026450073     0.000002728129     0.000010891917
       7       -0.000006613218     0.000001149480    -0.000005329940
       8       -0.000032458776    -0.000007524118     0.000018846846
       9       -0.000001331689    -0.000008244667     0.000010590722
      10        0.000011814428     0.000011268473    -0.000033131203
      11       -0.000012771393     0.000009526938    -0.000020952338
      12       -0.000062953049    -0.000018534965     0.000020852699
      13        0.000011921640     0.000073952120    -0.000098762710
      14        0.000058020723    -0.000043880506     0.000089293161
      15        0.000097067666    -0.000033638875     0.000020853327
      16       -0.000025894730     0.000003894327    -0.000003844069
      17        0.000011828583     0.000018316303     0.000005814448
      18       -0.000001844432    -0.000004837586    -0.000008186061

  **** Optimization is complete! (in 7 steps) ****
    Final optimized geometry and variables:
    Molecular point group: c1

    Geometry (in Angstrom), charge = 0, multiplicity = 1:

    H           -4.029460492810    -0.291337562846    -0.252838217163
    C           -2.960870762805    -0.195087714219    -0.219465575409
    C           -2.294060878996     0.453563424184    -1.243339508369
    C           -2.254781391829    -0.719604116117     0.846410661409
    H           -2.842512737771     0.860592920846    -2.070595682612
    C           -0.920961254080     0.576842998042    -1.199717521638
    H           -2.772475183032    -1.222554747782     1.640131433173
    C           -0.879696240320    -0.596934480743     0.891473575835
    H           -0.389268251160     1.075957283609    -1.984054290840
    C           -0.208300559543     0.052181337725    -0.132390898642
    H           -0.330510211351    -1.002236615816     1.715746258326
    C            1.275456896282     0.212894595307    -0.134212932565
    O            1.846058724451    -0.324397492578     0.928734221514
    O            1.871148119699     0.763481121355    -0.997911814792
    C            3.252193829965    -0.257637549821     1.078647814321
    H            3.703794684273     0.257864454049     0.249566582093
    H            3.628799069832    -1.268045834024     1.139383050757
    H            3.464087393959     0.262419499321     2.001201526133

  Mulliken Charges: (a.u.)
   Center  Symbol    Alpha    Beta     Spin     Total
       1     H     0.42035  0.42035  0.00000  0.15930
       2     C     3.06970  3.06970  0.00000 -0.13939
       3     C     3.07553  3.07553  0.00000 -0.15107
       4     C     3.07479  3.07479  0.00000 -0.14957
       5     H     0.42050  0.42050  0.00000  0.15900
       6     C     3.07599  3.07599  0.00000 -0.15199
       7     H     0.42200  0.42200  0.00000  0.15600
       8     C     3.08183  3.08183  0.00000 -0.16367
       9     H     0.40633  0.40633  0.00000  0.18733
      10     C     3.01882  3.01882  0.00000 -0.03764
      11     H     0.41126  0.41126  0.00000  0.17749
      12     C     2.77410  2.77410  0.00000  0.45181
      13     O     4.15034  4.15034  0.00000 -0.30068
      14     O     4.21149  4.21149  0.00000 -0.42298
      15     C     3.04314  3.04314  0.00000 -0.08628
      16     H     0.43907  0.43907  0.00000  0.12185
      17     H     0.45238  0.45238  0.00000  0.09524
      18     H     0.45238  0.45238  0.00000  0.09524

   Total alpha = 36.00000, Total beta = 36.00000, Total charge = -0.00000

*** Psi4 exiting successfully. Buy a developer a beer!
