  ==> Input File <==

--------------------------------------------------------------------------
set {
	reference rhf
	basis 6-31G*
}

set_num_threads( 1 )
memory 2 gb

molecule MOL {
0 1

H	 2.176868	 -0.646004	 -0.217325
O	 1.337496	 -0.537251	 0.205931
C	 0.702312	 0.627605	 -0.264544
C	 -0.714990	 0.596302	 0.266387
H	 0.682322	 0.642550	 -1.350929
H	 1.215941	 1.520383	 0.085680
O	 -1.405996	 -0.526611	 -0.195820
H	 -1.257453	 1.468809	 -0.075599
H	 -0.688972	 0.618407	 1.353696
H	 -1.145546	 -1.266044	 0.338426

	symmetry c1
}
set optking {
	frozen_dihedral = ("
		5 3 4 7
	")
}

ee = energy('scf')
oeprop('DIPOLE', 'QUADRUPOLE', 'MULLIKEN_CHARGES')
f=open( 'psi4out.xyz', 'w' )
f.write( "10  " )
f.write( str(ee) + "\n" )
f.write( MOL.save_string_xyz() )
f.close()
--------------------------------------------------------------------------

    Molecular point group: c1

    Geometry (in Angstrom), charge = 0, multiplicity = 1:

       Center              X                  Y                   Z               Mass
    ------------   -----------------  -----------------  -----------------  -----------------
           H          2.181009646218    -0.646437595337    -0.222464495310     1.007825032070
           O          1.341637646218    -0.537684595337     0.200791504690    15.994914619560
           C          0.706453646218     0.627171404663    -0.269683495310    12.000000000000
           C         -0.710848353782     0.595868404663     0.261247504690    12.000000000000
           H          0.686463646218     0.642116404663    -1.356068495310     1.007825032070
           H          1.220082646218     1.519949404663     0.080540504690     1.007825032070
           O         -1.401854353782    -0.527044595337    -0.200959495310    15.994914619560
           H         -1.253311353782     1.468375404663    -0.080738495310     1.007825032070
           H         -0.684830353782     0.617973404663     1.348556504690     1.007825032070
           H         -1.141404353782    -1.266477595337     0.333286504690     1.007825032070

  Charge       = 0
  Multiplicity = 1
  Basis Set: 6-31G*
  Basis Set:

    Orbital Energies (a.u.)
    -----------------------

    Doubly Occupied:

       1A    -20.562196     2A    -20.549951     3A    -11.271719
       4A    -11.268512     5A     -1.376727     6A     -1.349976
       7A     -1.000366     8A     -0.838553     9A     -0.724349
      10A     -0.688690    11A     -0.634339    12A     -0.600907
      13A     -0.577321    14A     -0.521837    15A     -0.492725
      16A     -0.448102    17A     -0.432498

  @DF-RHF Final Energy:  -228.92375694650741

   => Energetics <=

    Nuclear Repulsion Energy =            134.3542655763390030
    One-Electron Energy =                -579.8785970520755200
    Two-Electron Energy =                 216.6005745292290783
    DFT Exchange-Correlation Energy =       0.0000000000000000
    Empirical Dispersion Energy =           0.0000000000000000
    PCM Polarization Energy =               0.0000000000000000
    EFP Energy =                            0.0000000000000000
    Total Energy =                       -228.9237569465074387

  Mulliken Charges: (a.u.)
   Center  Symbol    Alpha    Beta     Spin     Total
       1     H     0.27770  0.27770  0.00000  0.44460
       2     O     4.37651  4.37651  0.00000 -0.75301
       3     C     3.00295  3.00295  0.00000 -0.00590
       4     C     3.00495  3.00495  0.00000 -0.00990
       5     H     0.42346  0.42346  0.00000  0.15307
       6     H     0.43124  0.43124  0.00000  0.13751
       7     O     4.36757  4.36757  0.00000 -0.73514
       8     H     0.41706  0.41706  0.00000  0.16588
       9     H     0.42397  0.42397  0.00000  0.15205
      10     H     0.27458  0.27458  0.00000  0.45085

   Total alpha = 17.00000, Total beta = 17.00000, Total charge =  0.00000
