                              Psi4 1.0.54 Driver

  ==> Input File <==

--------------------------------------------------------------------------
set {
	reference rhf
	basis cc-pvtz
}

set_num_threads( 4 )
memory 2 gb

molecule MOL {
0 1

H	 2.190573	 -0.629143	 -0.208718
O	 1.355408	 -0.529451	 0.208662
C	 0.700177	 0.619554	 -0.266242
C	 -0.713111	 0.588314	 0.266177
H	 0.678680	 0.627133	 -1.351786
H	 1.199747	 1.521489	 0.077736
O	 -1.421673	 -0.521378	 -0.196983
H	 -1.244794	 1.469161	 -0.069059
H	 -0.685100	 0.604721	 1.352683
H	 -1.454145	 -0.484702	 -1.136996

	symmetry c1
}
set optking {
	frozen_dihedral = ("
		10 7 4 3
	")
}

ee,wfn = optimize('scf', return_wfn=True)
oeprop( wfn, 'DIPOLE', 'QUADRUPOLE', 'MULLIKEN_CHARGES')
f=open( 'psi4out.xyz', 'w' )
f.write( "10  " )
f.write( str(ee) + "\n" )
f.write( MOL.save_string_xyz() )
f.close()
--------------------------------------------------------------------------

    Molecular point group: c1
  Charge       = 0
  Multiplicity = 1
  Basis Set: CC-PVTZ
  Basis Set:
  @DF-RHF Final Energy:  -229.02135244895391
    Total Energy =                       -229.0213524489539054
    Molecular point group: c1
  Basis Set: CC-PVTZ
  Basis Set:
  Basis Set: CC-PVTZ
  Basis Set:
  @DF-RHF Final Energy:  -229.02317138279813
    Total Energy =                       -229.0231713827980968
  Basis Set: CC-PVTZ
  Basis Set:
  Basis Set: CC-PVTZ
  Basis Set:
  @DF-RHF Final Energy:  -229.02343096948124
    Total Energy =                       -229.0234309694812964
  Basis Set: CC-PVTZ
  Basis Set:
  Basis Set: CC-PVTZ
  Basis Set:
  @DF-RHF Final Energy:  -229.02344742448852
    Total Energy =                       -229.0234474244886087
  Basis Set: CC-PVTZ
  Basis Set:
  Basis Set: CC-PVTZ
  Basis Set:
  @DF-RHF Final Energy:  -229.02344891465401
    Total Energy =                       -229.0234489146540966
  Basis Set: CC-PVTZ
  Basis Set:
  Charge       = 0
  Multiplicity = 1
  Basis Set: CC-PVTZ
  Basis Set:

    Orbital Energies (a.u.)
    -----------------------

    Doubly Occupied:

       1A    -20.551567     2A    -20.546225     3A    -11.274534
       4A    -11.268551     5A     -1.379028     6A     -1.358159
       7A     -1.003915     8A     -0.846911     9A     -0.723085
      10A     -0.678187    11A     -0.658846    12A     -0.600926
      13A     -0.573621    14A     -0.544458    15A     -0.480169
      16A     -0.449102    17A     -0.440673

  @DF-RHF Final Energy:  -229.02344916646965

   => Energetics <=

    Nuclear Repulsion Energy =            133.4446357013850673
    One-Electron Energy =                -578.1802496391114801
    Two-Electron Energy =                 215.7121647712567665
    DFT Exchange-Correlation Energy =       0.0000000000000000
    Empirical Dispersion Energy =           0.0000000000000000
    PCM Polarization Energy =               0.0000000000000000
    EFP Energy =                            0.0000000000000000
    Total Energy =                       -229.0234491664696179
    Molecular point group: c1
  Basis Set: CC-PVTZ
  Basis Set:

  -Total Gradient:
     Atom            X                  Y                   Z
    ------   -----------------  -----------------  -----------------
       1       -0.000001843217    -0.000014046483     0.000003713066
       2       -0.000010941330     0.000039355970    -0.000017225815
       3        0.000044168934    -0.000049146976     0.000046651340
       4       -0.000046346160     0.000003035431    -0.000036434952
       5        0.000003588751     0.000011277555    -0.000017138894
       6       -0.000003425428    -0.000001367972    -0.000011892209
       7        0.000053873568    -0.000003903608     0.000006266001
       8       -0.000005631492    -0.000007083005     0.000006978978
       9       -0.000006678693     0.000005303897     0.000012501163
      10       -0.000026764935     0.000016575189     0.000006581321

  **** Optimization is complete! (in 6 steps) ****
    Final optimized geometry and variables:
    Molecular point group: c1

    Geometry (in Angstrom), charge = 0, multiplicity = 1:

    H            2.267979071270    -0.604688714077     0.062637377685
    O            1.373943546767    -0.563033321087     0.347280346178
    C            0.744884920496     0.559548740144    -0.196015690787
    C           -0.708966683478     0.577351468188     0.221209951162
    H            0.811281982432     0.554064704135    -1.284047570113
    H            1.211808684860     1.477681263211     0.155500343908
    O           -1.460026044418    -0.479031658464    -0.298676348232
    H           -1.136227622487     1.536665155721    -0.064618312757
    H           -0.769081179340     0.493642895227     1.297413954048
    H           -1.447241525266    -0.455913881893    -1.238250253318

  Mulliken Charges: (a.u.)
   Center  Symbol    Alpha    Beta     Spin     Total
       1     H     0.39599  0.39599  0.00000  0.20801
       2     O     4.19051  4.19051  0.00000 -0.38102
       3     C     2.96599  2.96599  0.00000  0.06801
       4     C     2.96531  2.96531  0.00000  0.06937
       5     H     0.48273  0.48273  0.00000  0.03454
       6     H     0.47548  0.47548  0.00000  0.04904
       7     O     4.19652  4.19652  0.00000 -0.39304
       8     H     0.47459  0.47459  0.00000  0.05082
       9     H     0.45590  0.45590  0.00000  0.08820
      10     H     0.39697  0.39697  0.00000  0.20606

   Total alpha = 17.00000, Total beta = 17.00000, Total charge = -0.00000

*** Psi4 exiting successfully. Buy a developer a beer!
