  ==> Input File <==

--------------------------------------------------------------------------
set {
	reference rhf
	basis 6-31G*
}

set_num_threads( 4 )
memory 2 gb

molecule MOL {
0 1

H	 -0.000158	 1.970498	 0.756846
O	 -0.000074	 1.880206	 -0.189275
C	 -0.000015	 0.544847	 -0.545111
C	 0.649008	 -0.285892	 0.556992
C	 0.649217	 0.372654	 -1.914361
H	 -1.028221	 0.226002	 -0.630157
F	 -0.025391	 -0.138335	 1.677241
F	 0.676695	 -1.568773	 0.264062
F	 1.891182	 0.113927	 0.777774
F	 -0.024860	 1.058333	 -2.812694
F	 0.676648	 -0.885864	 -2.298756
F	 1.891499	 0.829001	 -1.906663

	symmetry c1
}
set optking {
	frozen_dihedral = ("
		6 3 2 1
	")
}

ee = optimize('scf')
oeprop('DIPOLE', 'QUADRUPOLE', 'MULLIKEN_CHARGES')
f=open( 'psi4out.xyz', 'w' )
f.write( "12  " )
f.write( str(ee) + "\n" )
f.write( MOL.save_string_xyz() )
f.close()
--------------------------------------------------------------------------

    Molecular point group: c1
  Charge       = 0
  Multiplicity = 1
  Basis Set: 6-31G*
  Basis Set:
  @DF-RHF Final Energy:  -786.27226487096721
    Total Energy =                       -786.2722648709670921
    Molecular point group: c1
  Basis Set: 6-31G*
  Basis Set:
  Basis Set: 6-31G*
  Basis Set:
  @DF-RHF Final Energy:  -786.27423789373347
    Total Energy =                       -786.2742378937336980
  Basis Set: 6-31G*
  Basis Set:
  Basis Set: 6-31G*
  Basis Set:
  @DF-RHF Final Energy:  -786.27467998418285
    Total Energy =                       -786.2746799841831944
  Basis Set: 6-31G*
  Basis Set:
  Basis Set: 6-31G*
  Basis Set:
  @DF-RHF Final Energy:  -786.27476932158413
    Total Energy =                       -786.2747693215849267
  Basis Set: 6-31G*
  Basis Set:
  Basis Set: 6-31G*
  Basis Set:
  @DF-RHF Final Energy:  -786.27478736471744
    Total Energy =                       -786.2747873647175538
  Basis Set: 6-31G*
  Basis Set:
  Basis Set: 6-31G*
  Basis Set:
  @DF-RHF Final Energy:  -786.27479193559486
    Total Energy =                       -786.2747919355944077
  Basis Set: 6-31G*
  Basis Set:
  Charge       = 0
  Multiplicity = 1
  Basis Set: 6-31G*
  Basis Set:

    Orbital Energies (a.u.)
    -----------------------

    Doubly Occupied:

       1A    -26.370912     2A    -26.366698     3A    -26.364761
       4A    -26.355396     5A    -26.351562     6A    -26.351118
       7A    -20.614106     8A    -11.532075     9A    -11.520620
      10A    -11.349166    11A     -1.768701    12A     -1.753739
      13A     -1.665794    14A     -1.663645    15A     -1.650818
      16A     -1.649108    17A     -1.432866    18A     -1.103564
      19A     -0.997761    20A     -0.935646    21A     -0.869693
      22A     -0.860881    23A     -0.855816    24A     -0.841179
      25A     -0.830713    26A     -0.789818    27A     -0.750457
      28A     -0.734442    29A     -0.718706    30A     -0.717324
      31A     -0.709936    32A     -0.688208    33A     -0.684599
      34A     -0.668245    35A     -0.667301    36A     -0.663587
      37A     -0.651857    38A     -0.646409    39A     -0.615592
      40A     -0.546519    41A     -0.503656

  @DF-RHF Final Energy:  -786.27479305753991

   => Energetics <=

    Nuclear Repulsion Energy =            670.7691837269003372
    One-Electron Energy =               -2428.4619643347241436
    Two-Electron Energy =                 971.4179875502841242
    DFT Exchange-Correlation Energy =       0.0000000000000000
    Empirical Dispersion Energy =           0.0000000000000000
    PCM Polarization Energy =               0.0000000000000000
    EFP Energy =                            0.0000000000000000
    Total Energy =                       -786.2747930575396822
    Molecular point group: c1
  Basis Set: 6-31G*
  Basis Set:

  -Total Gradient:
     Atom            X                  Y                   Z
    ------   -----------------  -----------------  -----------------
       1        0.002599995042     0.000018383850     0.000118885065
       2       -0.003231888631     0.000052662153    -0.000815546354
       3        0.000501327820    -0.000652139679     0.002836142415
       4        0.000111489727    -0.000010150797     0.000005577554
       5        0.000109739265     0.000101727086    -0.000021714972
       6        0.000089710940     0.000569942087    -0.002181336296
       7       -0.000039257440     0.000009775852     0.000059064813
       8        0.000004179906     0.000003762569    -0.000003387524
       9       -0.000055028767    -0.000018214608    -0.000021101760
      10       -0.000054305571     0.000012306988    -0.000021490351
      11       -0.000031902685    -0.000084174513     0.000002033350
      12       -0.000004059598    -0.000003880996     0.000042874051

  **** Optimization is complete! (in 7 steps) ****
    Final optimized geometry and variables:
    Molecular point group: c1

    Geometry (in Angstrom), charge = 0, multiplicity = 1:

    H           -0.745697846544     1.811705302363     1.363723116887
    O           -0.707317774620     1.688826012862     0.424299953584
    C           -0.683168704934     0.345617587005     0.093957457844
    C           -0.006615251462    -0.482768506612     1.179817714499
    C            0.007894650301     0.239793000115    -1.260053665585
    H           -1.681960095434    -0.054941852298    -0.042541999298
    F           -0.568247620325    -0.178741810516     2.345475969729
    F           -0.169013103696    -1.770841592811     0.977359630578
    F            1.279400731848    -0.235446741480     1.288625613052
    F           -0.693899603288     0.891758123528    -2.163365252769
    F            0.084140374527    -1.024128855403    -1.638708434068
    F            1.222601209241     0.737539523301    -1.245362009025

  Mulliken Charges: (a.u.)
   Center  Symbol    Alpha    Beta     Spin     Total
       1     H     0.26271  0.26271  0.00000  0.47458
       2     O     4.37093  4.37093  0.00000 -0.74185
       3     C     3.03104  3.03104  0.00000 -0.06209
       4     C     2.45704  2.45704  0.00000  1.08591
       5     C     2.43644  2.43644  0.00000  1.12711
       6     H     0.38681  0.38681  0.00000  0.22637
       7     F     4.68673  4.68673  0.00000 -0.37347
       8     F     4.67146  4.67146  0.00000 -0.34293
       9     F     4.66961  4.66961  0.00000 -0.33921
      10     F     4.67656  4.67656  0.00000 -0.35312
      11     F     4.67946  4.67946  0.00000 -0.35892
      12     F     4.67119  4.67119  0.00000 -0.34239

   Total alpha = 41.00000, Total beta = 41.00000, Total charge =  0.00000
