                              Psi4 1.0.54 Driver

  ==> Input File <==

--------------------------------------------------------------------------
set {
	reference rhf
	basis cc-pvtz
}

set_num_threads( 4 )
memory 2 gb

molecule MOL {
0 1

H	 1.600070	 4.840674	 -0.508062
C	 2.258234	 4.675011	 0.355802
C	 1.614128	 3.966552	 1.516451
O	 3.377441	 5.054365	 0.327961
C	 0.920647	 2.664383	 1.105214
H	 2.366025	 3.795647	 2.275909
H	 0.874716	 4.651173	 1.926166
C	 1.886365	 1.575227	 0.643357
H	 0.344868	 2.301144	 1.949533
H	 0.201359	 2.873131	 0.317024
C	 1.181757	 0.280428	 0.247371
H	 2.597684	 1.371088	 1.439259
H	 2.472770	 1.935752	 -0.197820
C	 2.151032	 -0.811012	 -0.202643
H	 0.591400	 -0.069953	 1.088238
H	 0.477751	 0.486348	 -0.555916
C	 3.580021	 -0.656538	 0.320835
H	 2.170545	 -0.847575	 -1.289412
H	 1.766632	 -1.772905	 0.124928
C	 4.327657	 0.562694	 -0.213579
H	 4.138806	 -1.549270	 0.057813
H	 3.561991	 -0.620783	 1.406976
H	 4.355973	 0.557257	 -1.298551
H	 3.867136	 1.491650	 0.100501
H	 5.351524	 0.571613	 0.142204

	symmetry c1
}
set optking {
	frozen_dihedral = ("
		8 11 14 18
	")
}

ee,wfn = optimize('scf', return_wfn=True)
oeprop( wfn, 'DIPOLE', 'QUADRUPOLE', 'MULLIKEN_CHARGES')
f=open( 'psi4out.xyz', 'w' )
f.write( "25  " )
f.write( str(ee) + "\n" )
f.write( MOL.save_string_xyz() )
f.close()
--------------------------------------------------------------------------

    Molecular point group: c1
  Charge       = 0
  Multiplicity = 1
  Basis Set: CC-PVTZ
  Basis Set:
  @DF-RHF Final Energy:  -387.22659729205935
    Total Energy =                       -387.2265972920597505
    Molecular point group: c1
  Basis Set: CC-PVTZ
  Basis Set:
  Basis Set: CC-PVTZ
  Basis Set:
  @DF-RHF Final Energy:  -387.24395824680914
    Total Energy =                       -387.2439582468088020
  Basis Set: CC-PVTZ
  Basis Set:
  Basis Set: CC-PVTZ
  Basis Set:
  @DF-RHF Final Energy:  -387.24858473069332
    Total Energy =                       -387.2485847306935511
  Basis Set: CC-PVTZ
  Basis Set:
  Basis Set: CC-PVTZ
  Basis Set:
  @DF-RHF Final Energy:  -387.24964179267249
    Total Energy =                       -387.2496417926721506
  Basis Set: CC-PVTZ
  Basis Set:
  @DF-RHF Final Energy:  -387.24823116246108
    Total Energy =                       -387.2482311624606837
  @DF-RHF Final Energy:  -387.24993908358579
    Total Energy =                       -387.2499390835855593
  @DF-RHF Final Energy:  -387.25041537161979
    Total Energy =                       -387.2504153716197379
  @DF-RHF Final Energy:  -387.25042697802502
    Total Energy =                       -387.2504269780251889
  Basis Set: CC-PVTZ
  Basis Set:
  @DF-RHF Final Energy:  -387.25043657292269
    Total Energy =                       -387.2504365729228084
  Basis Set: CC-PVTZ
  Basis Set:
  Basis Set: CC-PVTZ
  Basis Set:
  @DF-RHF Final Energy:  -387.25043788416588
    Total Energy =                       -387.2504378841661037
  Basis Set: CC-PVTZ
  Basis Set:
  Basis Set: CC-PVTZ
  Basis Set:
  @DF-RHF Final Energy:  -387.25044152536452
    Total Energy =                       -387.2504415253640673
  Basis Set: CC-PVTZ
  Basis Set:
  Charge       = 0
  Multiplicity = 1
  Basis Set: CC-PVTZ
  Basis Set:

    Orbital Energies (a.u.)
    -----------------------

    Doubly Occupied:

       1A    -20.551610     2A    -11.321162     3A    -11.233856
       4A    -11.232777     5A    -11.221176     6A    -11.219095
       7A    -11.216129     8A    -11.215420     9A    -11.205030
      10A     -1.406586    11A     -1.103863    12A     -1.066889
      13A     -1.011153    14A     -0.947937    15A     -0.874495
      16A     -0.827731    17A     -0.789415    18A     -0.771793
      19A     -0.669034    20A     -0.662005    21A     -0.629566
      22A     -0.624204    23A     -0.610803    24A     -0.594955
      25A     -0.568531    26A     -0.557018    27A     -0.533309
      28A     -0.523502    29A     -0.517862    30A     -0.496795
      31A     -0.489746    32A     -0.486278    33A     -0.453965
      34A     -0.449947    35A     -0.443452    36A     -0.412033

  @DF-RHF Final Energy:  -387.25044164932041

   => Energetics <=

    Nuclear Repulsion Energy =            451.3977538358818151
    One-Electron Energy =               -1419.4181384765929579
    Two-Electron Energy =                 580.7699429913905078
    DFT Exchange-Correlation Energy =       0.0000000000000000
    Empirical Dispersion Energy =           0.0000000000000000
    PCM Polarization Energy =               0.0000000000000000
    EFP Energy =                            0.0000000000000000
    Total Energy =                       -387.2504416493206918
    Molecular point group: c1
  Basis Set: CC-PVTZ
  Basis Set:

  -Total Gradient:
     Atom            X                  Y                   Z
    ------   -----------------  -----------------  -----------------
       1       -0.000012126773    -0.000018507723     0.000004532072
       2        0.000006475354     0.000035209009     0.000000644460
       3       -0.000000259103     0.000006481654    -0.000002256415
       4        0.000000389533    -0.000020679574     0.000010384963
       5        0.000002915216    -0.000008658937    -0.000006438280
       6       -0.000003030722     0.000001399889    -0.000006688333
       7        0.000004224970     0.000001536695    -0.000006240999
       8        0.000413737337    -0.001672458401     0.004186869352
       9        0.000002937810     0.000000233493    -0.000001700503
      10        0.000002124769    -0.000000407153     0.000003843897
      11       -0.001622687728     0.001479692931    -0.006174837030
      12        0.000004512574     0.000000006422     0.000006643567
      13       -0.000002412043     0.000000768887     0.000005967665
      14        0.005582345224     0.004224785878     0.002050536601
      15        0.000004522885    -0.000005897711    -0.000001896650
      16        0.000001652215    -0.000002177741    -0.000004874526
      17        0.000000847469     0.000009905044     0.000008261353
      18       -0.004357331208    -0.004046968590    -0.000080247297
      19       -0.000002110301     0.000006892595     0.000008714625
      20       -0.000013690008     0.000009989513     0.000000006346
      21       -0.000009462914     0.000003227709     0.000002426919
      22       -0.000006455600     0.000005053631     0.000000824025
      23       -0.000000342064     0.000002262875    -0.000000650330
      24        0.000007264348    -0.000013320078    -0.000000311835
      25       -0.000004041242     0.000001629683    -0.000003513646

  **** Optimization is complete! (in 12 steps) ****
    Final optimized geometry and variables:
    Molecular point group: c1

    Geometry (in Angstrom), charge = 0, multiplicity = 1:

    H           -1.230550073987     3.008983918838    -0.689066591490
    C           -0.526430465870     2.860753527060     0.141047046370
    C           -1.031606404940     1.979149888923     1.250570420263
    O            0.533068174729     3.384641841382     0.118859247143
    C           -1.546241024139     0.628021134935     0.744890487196
    H           -0.241610145685     1.857087822305     1.980226000529
    H           -1.847980380371     2.516568544888     1.727962120408
    C           -0.448350891972    -0.269224119368     0.175170996898
    H           -2.038144793069     0.119174786966     1.566726728332
    H           -2.311980367487     0.793710577115    -0.008938381805
    C           -1.000771407144    -1.610605172833    -0.304978166912
    H            0.305020956456    -0.425878698341     0.938862390790
    H            0.046917703503     0.245603339958    -0.642399071623
    C           -0.003187333898    -2.673799701548    -0.821415599362
    H           -1.542512032001    -2.044286675738     0.531714994834
    H           -1.745049239172    -1.433271107138    -1.074703515541
    C            1.430646953644    -2.677462295385    -0.278690125605
    H            0.009975977349    -2.666687352259    -1.907688915643
    H           -0.441514241354    -3.636400500121    -0.575769840989
    C            2.400561152263    -1.717150432469    -0.964799817796
    H            1.821159891676    -3.682890553790    -0.399329158475
    H            1.422482973011    -2.493431486304     0.791566975597
    H            2.441904199327    -1.913693886061    -2.031075517576
    H            2.126223798811    -0.679832014223    -0.832013221782
    H            3.402445511098    -1.841938596634    -0.569423408378

  Mulliken Charges: (a.u.)
   Center  Symbol    Alpha    Beta     Spin     Total
       1     H     0.46387  0.46387  0.00000  0.07225
       2     C     2.90520  2.90520  0.00000  0.18960
       3     C     3.08875  3.08875  0.00000 -0.17749
       4     O     4.16644  4.16644  0.00000 -0.33288
       5     C     3.11639  3.11639  0.00000 -0.23278
       6     H     0.44300  0.44300  0.00000  0.11400
       7     H     0.44041  0.44041  0.00000  0.11919
       8     C     3.10117  3.10117  0.00000 -0.20233
       9     H     0.44304  0.44304  0.00000  0.11393
      10     H     0.44926  0.44926  0.00000  0.10147
      11     C     3.09341  3.09341  0.00000 -0.18682
      12     H     0.44519  0.44519  0.00000  0.10962
      13     H     0.44693  0.44693  0.00000  0.10614
      14     C     3.09796  3.09796  0.00000 -0.19592
      15     H     0.45307  0.45307  0.00000  0.09385
      16     H     0.44865  0.44865  0.00000  0.10270
      17     C     3.10143  3.10143  0.00000 -0.20285
      18     H     0.45222  0.45222  0.00000  0.09557
      19     H     0.44737  0.44737  0.00000  0.10525
      20     C     3.15013  3.15013  0.00000 -0.30026
      21     H     0.44398  0.44398  0.00000  0.11205
      22     H     0.45170  0.45170  0.00000  0.09661
      23     H     0.45486  0.45486  0.00000  0.09028
      24     H     0.44825  0.44825  0.00000  0.10350
      25     H     0.44733  0.44733  0.00000  0.10534

   Total alpha = 36.00000, Total beta = 36.00000, Total charge = -0.00000

*** Psi4 exiting successfully. Buy a developer a beer!
