  ==> Input File <==

--------------------------------------------------------------------------
set {
	reference rhf
	basis cc-pvtz
}

set_num_threads( 4 )
memory 2 gb

molecule MOL {
0 1

H	 0.655477	 -3.598606	 4.113245
C	 0.898999	 -2.975348	 3.275175
C	 0.193283	 -3.086936	 2.085492
C	 1.915339	 -2.052573	 3.361283
H	 -0.603269	 -3.801542	 1.999609
C	 0.501960	 -2.290399	 1.009263
H	 2.472578	 -1.951704	 4.273424
C	 2.240241	 -1.240119	 2.283895
H	 -0.037079	 -2.368670	 0.085693
C	 1.530911	 -1.359200	 1.102900
H	 3.036542	 -0.531910	 2.382929
O	 1.760432	 -0.625184	 0.000000
C	 2.773565	 0.334879	 0.000000
H	 2.728295	 0.960928	 -0.884150
H	 3.706387	 -0.206610	 0.000000
H	 2.728295	 0.960928	 0.884150

	symmetry c1
}
set optking {
	frozen_dihedral = ("
		10 12 13 14
	")
}

ee = optimize('scf')
oeprop('DIPOLE', 'QUADRUPOLE', 'MULLIKEN_CHARGES')
f=open( 'psi4out.xyz', 'w' )
f.write( "16  " )
f.write( str(ee) + "\n" )
f.write( MOL.save_string_xyz() )
f.close()
--------------------------------------------------------------------------

    Molecular point group: c1
  Charge       = 0
  Multiplicity = 1
  Basis Set: CC-PVTZ
  Basis Set:
  @DF-RHF Final Energy:  -344.70130854888356
    Total Energy =                       -344.7013085488835600
    Molecular point group: c1
  Basis Set: CC-PVTZ
  Basis Set:
  Basis Set: CC-PVTZ
  Basis Set:
  @DF-RHF Final Energy:  -344.70302813561534
    Total Energy =                       -344.7030281356151704
  Basis Set: CC-PVTZ
  Basis Set:
  Basis Set: CC-PVTZ
  Basis Set:
  @DF-RHF Final Energy:  -344.70351009647351
    Total Energy =                       -344.7035100964735079
  Basis Set: CC-PVTZ
  Basis Set:
  Basis Set: CC-PVTZ
  Basis Set:
  @DF-RHF Final Energy:  -344.70351918969243
    Total Energy =                       -344.7035191896924857
  Basis Set: CC-PVTZ
  Basis Set:
  Basis Set: CC-PVTZ
  Basis Set:
  @DF-RHF Final Energy:  -344.70352195632614
    Total Energy =                       -344.7035219563261990
  Basis Set: CC-PVTZ
  Basis Set:
  Charge       = 0
  Multiplicity = 1
  Basis Set: CC-PVTZ
  Basis Set:

    Orbital Energies (a.u.)
    -----------------------

    Doubly Occupied:

       1A    -20.580325     2A    -11.293689     3A    -11.278509
       4A    -11.231242     5A    -11.229994     6A    -11.221824
       7A    -11.217992     8A    -11.216911     9A     -1.419779
      10A     -1.150946    11A     -1.025708    12A     -1.016653
      13A     -0.944306    14A     -0.834592    15A     -0.808314
      16A     -0.726222    17A     -0.667770    18A     -0.666456
      19A     -0.660844    20A     -0.619334    21A     -0.590228
      22A     -0.579653    23A     -0.528155    24A     -0.523580
      25A     -0.512391    26A     -0.479199    27A     -0.467194
      28A     -0.339761    29A     -0.310074

  @DF-RHF Final Energy:  -344.70352213404578

   => Energetics <=

    Nuclear Repulsion Energy =            348.8931452491239043
    One-Electron Energy =               -1158.9100461537973388
    Two-Electron Energy =                 465.3133787706277644
    DFT Exchange-Correlation Energy =       0.0000000000000000
    Empirical Dispersion Energy =           0.0000000000000000
    PCM Polarization Energy =               0.0000000000000000
    EFP Energy =                            0.0000000000000000
    Total Energy =                       -344.7035221340456701
    Molecular point group: c1
  Basis Set: CC-PVTZ
  Basis Set:

  -Total Gradient:
     Atom            X                  Y                   Z
    ------   -----------------  -----------------  -----------------
       1       -0.000003418893    -0.000003991786    -0.000003683313
       2        0.000021634394     0.000027271125     0.000024283206
       3       -0.000003628720     0.000000176595    -0.000048847136
       4       -0.000022053762    -0.000037116850     0.000012932249
       5       -0.000002993307    -0.000000716917     0.000004261579
       6       -0.000022496757    -0.000053001315     0.000023491509
       7        0.000002177017     0.000004025654    -0.000005628391
       8        0.000002203910     0.000012901665    -0.000075208093
       9       -0.000000698795     0.000004687334     0.000003161005
      10       -0.000865148705     0.000851778699     0.000330502115
      11        0.000010602888     0.000019773282    -0.000007412955
      12        0.001086270704    -0.001022737753    -0.000302099249
      13        0.000687012880    -0.000639286996    -0.000535304587
      14       -0.000902110961     0.000822433228     0.000563334237
      15        0.000004235150     0.000014591682    -0.000001628589
      16        0.000008412956    -0.000000787651     0.000017846407

  **** Optimization is complete! (in 6 steps) ****
    Final optimized geometry and variables:
    Molecular point group: c1

    Geometry (in Angstrom), charge = 0, multiplicity = 1:

    H           -0.911157305694    -1.960312807530     2.550669242209
    C           -0.646831736092    -1.353807582278     1.706610091548
    C           -1.357712626197    -1.451519002320     0.518878700450
    C            0.402520012468    -0.467746967442     1.782685010909
    H           -2.179418909727    -2.138001102932     0.440830751588
    C           -1.023467284521    -0.675440249625    -0.564749398282
    H            0.966116807578    -0.380264989398     2.692294515869
    C            0.754423012328     0.322258905379     0.697250339288
    H           -1.566758165480    -0.742500082391    -1.486709305852
    C            0.037209844797     0.220185469583    -0.480494435663
    H            1.580292588363     0.997426395766     0.785664868091
    O            0.297131267886     0.930038558356    -1.592663848928
    C            1.241719947859     1.957800745637    -1.560280387343
    H            1.149088857363     2.487775942399    -2.495255774281
    H            2.249757428198     1.569747000715    -1.464740381303
    H            1.046885453350     2.650029883327    -0.749171477279

  Mulliken Charges: (a.u.)
   Center  Symbol    Alpha    Beta     Spin     Total
       1     H     0.42442  0.42442  0.00000  0.15117
       2     C     3.10085  3.10085  0.00000 -0.20171
       3     C     3.05803  3.05803  0.00000 -0.11607
       4     C     3.06167  3.06167  0.00000 -0.12333
       5     H     0.42299  0.42299  0.00000  0.15402
       6     C     3.11145  3.11145  0.00000 -0.22290
       7     H     0.42358  0.42358  0.00000  0.15283
       8     C     3.14331  3.14331  0.00000 -0.28662
       9     H     0.42090  0.42090  0.00000  0.15821
      10     C     2.85064  2.85064  0.00000  0.29872
      11     H     0.42262  0.42262  0.00000  0.15476
      12     O     4.15134  4.15134  0.00000 -0.30267
      13     C     3.04452  3.04452  0.00000 -0.08904
      14     H     0.43915  0.43915  0.00000  0.12170
      15     H     0.46115  0.46115  0.00000  0.07769
      16     H     0.46339  0.46339  0.00000  0.07323

   Total alpha = 29.00000, Total beta = 29.00000, Total charge = -0.00000
