                              Psi4 1.0.54 Driver

  ==> Input File <==

--------------------------------------------------------------------------
set {
	reference rhf
	basis cc-pvtz
}

set_num_threads( 4 )
memory 2 gb

molecule MOL {
0 1

H	 3.683483	 0.673224	 -0.886299
N	 2.905629	 0.048403	 -0.873682
C	 1.860978	 0.530248	 0.016256
H	 3.247059	 -0.840876	 -0.573753
C	 0.644130	 -0.381765	 -0.031064
H	 1.576468	 1.523643	 -0.314089
H	 2.195950	 0.628211	 1.049770
C	 -0.678115	 0.376691	 0.025731
H	 0.693998	 -0.977147	 -0.936845
H	 0.693309	 -1.082142	 0.800523
C	 -1.900706	 -0.535531	 -0.022488
H	 -0.725296	 1.079516	 -0.802982
H	 -0.715474	 0.974884	 0.933278
C	 -3.220513	 0.226854	 0.028039
H	 -1.865036	 -1.134397	 -0.928236
H	 -1.857948	 -1.236381	 0.806820
H	 -3.309098	 0.911849	 -0.808725
H	 -4.066838	 -0.449485	 -0.008086
H	 -3.301685	 0.809374	 0.939860

	symmetry c1
}
set optking {
	frozen_dihedral = ("
		6 3 5 9
	")
}

ee,wfn = optimize('scf', return_wfn=True)
oeprop( wfn, 'DIPOLE', 'QUADRUPOLE', 'MULLIKEN_CHARGES')
f=open( 'psi4out.xyz', 'w' )
f.write( "19  " )
f.write( str(ee) + "\n" )
f.write( MOL.save_string_xyz() )
f.close()
--------------------------------------------------------------------------

    Molecular point group: c1
  Charge       = 0
  Multiplicity = 1
  Basis Set: CC-PVTZ
  Basis Set:
  @DF-RHF Final Energy:  -251.44389489938590
    Total Energy =                       -251.4438948993860095
    Molecular point group: c1
  Basis Set: CC-PVTZ
  Basis Set:
  Basis Set: CC-PVTZ
  Basis Set:
  @DF-RHF Final Energy:  -251.44419607186839
    Total Energy =                       -251.4441960718681912
  Basis Set: CC-PVTZ
  Basis Set:
  Basis Set: CC-PVTZ
  Basis Set:
  @DF-RHF Final Energy:  -251.44425816325617
    Total Energy =                       -251.4442581632561087
  Basis Set: CC-PVTZ
  Basis Set:
  Basis Set: CC-PVTZ
  Basis Set:
  @DF-RHF Final Energy:  -251.44426059751109
    Total Energy =                       -251.4442605975110041
  Basis Set: CC-PVTZ
  Basis Set:
  Charge       = 0
  Multiplicity = 1
  Basis Set: CC-PVTZ
  Basis Set:

    Orbital Energies (a.u.)
    -----------------------

    Doubly Occupied:

       1A    -15.527331     2A    -11.237844     3A    -11.211433
       4A    -11.210460     5A    -11.207541     6A    -11.205090
       7A     -1.178027     8A     -1.073733     9A     -0.998420
      10A     -0.900603    11A     -0.814246    12A     -0.790260
      13A     -0.655281    14A     -0.652658    15A     -0.614558
      16A     -0.593973    17A     -0.557454    18A     -0.548773
      19A     -0.538886    20A     -0.492437    21A     -0.481932
      22A     -0.464413    23A     -0.459490    24A     -0.452679
      25A     -0.382462

  @DF-RHF Final Energy:  -251.44426085928154

   => Energetics <=

    Nuclear Repulsion Energy =            245.9795177413990928
    One-Electron Energy =                -826.3475866148409068
    Two-Electron Energy =                 328.9238080141603859
    DFT Exchange-Correlation Energy =       0.0000000000000000
    Empirical Dispersion Energy =           0.0000000000000000
    PCM Polarization Energy =               0.0000000000000000
    EFP Energy =                            0.0000000000000000
    Total Energy =                       -251.4442608592814850
    Molecular point group: c1
  Basis Set: CC-PVTZ
  Basis Set:

  -Total Gradient:
     Atom            X                  Y                   Z
    ------   -----------------  -----------------  -----------------
       1        0.000045475700     0.000011844375    -0.000012146495
       2       -0.000065507769     0.000048835914     0.000023242155
       3        0.001633207856    -0.001962628051    -0.004787046762
       4        0.000007713550    -0.000024630654     0.000018135104
       5       -0.002993265583     0.004166900805    -0.001494171968
       6       -0.000922162264     0.000979807759     0.004184797399
       7        0.000021426194    -0.000003691164     0.000024782993
       8        0.000033993159    -0.000030785392     0.000000300839
       9        0.002254091921    -0.003179019979     0.002013528752
      10        0.000000173081    -0.000006813469     0.000010946863
      11       -0.000004141999     0.000016674147     0.000029844379
      12        0.000007648678    -0.000000852872     0.000006371185
      13        0.000006157828    -0.000013581360    -0.000001322805
      14       -0.000021131646    -0.000014626955    -0.000023220951
      15       -0.000000247582     0.000004864023     0.000005661440
      16        0.000003256841     0.000002765791     0.000002914938
      17       -0.000001581115     0.000008024020    -0.000000115891
      18       -0.000010945231     0.000003741408    -0.000005600860
      19        0.000005838371    -0.000006828348     0.000003099683

  **** Optimization is complete! (in 5 steps) ****
    Final optimized geometry and variables:
    Molecular point group: c1

    Geometry (in Angstrom), charge = 0, multiplicity = 1:

    H            3.754617833614     0.620491489615    -0.719623055708
    N            2.955388690096     0.025102595769    -0.777247803065
    C            1.895419832301     0.491394211465     0.102490782890
    H            3.255291451990    -0.890973742298    -0.514297450766
    C            0.666004943886    -0.420660034630     0.040259659638
    H            1.618634990472     1.498337367050    -0.189727726657
    H            2.219298969341     0.572741843179     1.141021097349
    C           -0.657465148689     0.324884565140     0.168145805099
    H            0.701487765660    -0.985959812282    -0.885075154640
    H            0.732358120995    -1.161434720204     0.834126189884
    C           -1.873570121240    -0.596167020550     0.186381541784
    H           -0.750774111502     1.027108644968    -0.656370265254
    H           -0.648294827364     0.922618094981     1.077403469969
    C           -3.195045189043     0.157222583289     0.295541219639
    H           -1.877033482319    -1.200830216687    -0.716336222260
    H           -1.785548459744    -1.290771183143     1.017350910142
    H           -3.329078555999     0.835348695658    -0.540686255824
    H           -4.037131545325    -0.525326409907     0.305377460959
    H           -3.236020731301     0.745737322185     1.206230105951

  Mulliken Charges: (a.u.)
   Center  Symbol    Alpha    Beta     Spin     Total
       1     H     0.43087  0.43087  0.00000  0.13827
       2     N     3.68490  3.68490  0.00000 -0.36980
       3     C     3.02842  3.02842  0.00000 -0.05684
       4     H     0.43111  0.43111  0.00000  0.13778
       5     C     3.08817  3.08817  0.00000 -0.17635
       6     H     0.45943  0.45943  0.00000  0.08113
       7     H     0.46781  0.46781  0.00000  0.06438
       8     C     3.08999  3.08999  0.00000 -0.17998
       9     H     0.45051  0.45051  0.00000  0.09897
      10     H     0.45748  0.45748  0.00000  0.08505
      11     C     3.08437  3.08437  0.00000 -0.16874
      12     H     0.45265  0.45265  0.00000  0.09470
      13     H     0.45584  0.45584  0.00000  0.08833
      14     C     3.15008  3.15008  0.00000 -0.30016
      15     H     0.45379  0.45379  0.00000  0.09242
      16     H     0.45521  0.45521  0.00000  0.08958
      17     H     0.45491  0.45491  0.00000  0.09019
      18     H     0.44871  0.44871  0.00000  0.10258
      19     H     0.45575  0.45575  0.00000  0.08850

   Total alpha = 25.00000, Total beta = 25.00000, Total charge =  0.00000

*** Psi4 exiting successfully. Buy a developer a beer!
