  ==> Input File <==

--------------------------------------------------------------------------
set {
	reference rhf
	basis cc-pvtz
}

set_num_threads( 4 )
memory 2 gb

molecule MOL {
0 1

H	 -3.117913	 1.835751	 0.020990
C	 -2.471384	 2.181662	 0.824252
O	 -1.130473	 2.061050	 0.485206
H	 -2.673446	 3.226903	 1.007362
H	 -2.708860	 1.617007	 1.724060
C	 -0.718530	 0.758693	 0.228682
C	 0.718529	 0.758687	 -0.228709
H	 -0.801900	 0.152038	 1.130341
H	 -1.338562	 0.303277	 -0.540465
O	 1.401606	 -0.295166	 0.366636
H	 0.748705	 0.673477	 -1.312803
H	 1.176496	 1.708671	 0.046552
C	 2.714315	 -0.441627	 -0.061017
H	 2.765292	 -0.641548	 -1.128869
H	 3.305661	 0.447341	 0.150952
H	 3.143725	 -1.278506	 0.470147

	symmetry c1
}
set optking {
	frozen_dihedral = ("
		3 6 7 11
	")
}

ee = optimize('scf')
oeprop('DIPOLE', 'QUADRUPOLE', 'MULLIKEN_CHARGES')
f=open( 'psi4out.xyz', 'w' )
f.write( "16  " )
f.write( str(ee) + "\n" )
f.write( MOL.save_string_xyz() )
f.close()
--------------------------------------------------------------------------

    Molecular point group: c1
  Charge       = 0
  Multiplicity = 1
  Basis Set: CC-PVTZ
  Basis Set:
  @DF-RHF Final Energy:  -307.09483645444323
    Total Energy =                       -307.0948364544431683
    Molecular point group: c1
  Basis Set: CC-PVTZ
  Basis Set:
  Basis Set: CC-PVTZ
  Basis Set:
  @DF-RHF Final Energy:  -307.09540075527389
    Total Energy =                       -307.0954007552737721
  Basis Set: CC-PVTZ
  Basis Set:
  Basis Set: CC-PVTZ
  Basis Set:
  @DF-RHF Final Energy:  -307.09544736825137
    Total Energy =                       -307.0954473682514276
  Basis Set: CC-PVTZ
  Basis Set:
  Charge       = 0
  Multiplicity = 1
  Basis Set: CC-PVTZ
  Basis Set:

    Orbital Energies (a.u.)
    -----------------------

    Doubly Occupied:

       1A    -20.551750     2A    -20.551292     3A    -11.266420
       4A    -11.265734     5A    -11.263917     6A    -11.263756
       7A     -1.390965     8A     -1.379390     9A     -1.029270
      10A     -0.941009    11A     -0.884444    12A     -0.832154
      13A     -0.691472    14A     -0.677263    15A     -0.659942
      16A     -0.647704    17A     -0.625555    18A     -0.600512
      19A     -0.565801    20A     -0.524086    21A     -0.508839
      22A     -0.483731    23A     -0.467821    24A     -0.422820
      25A     -0.416979

  @DF-RHF Final Energy:  -307.09545121715740

   => Energetics <=

    Nuclear Repulsion Energy =            255.0519535097403718
    One-Electron Energy =                -924.4695674191673334
    Two-Electron Energy =                 362.3221626922691030
    DFT Exchange-Correlation Energy =       0.0000000000000000
    Empirical Dispersion Energy =           0.0000000000000000
    PCM Polarization Energy =               0.0000000000000000
    EFP Energy =                            0.0000000000000000
    Total Energy =                       -307.0954512171579154
    Molecular point group: c1
  Basis Set: CC-PVTZ
  Basis Set:

  -Total Gradient:
     Atom            X                  Y                   Z
    ------   -----------------  -----------------  -----------------
       1       -0.000017130094     0.000003693264     0.000002481853
       2        0.000000836981     0.000025760687     0.000002269423
       3        0.000793446375    -0.000262064869     0.002703155621
       4       -0.000004805955    -0.000003632510     0.000001095617
       5       -0.000007200370     0.000001709323     0.000003945848
       6       -0.001156305959    -0.000492398294    -0.003396759059
       7        0.000273500281     0.004323354666     0.000573604429
       8        0.000043676611    -0.000008959138    -0.000030956672
       9       -0.000017021977     0.000010436839    -0.000005038034
      10       -0.000050133555     0.000160931741    -0.000129923097
      11        0.000138972879    -0.003704128624     0.000269048757
      12       -0.000070973700    -0.000003642186     0.000000920651
      13        0.000070307499    -0.000052527473     0.000016226635
      14        0.000011488827    -0.000001435859    -0.000006681376
      15       -0.000008537974    -0.000007050921     0.000001138495
      16       -0.000000119872     0.000009953356    -0.000004529090

  **** Optimization is complete! (in 4 steps) ****
    Final optimized geometry and variables:
    Molecular point group: c1

    Geometry (in Angstrom), charge = 0, multiplicity = 1:

    H           -3.227852777848     0.973991674033    -0.179408645382
    C           -2.547219665281     1.346528135441     0.583054296210
    O           -1.221673158819     1.227857542668     0.185180481996
    H           -2.750576734456     2.394493904531     0.748558436792
    H           -2.735124226576     0.802802030763     1.506229513323
    C           -0.810135362445    -0.082430427790    -0.051268854461
    C            0.641112958932    -0.068383128606    -0.511214166233
    H           -0.870580931277    -0.668172315015     0.861368530807
    H           -1.451434037598    -0.553535702111    -0.792536825426
    O            1.301550292624    -1.146810698746     0.078399046465
    H            0.705678505773    -0.164049581468    -1.592818294707
    H            1.094599064429     0.872127902452    -0.215313956940
    C            2.631404863024    -1.277686944009    -0.300397316759
    H            2.727137213933    -1.440137812277    -1.371885448128
    H            3.209671783248    -0.395714179632    -0.034166876228
    H            3.040916136596    -2.132047242131     0.218615908583

  Mulliken Charges: (a.u.)
   Center  Symbol    Alpha    Beta     Spin     Total
       1     H     0.47153  0.47153  0.00000  0.05693
       2     C     3.02912  3.02912  0.00000 -0.05823
       3     O     4.17461  4.17461  0.00000 -0.34922
       4     H     0.44671  0.44671  0.00000  0.10659
       5     H     0.47102  0.47102  0.00000  0.05797
       6     C     2.96629  2.96629  0.00000  0.06742
       7     C     2.96635  2.96635  0.00000  0.06729
       8     H     0.46668  0.46668  0.00000  0.06663
       9     H     0.47395  0.47395  0.00000  0.05209
      10     O     4.17501  4.17501  0.00000 -0.35002
      11     H     0.47440  0.47440  0.00000  0.05120
      12     H     0.46561  0.46561  0.00000  0.06879
      13     C     3.02899  3.02899  0.00000 -0.05798
      14     H     0.47191  0.47191  0.00000  0.05618
      15     H     0.47106  0.47106  0.00000  0.05788
      16     H     0.44675  0.44675  0.00000  0.10649

   Total alpha = 25.00000, Total beta = 25.00000, Total charge = -0.00000
