  ==> Input File <==

--------------------------------------------------------------------------
set {
	reference rhf
	basis cc-pvtz
}

set_num_threads( 4 )
memory 2 gb

molecule MOL {
0 1

H	 -3.268214	 -0.875720	 0.463107
C	 -2.806015	 0.000007	 0.024886
N	 -1.391133	 0.000016	 0.301321
H	 -3.029448	 0.000055	 -1.045738
H	 -3.268126	 0.875758	 0.463150
C	 -0.806351	 -1.317778	 0.178747
C	 -1.082012	 0.582628	 1.589164
H	 -1.243847	 -2.016684	 0.897760
H	 -1.009473	 -1.700532	 -0.814392
C	 0.694242	 -1.261088	 0.395583
H	 -1.486368	 1.587243	 1.625688
H	 -1.538295	 0.013270	 2.404323
C	 0.418582	 0.639318	 1.806000
H	 1.098599	 -2.265703	 0.359059
H	 1.150526	 -0.691730	 -0.419576
N	 1.003364	 -0.678476	 1.683426
H	 0.621704	 1.022072	 2.799139
H	 0.856078	 1.338224	 1.086987
C	 2.418246	 -0.678467	 1.959861
H	 2.802944	 -1.689828	 1.918377
H	 2.600253	 -0.292846	 2.955216
H	 2.989091	 -0.070478	 1.252300

	symmetry c1
}
set optking {
	frozen_dihedral = ("
		6 3 2 4
	")
}

ee = optimize('scf')
oeprop('DIPOLE', 'QUADRUPOLE', 'MULLIKEN_CHARGES')
f=open( 'psi4out.xyz', 'w' )
f.write( "22  " )
f.write( str(ee) + "\n" )
f.write( MOL.save_string_xyz() )
f.close()
--------------------------------------------------------------------------

    Molecular point group: c1
  Charge       = 0
  Multiplicity = 1
  Basis Set: CC-PVTZ
  Basis Set:
  @DF-RHF Final Energy:  -344.34809742733540
    Total Energy =                       -344.3480974273350057
    Molecular point group: c1
  Basis Set: CC-PVTZ
  Basis Set:
  Basis Set: CC-PVTZ
  Basis Set:
  @DF-RHF Final Energy:  -344.34885790606870
    Total Energy =                       -344.3488579060684742
  Basis Set: CC-PVTZ
  Basis Set:
  Basis Set: CC-PVTZ
  Basis Set:
  @DF-RHF Final Energy:  -344.34893424800958
    Total Energy =                       -344.3489342480097548
  Basis Set: CC-PVTZ
  Basis Set:
  Charge       = 0
  Multiplicity = 1
  Basis Set: CC-PVTZ
  Basis Set:

    Orbital Energies (a.u.)
    -----------------------

    Doubly Occupied:

       1A    -15.537918     2A    -15.537444     3A    -11.237506
       4A    -11.237406     5A    -11.236828     6A    -11.236755
       7A    -11.234208     8A    -11.234034     9A     -1.257029
      10A     -1.205978    11A     -1.025470    12A     -0.992800
      13A     -0.912305    14A     -0.867528    15A     -0.836504
      16A     -0.756092    17A     -0.666790    18A     -0.637525
      19A     -0.631229    20A     -0.626561    21A     -0.623553
      22A     -0.582706    23A     -0.549383    24A     -0.547850
      25A     -0.541772    26A     -0.519407    27A     -0.496561
      28A     -0.489710    29A     -0.465155    30A     -0.456865
      31A     -0.353230    32A     -0.348456

  @DF-RHF Final Energy:  -344.34893590752262

   => Energetics <=

    Nuclear Repulsion Energy =            421.9117134342907889
    One-Electron Energy =               -1302.7561805423881651
    Two-Electron Energy =                 536.4955312005747601
    DFT Exchange-Correlation Energy =       0.0000000000000000
    Empirical Dispersion Energy =           0.0000000000000000
    PCM Polarization Energy =               0.0000000000000000
    EFP Energy =                            0.0000000000000000
    Total Energy =                       -344.3489359075226730
    Molecular point group: c1
  Basis Set: CC-PVTZ
  Basis Set:

  -Total Gradient:
     Atom            X                  Y                   Z
    ------   -----------------  -----------------  -----------------
       1       -0.000035311079    -0.000036693852     0.000027117827
       2       -0.000112788281    -0.005745229707     0.001177974698
       3        0.000761888883     0.001786663086    -0.004292264061
       4       -0.000037815913     0.004425160458    -0.000019338015
       5       -0.000000078376    -0.000003167751    -0.000002404254
       6       -0.000656376495    -0.000422624330     0.003156126259
       7       -0.000008357366     0.000066643806    -0.000135706786
       8       -0.000016451787     0.000009869479     0.000007923658
       9        0.000006412640    -0.000051831881    -0.000008365090
      10        0.000052793114    -0.000002291116    -0.000006083840
      11       -0.000004456063     0.000012520083     0.000039007050
      12        0.000017503403    -0.000004641313    -0.000007629440
      13        0.000025237824     0.000008666077     0.000034901495
      14        0.000011385494     0.000005920490     0.000016399553
      15        0.000004912488    -0.000003411865    -0.000008773739
      16        0.000006380035    -0.000033848992     0.000026164607
      17        0.000021935864    -0.000006998838     0.000007874918
      18       -0.000016686681    -0.000002796205     0.000003553650
      19       -0.000004930453    -0.000001463118    -0.000011387611
      20       -0.000003459666    -0.000002764410    -0.000001538597
      21       -0.000010130267     0.000001227305    -0.000002503729
      22       -0.000001607318     0.000001092596    -0.000001048555

  **** Optimization is complete! (in 4 steps) ****
    Final optimized geometry and variables:
    Molecular point group: c1

    Geometry (in Angstrom), charge = 0, multiplicity = 1:

    H           -3.132911114115    -0.515307416337    -0.512928343708
    C           -2.617031185680     0.330382330736    -0.970547933322
    N           -1.198065169743     0.346647553360    -0.693505169461
    H           -2.792292431862     0.319930641192    -2.040036698382
    H           -3.071994357418     1.237444727932    -0.592673135250
    C           -0.612809538463    -0.972896343608    -0.808901302238
    C           -0.890163288039     0.914550187777     0.603897500618
    H           -1.050457958741    -1.662772119109    -0.082050542862
    H           -0.821901050391    -1.365327054765    -1.797770048545
    C            0.888625464826    -0.919750437883    -0.598930997493
    H           -1.294041954951     1.918367315313     0.652947824978
    H           -1.342401817088     0.335373447846     1.414307825022
    C            0.610952222287     0.973957786894     0.818883975894
    H            1.290824895203    -1.925295567633    -0.638150447717
    H            1.343125744762    -0.350436442907    -1.415157102166
    N            1.201961219997    -0.340061116829     0.688864970909
    H            0.814181605071     1.352986850856     1.813599096908
    H            1.043629172379     1.678697247355     0.102489508741
    C            2.617727173479    -0.334492748571     0.959074222870
    H            3.007012002561    -1.343924480361     0.911700533559
    H            2.802382182497     0.047941070802     1.955253486982
    H            3.182850330773     0.279029628383     0.251558804263

  Mulliken Charges: (a.u.)
   Center  Symbol    Alpha    Beta     Spin     Total
       1     H     0.46748  0.46748  0.00000  0.06503
       2     C     3.09783  3.09783  0.00000 -0.19566
       3     N     3.61499  3.61499  0.00000 -0.22999
       4     H     0.44978  0.44978  0.00000  0.10045
       5     H     0.45482  0.45482  0.00000  0.09036
       6     C     3.03656  3.03656  0.00000 -0.07313
       7     C     3.03402  3.03402  0.00000 -0.06803
       8     H     0.46683  0.46683  0.00000  0.06633
       9     H     0.45374  0.45374  0.00000  0.09252
      10     C     3.03582  3.03582  0.00000 -0.07165
      11     H     0.45375  0.45375  0.00000  0.09251
      12     H     0.46890  0.46890  0.00000  0.06220
      13     C     3.03625  3.03625  0.00000 -0.07250
      14     H     0.45382  0.45382  0.00000  0.09236
      15     H     0.46798  0.46798  0.00000  0.06404
      16     N     3.61290  3.61290  0.00000 -0.22580
      17     H     0.45388  0.45388  0.00000  0.09225
      18     H     0.46819  0.46819  0.00000  0.06361
      19     C     3.09850  3.09850  0.00000 -0.19699
      20     H     0.45198  0.45198  0.00000  0.09604
      21     H     0.45198  0.45198  0.00000  0.09603
      22     H     0.46999  0.46999  0.00000  0.06002

   Total alpha = 32.00000, Total beta = 32.00000, Total charge = -0.00000
