  ==> Input File <==

--------------------------------------------------------------------------
set {
	reference rhf
	basis cc-pvtz
}

set_num_threads( 4 )
memory 2 gb

molecule MOL {
0 1

H	 -3.401682	 -1.036167	 0.000000
O	 -3.113760	 -0.140926	 0.000000
C	 -1.775087	 -0.058754	 0.000000
C	 -1.110569	 1.161431	 0.000000
C	 -1.060975	 -1.245441	 -0.000000
H	 -1.671523	 2.077814	 0.000000
C	 0.263823	 1.188625	 0.000000
H	 -1.592868	 -2.175553	 0.000000
C	 0.314904	 -1.200908	 0.000000
H	 0.788326	 2.123508	 0.000000
C	 0.993734	 0.008074	 -0.000000
H	 0.869931	 -2.120942	 0.000000
C	 2.468300	 0.030852	 -0.000000
O	 3.133231	 1.012698	 -0.000000
H	 2.941795	 -0.956875	 -0.000000

	symmetry c1
}
set optking {
	frozen_dihedral = ("
		5 3 2 1
	")
}

ee = optimize('scf')
oeprop('DIPOLE', 'QUADRUPOLE', 'MULLIKEN_CHARGES')
f=open( 'psi4out.xyz', 'w' )
f.write( "15  " )
f.write( str(ee) + "\n" )
f.write( MOL.save_string_xyz() )
f.close()
--------------------------------------------------------------------------

    Molecular point group: c1
  Charge       = 0
  Multiplicity = 1
  Basis Set: CC-PVTZ
  Basis Set:
  @DF-RHF Final Energy:  -418.44049459150466
    Total Energy =                       -418.4404945915043754
    Molecular point group: c1
  Basis Set: CC-PVTZ
  Basis Set:
  Basis Set: CC-PVTZ
  Basis Set:
  @DF-RHF Final Energy:  -418.44237283917369
    Total Energy =                       -418.4423728391737995
  Basis Set: CC-PVTZ
  Basis Set:
  Basis Set: CC-PVTZ
  Basis Set:
  @DF-RHF Final Energy:  -418.44253930066270
    Total Energy =                       -418.4425393006630429
  Basis Set: CC-PVTZ
  Basis Set:
  Basis Set: CC-PVTZ
  Basis Set:
  @DF-RHF Final Energy:  -418.44255956588671
    Total Energy =                       -418.4425595658865404
  Basis Set: CC-PVTZ
  Basis Set:
  Charge       = 0
  Multiplicity = 1
  Basis Set: CC-PVTZ
  Basis Set:

    Orbital Energies (a.u.)
    -----------------------

    Doubly Occupied:

       1A    -20.605243     2A    -20.545381     3A    -11.322926
       4A    -11.322564     5A    -11.260722     6A    -11.251990
       7A    -11.242477     8A    -11.236980     9A    -11.236353
      10A     -1.438463    11A     -1.401678    12A     -1.175283
      13A     -1.046791    14A     -1.040418    15A     -0.897531
      16A     -0.861812    17A     -0.806148    18A     -0.761773
      19A     -0.699223    20A     -0.691189    21A     -0.642644
      22A     -0.629093    23A     -0.615610    24A     -0.611833
      25A     -0.587399    26A     -0.561834    27A     -0.555353
      28A     -0.509420    29A     -0.490300    30A     -0.421359
      31A     -0.362085    32A     -0.332064

  @DF-RHF Final Energy:  -418.44256305686349

   => Energetics <=

    Nuclear Repulsion Energy =            402.2970217440913530
    One-Electron Energy =               -1367.1512917483134970
    Two-Electron Energy =                 546.4117069473587662
    DFT Exchange-Correlation Energy =       0.0000000000000000
    Empirical Dispersion Energy =           0.0000000000000000
    PCM Polarization Energy =               0.0000000000000000
    EFP Energy =                            0.0000000000000000
    Total Energy =                       -418.4425630568633778
    Molecular point group: c1
  Basis Set: CC-PVTZ
  Basis Set:

  -Total Gradient:
     Atom            X                  Y                   Z
    ------   -----------------  -----------------  -----------------
       1       -0.000019824643     0.000013063348     0.000000000000
       2       -0.000008909500    -0.000034278744    -0.000000000003
       3       -0.000011450420     0.000081620104    -0.000000000002
       4        0.000006491202     0.000024837815     0.000000000021
       5       -0.000014511205    -0.000043889774     0.000000000035
       6       -0.000044323076    -0.000031231031     0.000000000005
       7        0.000090261824    -0.000068941643    -0.000000000033
       8        0.000024696733     0.000018343106     0.000000000006
       9       -0.000033885231    -0.000035877254    -0.000000000041
      10       -0.000016145575    -0.000000887259    -0.000000000002
      11       -0.000026547079     0.000109726554    -0.000000000510
      12        0.000036808533     0.000005338766    -0.000000000015
      13        0.000001060770    -0.000038092629     0.000000001797
      14        0.000014473999    -0.000007950188    -0.000000000644
      15        0.000001803667     0.000008218828    -0.000000000615

  **** Optimization is complete! (in 5 steps) ****
    Final optimized geometry and variables:
    Molecular point group: c1

    Geometry (in Angstrom), charge = 0, multiplicity = 1:

    H           -3.462823906440    -1.028597585768    -0.000000001327
    O           -3.108304304659    -0.157430895534    -0.000000001130
    C           -1.767576319560    -0.175947877599    -0.000000000290
    C           -1.114412201147     1.053330590077     0.000000000061
    C           -1.042754571448    -1.353491325706     0.000000000197
    H           -1.700207021064     1.950771628986    -0.000000000326
    C            0.255095026004     1.091422070204     0.000000000909
    H           -1.549246588265    -2.300777894528    -0.000000000080
    C            0.337712492423    -1.297648044987     0.000000001030
    H            0.771819638781     2.030667538498     0.000000001229
    C            1.000546782969    -0.085979529039     0.000000001449
    H            0.900303913152    -2.213076746518     0.000000001412
    C            2.474877751321    -0.050980428268     0.000000002550
    O            3.132005756848     0.935707454072    -0.000000003154
    H            2.955496246451    -1.035600913468    -0.000000003252

  Mulliken Charges: (a.u.)
   Center  Symbol    Alpha    Beta     Spin     Total
       1     H     0.38568  0.38568  0.00000  0.22864
       2     O     4.16567  4.16567  0.00000 -0.33133
       3     C     2.84328  2.84328  0.00000  0.31345
       4     C     3.10722  3.10722  0.00000 -0.21443
       5     C     3.13480  3.13480  0.00000 -0.26961
       6     H     0.41546  0.41546  0.00000  0.16908
       7     C     3.05978  3.05978  0.00000 -0.11956
       8     H     0.43232  0.43232  0.00000  0.13536
       9     C     3.07388  3.07388  0.00000 -0.14776
      10     H     0.40727  0.40727  0.00000  0.18546
      11     C     3.00263  3.00263  0.00000 -0.00525
      12     H     0.42122  0.42122  0.00000  0.15756
      13     C     2.91136  2.91136  0.00000  0.17728
      14     O     4.17835  4.17835  0.00000 -0.35670
      15     H     0.46109  0.46109  0.00000  0.07782

   Total alpha = 32.00000, Total beta = 32.00000, Total charge =  0.00000
