  ==> Input File <==

--------------------------------------------------------------------------
set {
	reference rhf
	basis 6-31G*
}

set_num_threads( 1 )
memory 2 gb

molecule MOL {
0 1

H	 -3.261111	 -0.295142	 1.469456
C	 -3.306842	 -0.277400	 0.373456
C	 -2.660244	 0.921717	 -0.272021
O	 -3.838538	 -1.161155	 -0.216482
C	 -1.220012	 1.144545	 0.209990
H	 -2.705793	 0.797307	 -1.347733
H	 -3.263782	 1.790044	 -0.010477
C	 -0.252658	 0.041456	 -0.226725
H	 -0.873521	 2.100229	 -0.171974
H	 -1.211708	 1.231594	 1.295398
C	 1.180775	 0.282413	 0.250794
H	 -0.266029	 -0.034465	 -1.312038
H	 -0.597733	 -0.921000	 0.146291
C	 2.148627	 -0.814315	 -0.201312
H	 1.516199	 1.249228	 -0.115937
H	 1.192670	 0.346017	 1.338083
C	 3.580890	 -0.659131	 0.322722
H	 2.166869	 -0.852443	 -1.289387
H	 1.762857	 -1.776509	 0.128956
C	 4.043361	 0.789313	 0.489307
H	 4.254605	 -1.162319	 -0.366377
H	 3.675170	 -1.180407	 1.273145
H	 3.944816	 1.339986	 -0.442528
H	 3.470415	 1.314490	 1.246206
H	 5.086954	 0.828424	 0.786591

	symmetry c1
}
set optking {
	frozen_dihedral = ("
		6 3 5 8,
		6 3 2 4,
		3 5 8 12,
		12 8 11 14,
		8 11 14 18
	")
}

ee = energy('scf')
oeprop('DIPOLE', 'QUADRUPOLE', 'MULLIKEN_CHARGES')
f=open( 'psi4out.xyz', 'w' )
f.write( "25  " )
f.write( str(ee) + "\n" )
f.write( MOL.save_string_xyz() )
f.close()
--------------------------------------------------------------------------

    Molecular point group: c1

    Geometry (in Angstrom), charge = 0, multiplicity = 1:

       Center              X                  Y                   Z               Mass
    ------------   -----------------  -----------------  -----------------  -----------------
           H         -3.228150336706    -0.321546906877     1.387188219304     1.007825032070
           C         -3.273881336706    -0.303804906877     0.291188219304    12.000000000000
           C         -2.627283336706     0.895312093123    -0.354288780696    12.000000000000
           O         -3.805577336706    -1.187559906877    -0.298749780696    15.994914619560
           C         -1.187051336706     1.118140093123     0.127722219304    12.000000000000
           H         -2.672832336706     0.770902093123    -1.430000780696     1.007825032070
           H         -3.230821336706     1.763639093123    -0.092744780696     1.007825032070
           C         -0.219697336706     0.015051093123    -0.308992780696    12.000000000000
           H         -0.840560336706     2.073824093123    -0.254241780696     1.007825032070
           H         -1.178747336706     1.205189093123     1.213130219304     1.007825032070
           C          1.213735663294     0.256008093123     0.168526219304    12.000000000000
           H         -0.233068336706    -0.060869906877    -1.394305780696     1.007825032070
           H         -0.564772336706    -0.947404906877     0.064023219304     1.007825032070
           C          2.181587663294    -0.840719906877    -0.283579780696    12.000000000000
           H          1.549159663294     1.222823093123    -0.198204780696     1.007825032070
           H          1.225630663294     0.319612093123     1.255815219304     1.007825032070
           C          3.613850663294    -0.685535906877     0.240454219304    12.000000000000
           H          2.199829663294    -0.878847906877    -1.371654780696     1.007825032070
           H          1.795817663294    -1.802913906877     0.046688219304     1.007825032070
           C          4.076321663294     0.762908093123     0.407039219304    12.000000000000
           H          4.287565663294    -1.188723906877    -0.448644780696     1.007825032070
           H          3.708130663294    -1.206811906877     1.190877219304     1.007825032070
           H          3.977776663294     1.313581093123    -0.524795780696     1.007825032070
           H          3.503375663294     1.288085093123     1.163938219304     1.007825032070
           H          5.119914663294     0.802019093123     0.704323219304     1.007825032070

  Charge       = 0
  Multiplicity = 1
  Basis Set: 6-31G*
  Basis Set:

    Orbital Energies (a.u.)
    -----------------------

    Doubly Occupied:

       1A    -20.561906     2A    -11.326053     3A    -11.235173
       4A    -11.234503     5A    -11.223504     6A    -11.219504
       7A    -11.217407     8A    -11.216385     9A    -11.210641
      10A     -1.401886    11A     -1.104218    12A     -1.070322
      13A     -1.011858    14A     -0.941277    15A     -0.879024
      16A     -0.823116    17A     -0.787798    18A     -0.774343
      19A     -0.664788    20A     -0.663162    21A     -0.637275
      22A     -0.624665    23A     -0.601942    24A     -0.591677
      25A     -0.574953    26A     -0.551119    27A     -0.536111
      28A     -0.522176    29A     -0.513557    30A     -0.495563
      31A     -0.489427    32A     -0.481295    33A     -0.461197
      34A     -0.454639    35A     -0.442069    36A     -0.409442

  @DF-RHF Final Energy:  -387.11768790505261

   => Energetics <=

    Nuclear Repulsion Energy =            441.3060848748052081
    One-Electron Energy =               -1398.9396977726548812
    Two-Electron Energy =                 570.5159249927963856
    DFT Exchange-Correlation Energy =       0.0000000000000000
    Empirical Dispersion Energy =           0.0000000000000000
    PCM Polarization Energy =               0.0000000000000000
    EFP Energy =                            0.0000000000000000
    Total Energy =                       -387.1176879050532307

  Mulliken Charges: (a.u.)
   Center  Symbol    Alpha    Beta     Spin     Total
       1     H     0.43264  0.43264  0.00000  0.13472
       2     C     2.83080  2.83080  0.00000  0.33840
       3     C     3.20811  3.20811  0.00000 -0.41622
       4     O     4.23778  4.23778  0.00000 -0.47556
       5     C     3.16652  3.16652  0.00000 -0.33304
       6     H     0.39971  0.39971  0.00000  0.20057
       7     H     0.40674  0.40674  0.00000  0.18653
       8     C     3.15420  3.15420  0.00000 -0.30841
       9     H     0.41292  0.41292  0.00000  0.17416
      10     H     0.41975  0.41975  0.00000  0.16051
      11     C     3.15699  3.15699  0.00000 -0.31398
      12     H     0.41817  0.41817  0.00000  0.16367
      13     H     0.41863  0.41863  0.00000  0.16275
      14     C     3.15378  3.15378  0.00000 -0.30756
      15     H     0.41932  0.41932  0.00000  0.16136
      16     H     0.42352  0.42352  0.00000  0.15297
      17     C     3.15250  3.15250  0.00000 -0.30501
      18     H     0.42203  0.42203  0.00000  0.15593
      19     H     0.42003  0.42003  0.00000  0.15995
      20     C     3.24454  3.24454  0.00000 -0.48908
      21     H     0.41977  0.41977  0.00000  0.16045
      22     H     0.42179  0.42179  0.00000  0.15643
      23     H     0.42205  0.42205  0.00000  0.15589
      24     H     0.41943  0.41943  0.00000  0.16113
      25     H     0.41827  0.41827  0.00000  0.16345

   Total alpha = 36.00000, Total beta = 36.00000, Total charge =  0.00000
