  ==> Input File <==

--------------------------------------------------------------------------
set {
	reference rhf
	basis 6-31G*
}

set_num_threads( 1 )
memory 2 gb

molecule MOL {
0 1

O	 1.215555	 1.305535	 -0.055701
C	 1.122059	 0.121804	 -0.000188
C	 -0.170150	 -0.657997	 -0.000612
O	 2.171538	 -0.687168	 0.071457
C	 -1.412532	 0.227344	 -0.000452
H	 -0.153702	 -1.313099	 -0.867402
H	 -0.153924	 -1.313811	 0.865644
C	 -2.706999	 -0.587347	 -0.000541
H	 -1.388000	 0.879466	 -0.868000
H	 -1.387972	 0.879138	 0.867341
C	 -3.956778	 0.291888	 0.000910
H	 -2.726114	 -1.239230	 -0.871609
H	 -2.725217	 -1.240844	 0.869333
H	 -3.985213	 0.933254	 -0.875158
H	 -4.860123	 -0.309979	 0.000519
H	 -3.984618	 0.931166	 0.878514
C	 3.451072	 -0.080651	 0.079955
H	 3.608476	 0.487191	 -0.825731
H	 4.161150	 -0.890542	 0.141710
H	 3.555327	 0.574682	 0.932701

	symmetry c1
}
set optking {
	frozen_dihedral = ("
		9 5 8 12,
		9 5 3 6,
		1 2 4 17
	")
}

ee = energy('scf')
oeprop('DIPOLE', 'QUADRUPOLE', 'MULLIKEN_CHARGES')
f=open( 'psi4out.xyz', 'w' )
f.write( "20  " )
f.write( str(ee) + "\n" )
f.write( MOL.save_string_xyz() )
f.close()
--------------------------------------------------------------------------

    Molecular point group: c1

    Geometry (in Angstrom), charge = 0, multiplicity = 1:

       Center              X                  Y                   Z               Mass
    ------------   -----------------  -----------------  -----------------  -----------------
           O          1.215745943475     1.305225616342    -0.068197853845    15.994914619560
           C          1.122249943475     0.121494616342    -0.012684853845    12.000000000000
           C         -0.169959056525    -0.658306383658    -0.013108853845    12.000000000000
           O          2.171728943475    -0.687477383658     0.058960146155    15.994914619560
           C         -1.412341056525     0.227034616342    -0.012948853845    12.000000000000
           H         -0.153511056525    -1.313408383658    -0.879898853845     1.007825032070
           H         -0.153733056525    -1.314120383658     0.853147146155     1.007825032070
           C         -2.706808056525    -0.587656383658    -0.013037853845    12.000000000000
           H         -1.387809056525     0.879156616342    -0.880496853845     1.007825032070
           H         -1.387781056525     0.878828616342     0.854844146155     1.007825032070
           C         -3.956587056525     0.291578616342    -0.011586853845    12.000000000000
           H         -2.725923056525    -1.239539383658    -0.884105853845     1.007825032070
           H         -2.725026056525    -1.241153383658     0.856836146155     1.007825032070
           H         -3.985022056525     0.932944616342    -0.887654853845     1.007825032070
           H         -4.859932056525    -0.310288383658    -0.011977853845     1.007825032070
           H         -3.984427056525     0.930856616342     0.866017146155     1.007825032070
           C          3.451262943475    -0.080960383658     0.067458146155    12.000000000000
           H          3.608666943475     0.486881616342    -0.838227853845     1.007825032070
           H          4.161340943475    -0.890851383658     0.129213146155     1.007825032070
           H          3.555517943475     0.574372616342     0.920204146155     1.007825032070

  Charge       = 0
  Multiplicity = 1
  Basis Set: 6-31G*
  Basis Set:

    Orbital Energies (a.u.)
    -----------------------

    Doubly Occupied:

       1A    -20.603783     2A    -20.545525     3A    -11.372410
       4A    -11.280960     5A    -11.235730     6A    -11.220347
       7A    -11.219390     8A    -11.210681     9A     -1.469469
      10A     -1.362906    11A     -1.088789    12A     -1.024449
      13A     -0.969159    14A     -0.885901    15A     -0.804057
      16A     -0.767646    17A     -0.696812    18A     -0.683817
      19A     -0.672012    20A     -0.646141    21A     -0.597514
      22A     -0.592095    23A     -0.578887    24A     -0.539264
      25A     -0.537605    26A     -0.522821    27A     -0.500672
      28A     -0.478270    29A     -0.473506    30A     -0.470658
      31A     -0.455826    32A     -0.437027

  @DF-RHF Final Energy:  -383.94158135384157

   => Energetics <=

    Nuclear Repulsion Energy =            381.0726912497966623
    One-Electron Energy =               -1278.1404914825889136
    Two-Electron Energy =                 513.1262188789514767
    DFT Exchange-Correlation Energy =       0.0000000000000000
    Empirical Dispersion Energy =           0.0000000000000000
    PCM Polarization Energy =               0.0000000000000000
    EFP Energy =                            0.0000000000000000
    Total Energy =                       -383.9415813538407747

  Mulliken Charges: (a.u.)
   Center  Symbol    Alpha    Beta     Spin     Total
       1     O     4.28599  4.28599  0.00000 -0.57197
       2     C     2.60521  2.60521  0.00000  0.78958
       3     C     3.20819  3.20819  0.00000 -0.41638
       4     O     4.30721  4.30721  0.00000 -0.61443
       5     C     3.15114  3.15114  0.00000 -0.30229
       6     H     0.40047  0.40047  0.00000  0.19906
       7     H     0.40084  0.40084  0.00000  0.19833
       8     C     3.15423  3.15423  0.00000 -0.30846
       9     H     0.41128  0.41128  0.00000  0.17743
      10     H     0.41261  0.41261  0.00000  0.17477
      11     C     3.23932  3.23932  0.00000 -0.47864
      12     H     0.42292  0.42292  0.00000  0.15415
      13     H     0.42296  0.42296  0.00000  0.15407
      14     H     0.41990  0.41990  0.00000  0.16021
      15     H     0.41873  0.41873  0.00000  0.16254
      16     H     0.42002  0.42002  0.00000  0.15996
      17     C     3.09247  3.09247  0.00000 -0.18493
      18     H     0.40907  0.40907  0.00000  0.18186
      19     H     0.40840  0.40840  0.00000  0.18319
      20     H     0.40902  0.40902  0.00000  0.18196

   Total alpha = 32.00000, Total beta = 32.00000, Total charge = -0.00000
