  ==> Input File <==

--------------------------------------------------------------------------
set {
	reference rhf
	basis 6-31G*
}

set_num_threads( 4 )
memory 2 gb

molecule MOL {
0 1

H	 -2.646374	 -0.642757	 1.268656
C	 -2.083525	 -0.384536	 0.393091
O	 -0.807605	 -0.127164	 0.768327
F	 -2.118945	 -1.383102	 -0.486752
F	 -2.621877	 0.670592	 -0.209486
C	 0.084052	 0.273579	 -0.209957
C	 1.353033	 -0.546803	 -0.018071
Cl	 0.433844	 2.004619	 -0.074457
H	 -0.288836	 0.092657	 -1.202930
F	 1.149481	 -1.797812	 -0.372586
F	 1.679318	 -0.531256	 1.258931
F	 2.359446	 -0.070391	 -0.709547

	symmetry c1
}
set optking {
	frozen_dihedral = ("
		10 7 6 9
	")
}

ee = optimize('scf')
oeprop('DIPOLE', 'QUADRUPOLE', 'MULLIKEN_CHARGES')
f=open( 'psi4out.xyz', 'w' )
f.write( "12  " )
f.write( str(ee) + "\n" )
f.write( MOL.save_string_xyz() )
f.close()
--------------------------------------------------------------------------

    Molecular point group: c1
  Charge       = 0
  Multiplicity = 1
  Basis Set: 6-31G*
  Basis Set:
  @DF-RHF Final Energy: -1146.31264513113501
    Total Energy =                      -1146.3126451311352412
    Molecular point group: c1
  Basis Set: 6-31G*
  Basis Set:
  Basis Set: 6-31G*
  Basis Set:
  @DF-RHF Final Energy: -1146.31335560197522
    Total Energy =                      -1146.3133556019745356
  Basis Set: 6-31G*
  Basis Set:
  Basis Set: 6-31G*
  Basis Set:
  @DF-RHF Final Energy: -1146.31372047510104
    Total Energy =                      -1146.3137204750996716
  Basis Set: 6-31G*
  Basis Set:
  Basis Set: 6-31G*
  Basis Set:
  @DF-RHF Final Energy: -1146.31373545049905
    Total Energy =                      -1146.3137354504992800
  Basis Set: 6-31G*
  Basis Set:
  Basis Set: 6-31G*
  Basis Set:
  @DF-RHF Final Energy: -1146.31373772490952
    Total Energy =                      -1146.3137377249097426
  Basis Set: 6-31G*
  Basis Set:
  Charge       = 0
  Multiplicity = 1
  Basis Set: 6-31G*
  Basis Set:

    Orbital Energies (a.u.)
    -----------------------

    Doubly Occupied:

       1A   -104.844438     2A    -26.358599     3A    -26.358466
       4A    -26.358438     5A    -26.346151     6A    -26.345724
       7A    -20.649002     8A    -11.527486     9A    -11.489074
      10A    -11.400591    11A    -10.579159    12A     -8.048528
      13A     -8.044962    14A     -8.044895    15A     -1.760917
      16A     -1.717391    17A     -1.657692    18A     -1.655535
      19A     -1.638088    20A     -1.485055    21A     -1.180154
      22A     -1.052241    23A     -0.985861    24A     -0.919376
      25A     -0.859577    26A     -0.851574    27A     -0.845370
      28A     -0.823426    29A     -0.810478    30A     -0.789649
      31A     -0.726382    32A     -0.725350    33A     -0.705791
      34A     -0.701557    35A     -0.678089    36A     -0.674577
      37A     -0.658028    38A     -0.657219    39A     -0.645731
      40A     -0.633906    41A     -0.596932    42A     -0.580856
      43A     -0.524446    44A     -0.476789    45A     -0.469425

  @DF-RHF Final Energy: -1146.31373842478160

   => Energetics <=

    Nuclear Repulsion Energy =            737.9967863941604946
    One-Electron Energy =               -3058.8551053964947641
    Two-Electron Energy =                1174.5445805775523240
    DFT Exchange-Correlation Energy =       0.0000000000000000
    Empirical Dispersion Energy =           0.0000000000000000
    PCM Polarization Energy =               0.0000000000000000
    EFP Energy =                            0.0000000000000000
    Total Energy =                      -1146.3137384247818318
    Molecular point group: c1
  Basis Set: 6-31G*
  Basis Set:

  -Total Gradient:
     Atom            X                  Y                   Z
    ------   -----------------  -----------------  -----------------
       1       -0.000004089765     0.000002960375    -0.000000249128
       2        0.000057393898    -0.000028159508    -0.000069671003
       3        0.000002611533     0.000066089261     0.000040768342
       4       -0.000030213260    -0.000014677415     0.000002650631
       5       -0.000056354375    -0.000019726167     0.000019513972
       6        0.002724226018     0.003547111657    -0.002360784336
       7       -0.001508088315    -0.001350431061     0.004062298155
       8        0.000041738322    -0.000027989471     0.000008350740
       9       -0.002024592634    -0.002742801185     0.001301823357
      10        0.000807503313     0.000467569049    -0.002824240126
      11       -0.000054285419     0.000031441712    -0.000143505256
      12        0.000044150687     0.000068612710    -0.000036955347

  **** Optimization is complete! (in 6 steps) ****
    Final optimized geometry and variables:
    Molecular point group: c1

    Geometry (in Angstrom), charge = 0, multiplicity = 1:

    H           -2.652482612512    -0.662902498124     1.235777432179
    C           -2.083420251597    -0.392050630506     0.368086836211
    O           -0.810254007290    -0.141062269231     0.755735024157
    F           -2.113257915853    -1.378613102641    -0.525944096849
    F           -2.618312318133     0.671124938368    -0.223328574530
    C            0.090377266977     0.275961378656    -0.211466940303
    C            1.357956998668    -0.544637506548    -0.001262092735
    CL           0.416559598603     2.007481325093    -0.063527536885
    H           -0.281022496561     0.076515631848    -1.201405610823
    F            1.109727173818    -1.794444688587    -0.342897848294
    F            1.762392333213    -0.518536106891     1.244068152117
    F            2.331639049110    -0.107338288201    -0.771179494668

  Mulliken Charges: (a.u.)
   Center  Symbol    Alpha    Beta     Spin     Total
       1     H     0.40133  0.40133  0.00000  0.19735
       2     C     2.56599  2.56599  0.00000  0.86802
       3     O     4.29903  4.29903  0.00000 -0.59807
       4     F     4.68642  4.68642  0.00000 -0.37285
       5     F     4.68418  4.68418  0.00000 -0.36836
       6     C     3.04835  3.04835  0.00000 -0.09670
       7     C     2.43269  2.43269  0.00000  1.13462
       8    CL     8.49747  8.49747  0.00000  0.00505
       9     H     0.36672  0.36672  0.00000  0.26657
      10     F     4.67650  4.67650  0.00000 -0.35300
      11     F     4.66779  4.66779  0.00000 -0.33558
      12     F     4.67353  4.67353  0.00000 -0.34705

   Total alpha = 45.00000, Total beta = 45.00000, Total charge = -0.00000
