  ==> Input File <==

--------------------------------------------------------------------------
set {
	reference rhf
	basis 6-31G*
}

set_num_threads( 1 )
memory 2 gb

molecule MOL {
0 1

H	 -2.798360	 -0.862255	 -0.071053
N	 -1.863561	 -0.715187	 0.256814
C	 -1.344686	 0.554728	 -0.219830
H	 -1.300452	 -1.461917	 -0.101532
C	 0.081427	 0.741154	 0.254071
H	 -1.362155	 0.656231	 -1.305829
H	 -1.952773	 1.354456	 0.191809
O	 0.874168	 -0.245412	 -0.342030
H	 0.444037	 1.730782	 -0.023037
H	 0.121165	 0.653424	 1.337565
C	 2.081531	 -0.482762	 0.308745
H	 2.602890	 -1.256069	 -0.238867
H	 2.703083	 0.410592	 0.332714
H	 1.922633	 -0.820117	 1.330876

	symmetry c1
}
set optking {
	frozen_dihedral = ("
		8 5 3 6,
		6 3 2 4,
		5 8 11 13
	")
}

ee = energy('scf')
oeprop('DIPOLE', 'QUADRUPOLE', 'MULLIKEN_CHARGES')
f=open( 'psi4out.xyz', 'w' )
f.write( "14  " )
f.write( str(ee) + "\n" )
f.write( MOL.save_string_xyz() )
f.close()
--------------------------------------------------------------------------

    Molecular point group: c1

    Geometry (in Angstrom), charge = 0, multiplicity = 1:

       Center              X                  Y                   Z               Mass
    ------------   -----------------  -----------------  -----------------  -----------------
           H         -2.772902768012    -0.811975219912    -0.120411839604     1.007825032070
           N         -1.838103768012    -0.664907219912     0.207455160396    14.003074004780
           C         -1.319228768012     0.605007780088    -0.269188839604    12.000000000000
           H         -1.274994768012    -1.411637219912    -0.150890839604     1.007825032070
           C          0.106884231988     0.791433780088     0.204712160396    12.000000000000
           H         -1.336697768012     0.706510780088    -1.355187839604     1.007825032070
           H         -1.927315768012     1.404735780088     0.142450160396     1.007825032070
           O          0.899625231988    -0.195132219912    -0.391388839604    15.994914619560
           H          0.469494231988     1.781061780088    -0.072395839604     1.007825032070
           H          0.146622231988     0.703703780088     1.288206160396     1.007825032070
           C          2.106988231988    -0.432482219912     0.259386160396    12.000000000000
           H          2.628347231988    -1.205789219912    -0.288225839604     1.007825032070
           H          2.728540231988     0.460871780088     0.283355160396     1.007825032070
           H          1.948090231988    -0.769837219912     1.281517160396     1.007825032070

  Charge       = 0
  Multiplicity = 1
  Basis Set: 6-31G*
  Basis Set:

    Orbital Energies (a.u.)
    -----------------------

    Doubly Occupied:

       1A    -20.557161     2A    -15.528861     3A    -11.265948
       4A    -11.265494     5A    -11.240564     6A     -1.381428
       7A     -1.173822     8A     -0.999105     9A     -0.906969
      10A     -0.815392    11A     -0.684785    12A     -0.672352
      13A     -0.645762    14A     -0.612540    15A     -0.602885
      16A     -0.540568    17A     -0.529876    18A     -0.497327
      19A     -0.473269    20A     -0.417069    21A     -0.380191

  @DF-RHF Final Energy:  -248.12463344081269

   => Energetics <=

    Nuclear Repulsion Energy =            195.1138714215706784
    One-Electron Energy =                -724.0942680196782248
    Two-Electron Energy =                 280.8557631572946320
    DFT Exchange-Correlation Energy =       0.0000000000000000
    Empirical Dispersion Energy =           0.0000000000000000
    PCM Polarization Energy =               0.0000000000000000
    EFP Energy =                            0.0000000000000000
    Total Energy =                       -248.1246334408128860

  Mulliken Charges: (a.u.)
   Center  Symbol    Alpha    Beta     Spin     Total
       1     H     0.33264  0.33264  0.00000  0.33472
       2     N     3.92578  3.92578  0.00000 -0.85157
       3     C     3.06858  3.06858  0.00000 -0.13716
       4     H     0.32453  0.32453  0.00000  0.35095
       5     C     2.99079  2.99079  0.00000  0.01842
       6     H     0.42618  0.42618  0.00000  0.14763
       7     H     0.42066  0.42066  0.00000  0.15869
       8     O     4.30948  4.30948  0.00000 -0.61897
       9     H     0.42917  0.42917  0.00000  0.14166
      10     H     0.42307  0.42307  0.00000  0.15387
      11     C     3.08016  3.08016  0.00000 -0.16032
      12     H     0.41300  0.41300  0.00000  0.17400
      13     H     0.42980  0.42980  0.00000  0.14039
      14     H     0.42615  0.42615  0.00000  0.14770

   Total alpha = 21.00000, Total beta = 21.00000, Total charge =  0.00000
