  ==> Input File <==

--------------------------------------------------------------------------
set {
	reference rhf
	basis 6-31G*
}

set_num_threads( 1 )
memory 2 gb

molecule MOL {
0 1

H	 -3.337926	 1.219173	 -1.063376
O	 -3.452007	 0.283848	 -0.965577
C	 -3.181085	 -0.079926	 0.364119
C	 -1.765924	 0.277073	 0.805136
H	 -3.327791	 -1.152017	 0.410903
H	 -3.905698	 0.375695	 1.036898
C	 -0.677594	 -0.417312	 -0.014550
H	 -1.637766	 1.358238	 0.744969
H	 -1.659588	 0.017670	 1.857098
C	 0.738335	 -0.034840	 0.421385
H	 -0.814977	 -0.178223	 -1.064632
H	 -0.802730	 -1.495410	 0.071702
C	 1.822265	 -0.738362	 -0.399735
H	 0.853533	 1.043532	 0.342250
H	 0.871597	 -0.279636	 1.474438
C	 3.258060	 -0.455774	 0.057203
H	 1.718003	 -0.459167	 -1.447053
H	 1.651028	 -1.811884	 -0.354513
C	 3.709143	 0.994797	 -0.123830
H	 3.930637	 -1.101717	 -0.501982
H	 3.365259	 -0.739518	 1.102287
H	 3.601178	 1.310569	 -1.158127
H	 4.753787	 1.110486	 0.148516
H	 3.135362	 1.678896	 0.492569

	symmetry c1
}
set optking {
	frozen_dihedral = ("
		20 16 13 17,
		17 13 10 7,
		13 10 7 11,
		11 7 4 3,
		7 4 3 2
	")
}

ee = energy('scf')
oeprop('DIPOLE', 'QUADRUPOLE', 'MULLIKEN_CHARGES')
f=open( 'psi4out.xyz', 'w' )
f.write( "24  " )
f.write( str(ee) + "\n" )
f.write( MOL.save_string_xyz() )
f.close()
--------------------------------------------------------------------------

    Molecular point group: c1

    Geometry (in Angstrom), charge = 0, multiplicity = 1:

       Center              X                  Y                   Z               Mass
    ------------   -----------------  -----------------  -----------------  -----------------
           H         -3.338644509175     1.219244476596    -1.063210058714     1.007825032070
           O         -3.452725509175     0.283919476596    -0.965411058714    15.994914619560
           C         -3.181803509175    -0.079854523404     0.364284941286    12.000000000000
           C         -1.766642509175     0.277144476596     0.805301941286    12.000000000000
           H         -3.328509509175    -1.151945523404     0.411068941286     1.007825032070
           H         -3.906416509175     0.375766476596     1.037063941286     1.007825032070
           C         -0.678312509175    -0.417240523404    -0.014384058714    12.000000000000
           H         -1.638484509175     1.358309476596     0.745134941286     1.007825032070
           H         -1.660306509175     0.017741476596     1.857263941286     1.007825032070
           C          0.737616490825    -0.034768523404     0.421550941286    12.000000000000
           H         -0.815695509175    -0.178151523404    -1.064466058714     1.007825032070
           H         -0.803448509175    -1.495338523404     0.071867941286     1.007825032070
           C          1.821546490825    -0.738290523404    -0.399569058714    12.000000000000
           H          0.852814490825     1.043603476596     0.342415941286     1.007825032070
           H          0.870878490825    -0.279564523404     1.474603941286     1.007825032070
           C          3.257341490825    -0.455702523404     0.057368941286    12.000000000000
           H          1.717284490825    -0.459095523404    -1.446887058714     1.007825032070
           H          1.650309490825    -1.811812523404    -0.354347058714     1.007825032070
           C          3.708424490825     0.994868476596    -0.123664058714    12.000000000000
           H          3.929918490825    -1.101645523404    -0.501816058714     1.007825032070
           H          3.364540490825    -0.739446523404     1.102452941286     1.007825032070
           H          3.600459490825     1.310640476596    -1.157961058714     1.007825032070
           H          4.753068490825     1.110557476596     0.148681941286     1.007825032070
           H          3.134643490825     1.678967476596     0.492734941286     1.007825032070

  Charge       = 0
  Multiplicity = 1
  Basis Set: 6-31G*
  Basis Set:

    Orbital Energies (a.u.)
    -----------------------

    Doubly Occupied:

       1A    -20.553417     2A    -11.267627     3A    -11.218412
       4A    -11.214459     5A    -11.213081     6A    -11.212145
       7A    -11.211937     8A    -11.207735     9A     -1.360079
      10A     -1.089168    11A     -1.048806    12A     -0.986023
      13A     -0.915455    14A     -0.851154    15A     -0.801588
      16A     -0.776758    17A     -0.676585    18A     -0.654368
      19A     -0.626266    20A     -0.620877    21A     -0.598270
      22A     -0.585129    23A     -0.557934    24A     -0.541141
      25A     -0.514712    26A     -0.510175    27A     -0.499501
      28A     -0.473117    29A     -0.467078    30A     -0.460968
      31A     -0.455341    32A     -0.451719    33A     -0.419322

  @DF-RHF Final Energy:  -349.24758181025908

   => Energetics <=

    Nuclear Repulsion Energy =            384.5591859866884192
    One-Electron Energy =               -1235.5326819702772809
    Two-Electron Energy =                 501.7259141733299543
    DFT Exchange-Correlation Energy =       0.0000000000000000
    Empirical Dispersion Energy =           0.0000000000000000
    PCM Polarization Energy =               0.0000000000000000
    EFP Energy =                            0.0000000000000000
    Total Energy =                       -349.2475818102589642

  Mulliken Charges: (a.u.)
   Center  Symbol    Alpha    Beta     Spin     Total
       1     H     0.28355  0.28355  0.00000  0.43289
       2     O     4.36858  4.36858  0.00000 -0.73717
       3     C     2.99424  2.99424  0.00000  0.01153
       4     C     3.17141  3.17141  0.00000 -0.34282
       5     H     0.41646  0.41646  0.00000  0.16709
       6     H     0.42805  0.42805  0.00000  0.14390
       7     C     3.15147  3.15147  0.00000 -0.30294
       8     H     0.42832  0.42832  0.00000  0.14337
       9     H     0.42167  0.42167  0.00000  0.15666
      10     C     3.15360  3.15360  0.00000 -0.30721
      11     H     0.41285  0.41285  0.00000  0.17431
      12     H     0.42320  0.42320  0.00000  0.15359
      13     C     3.15226  3.15226  0.00000 -0.30452
      14     H     0.42299  0.42299  0.00000  0.15402
      15     H     0.42528  0.42528  0.00000  0.14944
      16     C     3.15233  3.15233  0.00000 -0.30467
      17     H     0.42365  0.42365  0.00000  0.15269
      18     H     0.42198  0.42198  0.00000  0.15604
      19     C     3.24107  3.24107  0.00000 -0.48213
      20     H     0.42098  0.42098  0.00000  0.15803
      21     H     0.42372  0.42372  0.00000  0.15257
      22     H     0.42229  0.42229  0.00000  0.15541
      23     H     0.41945  0.41945  0.00000  0.16110
      24     H     0.42059  0.42059  0.00000  0.15882

   Total alpha = 33.00000, Total beta = 33.00000, Total charge = -0.00000
