  ==> Input File <==

--------------------------------------------------------------------------
set {
	reference rhf
	basis 6-31G*
}

set_num_threads( 4 )
memory 2 gb

molecule MOL {
0 1

H	 -3.261111	 -0.295142	 1.469456
C	 -3.306842	 -0.277400	 0.373456
C	 -2.660244	 0.921717	 -0.272021
O	 -3.838538	 -1.161155	 -0.216482
C	 -1.220012	 1.144545	 0.209990
H	 -2.705793	 0.797307	 -1.347733
H	 -3.263782	 1.790044	 -0.010477
C	 -0.252658	 0.041456	 -0.226725
H	 -0.873521	 2.100229	 -0.171974
H	 -1.211708	 1.231594	 1.295398
C	 1.180775	 0.282413	 0.250794
H	 -0.266029	 -0.034465	 -1.312038
H	 -0.597733	 -0.921000	 0.146291
C	 2.148627	 -0.814315	 -0.201312
H	 1.516199	 1.249228	 -0.115937
H	 1.192670	 0.346017	 1.338083
C	 3.580890	 -0.659131	 0.322722
H	 2.166869	 -0.852443	 -1.289387
H	 1.762857	 -1.776509	 0.128956
C	 3.892871	 -1.482588	 1.573404
H	 3.752536	 0.390959	 0.545875
H	 4.283352	 -0.919697	 -0.466312
H	 3.195098	 -1.254450	 2.374862
H	 3.839442	 -2.549068	 1.381729
H	 4.893427	 -1.267517	 1.936208

	symmetry c1
}
set optking {
	frozen_dihedral = ("
		20 17 14 18
	")
}

ee = optimize('scf')
oeprop('DIPOLE', 'QUADRUPOLE', 'MULLIKEN_CHARGES')
f=open( 'psi4out.xyz', 'w' )
f.write( "25  " )
f.write( str(ee) + "\n" )
f.write( MOL.save_string_xyz() )
f.close()
--------------------------------------------------------------------------

    Molecular point group: c1
  Charge       = 0
  Multiplicity = 1
  Basis Set: 6-31G*
  Basis Set:
  @DF-RHF Final Energy:  -387.11914947126951
    Total Energy =                       -387.1191494712696795
    Molecular point group: c1
  Basis Set: 6-31G*
  Basis Set:
  Basis Set: 6-31G*
  Basis Set:
  @DF-RHF Final Energy:  -387.11931209378446
    Total Energy =                       -387.1193120937841741
  Basis Set: 6-31G*
  Basis Set:
  Basis Set: 6-31G*
  Basis Set:
  @DF-RHF Final Energy:  -387.11945590384755
    Total Energy =                       -387.1194559038475518
  Basis Set: 6-31G*
  Basis Set:
  Basis Set: 6-31G*
  Basis Set:
  @DF-RHF Final Energy:  -387.11955719413754
    Total Energy =                       -387.1195571941372009
  Basis Set: 6-31G*
  Basis Set:
  @DF-RHF Final Energy:  -387.11957744608128
    Total Energy =                       -387.1195774460808252
  Basis Set: 6-31G*
  Basis Set:
  @DF-RHF Final Energy:  -387.11957957686104
    Total Energy =                       -387.1195795768605876
  Basis Set: 6-31G*
  Basis Set:
  Basis Set: 6-31G*
  Basis Set:
  @DF-RHF Final Energy:  -387.11958096589586
    Total Energy =                       -387.1195809658961480
  Basis Set: 6-31G*
  Basis Set:
  Basis Set: 6-31G*
  Basis Set:
  @DF-RHF Final Energy:  -387.11958276156264
    Total Energy =                       -387.1195827615629241
  Basis Set: 6-31G*
  Basis Set:
  Charge       = 0
  Multiplicity = 1
  Basis Set: 6-31G*
  Basis Set:

    Orbital Energies (a.u.)
    -----------------------

    Doubly Occupied:

       1A    -20.562061     2A    -11.326213     3A    -11.235451
       4A    -11.234739     5A    -11.223942     6A    -11.220710
       7A    -11.217524     8A    -11.216474     9A    -11.210835
      10A     -1.402004    11A     -1.103763    12A     -1.068925
      13A     -1.014132    14A     -0.942785    15A     -0.870973
      16A     -0.817958    17A     -0.790445    18A     -0.786717
      19A     -0.664175    20A     -0.662109    21A     -0.630250
      22A     -0.624521    23A     -0.605893    24A     -0.593901
      25A     -0.567273    26A     -0.558251    27A     -0.529777
      28A     -0.520943    29A     -0.514982    30A     -0.496882
      31A     -0.485555    32A     -0.482006    33A     -0.467041
      34A     -0.457377    35A     -0.440230    36A     -0.409590

  @DF-RHF Final Energy:  -387.11958304243836

   => Energetics <=

    Nuclear Repulsion Energy =            438.0468665427886776
    One-Electron Energy =               -1392.4200861947640533
    Two-Electron Energy =                 567.2536366095375797
    DFT Exchange-Correlation Energy =       0.0000000000000000
    Empirical Dispersion Energy =           0.0000000000000000
    PCM Polarization Energy =               0.0000000000000000
    EFP Energy =                            0.0000000000000000
    Total Energy =                       -387.1195830424378528
    Molecular point group: c1
  Basis Set: 6-31G*
  Basis Set:

  -Total Gradient:
     Atom            X                  Y                   Z
    ------   -----------------  -----------------  -----------------
       1       -0.000009242418     0.000009116176     0.000000495731
       2        0.000033434175    -0.000033581816     0.000000126813
       3       -0.000012418907     0.000007729968     0.000002391081
       4       -0.000006758434     0.000015032652    -0.000001324788
       5        0.000005051100     0.000002963050     0.000002268360
       6        0.000000431788     0.000002793715    -0.000001191815
       7        0.000002163393     0.000001079654     0.000000963953
       8        0.000006460699    -0.000015346126    -0.000022909980
       9       -0.000005581294    -0.000001269236    -0.000004207884
      10        0.000001085697     0.000004338687     0.000001082730
      11        0.000040104420     0.000018563075    -0.000032885315
      12       -0.000002402457     0.000000643464    -0.000000117349
      13       -0.000002532946     0.000000280619    -0.000003204636
      14       -0.000240641300     0.003326279324    -0.000808340872
      15        0.000002677427    -0.000000793224     0.000020686991
      16       -0.000008847758    -0.000013996958     0.000005263364
      17       -0.000959771047     0.001766345253     0.001957703942
      18        0.000431230428    -0.003299346230     0.000119294154
      19        0.000040669988     0.000000425680     0.000136578272
      20        0.000730178222    -0.001868640006    -0.001400236470
      21       -0.000002512575     0.000009826985     0.000075894447
      22       -0.000052563825     0.000066855554    -0.000037440707
      23        0.000021181431     0.000038407315    -0.000008023487
      24       -0.000031172886    -0.000005435526     0.000024448514
      25        0.000019777085    -0.000032272044    -0.000027315046

  **** Optimization is complete! (in 9 steps) ****
    Final optimized geometry and variables:
    Molecular point group: c1

    Geometry (in Angstrom), charge = 0, multiplicity = 1:

    H           -3.218921731712    -0.063767362037     1.256948232884
    C           -3.259187852976    -0.038704438673     0.160786536661
    C           -2.605106908426     1.162341176128    -0.473628860690
    O           -3.796789919717    -0.913648661719    -0.436950099426
    C           -1.164318616400     1.373335959020     0.012237705671
    H           -2.649499312849     1.046850647273    -1.550435847949
    H           -3.204391336871     2.031687308487    -0.206063961120
    C           -0.201230462174     0.270593366369    -0.434927484939
    H           -0.812848740483     2.331746531668    -0.358660857965
    H           -1.156956576130     1.448301142361     1.098393930516
    C            1.233531614812     0.503249610363     0.040444303807
    H           -0.216816137153     0.203750389279    -1.520864114640
    H           -0.548305815101    -0.693984883403    -0.069061172442
    C            2.205209830910    -0.584621560712    -0.420552837967
    H            1.580522001886     1.469380824330    -0.321573815479
    H            1.247487063934     0.563114373140     1.127669424839
    C            3.639930348385    -0.401139001580     0.111153037476
    H            2.215029654250    -0.633676116484    -1.506518726795
    H            1.829614339307    -1.553627009450    -0.096399706943
    C            3.930456451836    -1.219586582503     1.370168067488
    H            3.828282691047     0.651687713148     0.307116235420
    H            4.350319913488    -0.693251785517    -0.657308531129
    H            3.247409856665    -0.966731721653     2.176782126042
    H            3.827053434223    -2.282299738086     1.172335589829
    H            4.940540015137    -1.045264268754     1.728261680131

  Mulliken Charges: (a.u.)
   Center  Symbol    Alpha    Beta     Spin     Total
       1     H     0.43260  0.43260  0.00000  0.13480
       2     C     2.83084  2.83084  0.00000  0.33832
       3     C     3.20813  3.20813  0.00000 -0.41627
       4     O     4.23774  4.23774  0.00000 -0.47549
       5     C     3.16662  3.16662  0.00000 -0.33324
       6     H     0.39970  0.39970  0.00000  0.20061
       7     H     0.40659  0.40659  0.00000  0.18681
       8     C     3.15545  3.15545  0.00000 -0.31090
       9     H     0.41277  0.41277  0.00000  0.17446
      10     H     0.41964  0.41964  0.00000  0.16071
      11     C     3.15335  3.15335  0.00000 -0.30669
      12     H     0.41798  0.41798  0.00000  0.16404
      13     H     0.41819  0.41819  0.00000  0.16362
      14     C     3.15559  3.15559  0.00000 -0.31119
      15     H     0.42237  0.42237  0.00000  0.15526
      16     H     0.42295  0.42295  0.00000  0.15410
      17     C     3.15515  3.15515  0.00000 -0.31029
      18     H     0.41979  0.41979  0.00000  0.16043
      19     H     0.42103  0.42103  0.00000  0.15794
      20     C     3.23975  3.23975  0.00000 -0.47951
      21     H     0.42149  0.42149  0.00000  0.15702
      22     H     0.41964  0.41964  0.00000  0.16072
      23     H     0.42261  0.42261  0.00000  0.15479
      24     H     0.42044  0.42044  0.00000  0.15911
      25     H     0.41958  0.41958  0.00000  0.16083

   Total alpha = 36.00000, Total beta = 36.00000, Total charge =  0.00000
