  ==> Input File <==

--------------------------------------------------------------------------
set {
	reference rhf
	basis 6-31G*
}

set_num_threads( 4 )
memory 2 gb

molecule MOL {
0 1

H	 -2.566327	 1.876806	 -1.104072
C	 -1.823583	 1.260033	 -0.636544
C	 -2.076860	 -0.007332	 -0.404944
H	 -0.882969	 1.703088	 -0.368482
O	 -1.180634	 -0.819263	 0.215062
H	 -3.009613	 -0.471835	 -0.672159
C	 0.051604	 -1.018856	 -0.387932
C	 1.043764	 0.054862	 -0.001873
H	 -0.017620	 -1.041351	 -1.469781
H	 0.437898	 -1.966374	 -0.042284
F	 2.212596	 -0.199467	 -0.571921
F	 0.652529	 1.252447	 -0.405055
F	 1.230877	 0.110694	 1.300533

	symmetry c1
}
set optking {
	frozen_dihedral = ("
		6 3 5 7
	")
}

ee = optimize('scf')
oeprop('DIPOLE', 'QUADRUPOLE', 'MULLIKEN_CHARGES')
f=open( 'psi4out.xyz', 'w' )
f.write( "13  " )
f.write( str(ee) + "\n" )
f.write( MOL.save_string_xyz() )
f.close()
--------------------------------------------------------------------------

    Molecular point group: c1
  Charge       = 0
  Multiplicity = 1
  Basis Set: 6-31G*
  Basis Set:
  @DF-RHF Final Energy:  -527.50671504840147
    Total Energy =                       -527.5067150484012473
    Molecular point group: c1
  Basis Set: 6-31G*
  Basis Set:
  Basis Set: 6-31G*
  Basis Set:
  @DF-RHF Final Energy:  -527.52239473015561
    Total Energy =                       -527.5223947301553835
  Basis Set: 6-31G*
  Basis Set:
  Basis Set: 6-31G*
  Basis Set:
  @DF-RHF Final Energy:  -527.52641559870835
    Total Energy =                       -527.5264155987083541
  Basis Set: 6-31G*
  Basis Set:
  Basis Set: 6-31G*
  Basis Set:
  @DF-RHF Final Energy:  -527.52914567524977
    Total Energy =                       -527.5291456752506747
  Basis Set: 6-31G*
  Basis Set:
  @DF-RHF Final Energy:  -527.53144830264841
    Total Energy =                       -527.5314483026488688
  @DF-RHF Final Energy:  -527.53202083691394
    Total Energy =                       -527.5320208369140573
  @DF-RHF Final Energy:  -527.53218754449824
    Total Energy =                       -527.5321875444984698
  @DF-RHF Final Energy:  -527.53225633356601
    Total Energy =                       -527.5322563335660107
  Basis Set: 6-31G*
  Basis Set:
  @DF-RHF Final Energy:  -527.53227981094028
    Total Energy =                       -527.5322798109405085
  Basis Set: 6-31G*
  Basis Set:
  Basis Set: 6-31G*
  Basis Set:
  @DF-RHF Final Energy:  -527.53228612592670
    Total Energy =                       -527.5322861259264755
  Basis Set: 6-31G*
  Basis Set:
  Basis Set: 6-31G*
  Basis Set:
  @DF-RHF Final Energy:  -527.53228734679317
    Total Energy =                       -527.5322873467935096
  Basis Set: 6-31G*
  Basis Set:
  Charge       = 0
  Multiplicity = 1
  Basis Set: 6-31G*
  Basis Set:

    Orbital Energies (a.u.)
    -----------------------

    Doubly Occupied:

       1A    -26.340936     2A    -26.340514     3A    -26.336842
       4A    -20.599368     5A    -11.499776     6A    -11.314244
       7A    -11.299431     8A    -11.226895     9A     -1.738142
      10A     -1.636144    11A     -1.634548    12A     -1.427925
      13A     -1.079317    14A     -1.021250    15A     -0.926415
      16A     -0.834081    17A     -0.828165    18A     -0.812211
      19A     -0.781519    20A     -0.724607    21A     -0.707604
      22A     -0.696314    23A     -0.671834    24A     -0.657906
      25A     -0.653324    26A     -0.639601    27A     -0.628132
      28A     -0.605586    29A     -0.556534    30A     -0.529755
      31A     -0.473705    32A     -0.371275

  @DF-RHF Final Energy:  -527.53228753967744

   => Energetics <=

    Nuclear Repulsion Energy =            415.6775126759027899
    One-Electron Energy =               -1555.2318019378108147
    Two-Electron Energy =                 612.0220017222300157
    DFT Exchange-Correlation Energy =       0.0000000000000000
    Empirical Dispersion Energy =           0.0000000000000000
    PCM Polarization Energy =               0.0000000000000000
    EFP Energy =                            0.0000000000000000
    Total Energy =                       -527.5322875396780091
    Molecular point group: c1
  Basis Set: 6-31G*
  Basis Set:

  -Total Gradient:
     Atom            X                  Y                   Z
    ------   -----------------  -----------------  -----------------
       1        0.000003999290    -0.000004577528    -0.000005765703
       2       -0.000027537487     0.000003319344    -0.000010227597
       3       -0.000988423991     0.000414060949     0.002188302616
       4        0.000007333429     0.000002716819     0.000004001772
       5        0.001120511971     0.002081328725     0.000068865013
       6        0.000533098534    -0.000923819428    -0.001827041136
       7       -0.000634317979    -0.001586851590    -0.000422794019
       8       -0.000032310541     0.000014305019    -0.000016159011
       9       -0.000008988446    -0.000000539518     0.000000661965
      10        0.000014585211    -0.000002709211    -0.000007853172
      11       -0.000039785839     0.000010037149     0.000031507569
      12        0.000028088932     0.000013867021    -0.000009360079
      13        0.000023746925    -0.000021137752     0.000005861787

  **** Optimization is complete! (in 12 steps) ****
    Final optimized geometry and variables:
    Molecular point group: c1

    Geometry (in Angstrom), charge = 0, multiplicity = 1:

    H           -3.241974211312     1.602261500150    -1.348324329929
    C           -2.357476425204     1.205609648916    -0.887410353666
    C           -2.399064588420     0.025316176946    -0.310453521057
    H           -1.466108136170     1.803369864163    -0.910570479846
    O           -1.350133088635    -0.588964268262     0.308943091413
    H           -3.293657957428    -0.569225922020    -0.274584591569
    C           -0.199988593629    -0.882545760890    -0.419051285447
    C            0.979601669095    -0.121595685021     0.137940466047
    H           -0.305502006570    -0.627115564320    -1.464445291675
    H            0.020072853426    -1.938143428177    -0.326521665190
    F            2.071550441210    -0.448566621348    -0.539219576007
    F            0.823295498426     1.187447478953     0.034936845382
    F            1.193414249639    -0.400654935659     1.407751461512

  Mulliken Charges: (a.u.)
   Center  Symbol    Alpha    Beta     Spin     Total
       1     H     0.40499  0.40499  0.00000  0.19002
       2     C     3.22672  3.22672  0.00000 -0.45344
       3     C     2.90971  2.90971  0.00000  0.18058
       4     H     0.39732  0.39732  0.00000  0.20536
       5     O     4.31162  4.31162  0.00000 -0.62324
       6     H     0.40351  0.40351  0.00000  0.19297
       7     C     3.05126  3.05126  0.00000 -0.10252
       8     C     2.45508  2.45508  0.00000  1.08984
       9     H     0.40243  0.40243  0.00000  0.19514
      10     H     0.39856  0.39856  0.00000  0.20289
      11     F     4.68392  4.68392  0.00000 -0.36784
      12     F     4.67910  4.67910  0.00000 -0.35820
      13     F     4.67578  4.67578  0.00000 -0.35156

   Total alpha = 32.00000, Total beta = 32.00000, Total charge = -0.00000
