  ==> Input File <==

--------------------------------------------------------------------------
set {
	reference rhf
	basis 6-31G*
}

set_num_threads( 4 )
memory 2 gb

molecule MOL {
0 1

H	 2.845955	 -0.323208	 0.022310
C	 1.900140	 0.071967	 -0.330070
C	 0.778463	 -0.508087	 0.517968
H	 1.782469	 -0.206877	 -1.370777
H	 1.922247	 1.149867	 -0.254252
N	 -0.540928	 0.005139	 0.058438
H	 0.716718	 -1.581298	 0.454712
H	 0.859711	 -0.198647	 1.550086
O	 -1.519591	 -0.502251	 0.510154
O	 -0.526495	 0.896461	 -0.735185

	symmetry c1
}
set optking {
	frozen_dihedral = ("
		9 6 3 2
	")
}

ee = optimize('scf')
oeprop('DIPOLE', 'QUADRUPOLE', 'MULLIKEN_CHARGES')
f=open( 'psi4out.xyz', 'w' )
f.write( "10  " )
f.write( str(ee) + "\n" )
f.write( MOL.save_string_xyz() )
f.close()
--------------------------------------------------------------------------

    Molecular point group: c1
  Charge       = 0
  Multiplicity = 1
  Basis Set: 6-31G*
  Basis Set:
  @DF-RHF Final Energy:  -282.69928010945625
    Total Energy =                       -282.6992801094561401
    Molecular point group: c1
  Basis Set: 6-31G*
  Basis Set:
  Basis Set: 6-31G*
  Basis Set:
  @DF-RHF Final Energy:  -282.69849121310961
    Total Energy =                       -282.6984912131096053
  Basis Set: 6-31G*
  Basis Set:
  Basis Set: 6-31G*
  Basis Set:
  @DF-RHF Final Energy:  -282.69704426557178
    Total Energy =                       -282.6970442655717761
  Basis Set: 6-31G*
  Basis Set:
  Basis Set: 6-31G*
  Basis Set:
  @DF-RHF Final Energy:  -282.70025483711191
    Total Energy =                       -282.7002548371117427
  Basis Set: 6-31G*
  Basis Set:
  Basis Set: 6-31G*
  Basis Set:
  @DF-RHF Final Energy:  -282.70033347618283
    Total Energy =                       -282.7003334761828910
  Basis Set: 6-31G*
  Basis Set:
  Basis Set: 6-31G*
  Basis Set:
  @DF-RHF Final Energy:  -282.70037173790178
    Total Energy =                       -282.7003717379018326
  Basis Set: 6-31G*
  Basis Set:
  Charge       = 0
  Multiplicity = 1
  Basis Set: 6-31G*
  Basis Set:

    Orbital Energies (a.u.)
    -----------------------

    Doubly Occupied:

       1A    -20.605737     2A    -20.599553     3A    -15.850191
       4A    -11.305217     5A    -11.246304     6A     -1.633364
       7A     -1.418963     8A     -1.125565     9A     -0.967359
      10A     -0.833402    11A     -0.760097    12A     -0.750042
      13A     -0.727116    14A     -0.637913    15A     -0.594780
      16A     -0.564322    17A     -0.539430    18A     -0.487332
      19A     -0.478382    20A     -0.450378

  @DF-RHF Final Energy:  -282.70037364570567

   => Energetics <=

    Nuclear Repulsion Energy =            186.0887869990202148
    One-Electron Energy =                -754.4274288735983873
    Two-Electron Energy =                 285.6382682288725618
    DFT Exchange-Correlation Energy =       0.0000000000000000
    Empirical Dispersion Energy =           0.0000000000000000
    PCM Polarization Energy =               0.0000000000000000
    EFP Energy =                            0.0000000000000000
    Total Energy =                       -282.7003736457055538
    Molecular point group: c1
  Basis Set: 6-31G*
  Basis Set:

  -Total Gradient:
     Atom            X                  Y                   Z
    ------   -----------------  -----------------  -----------------
       1       -0.000006812710    -0.000000580092     0.000000657375
       2       -0.000018799237     0.000029959205    -0.000011136492
       3       -0.000019390987    -0.000031077660    -0.000012602005
       4        0.000027554329     0.000015459831    -0.000011555897
       5       -0.000006313869    -0.000009011388    -0.000004479563
       6       -0.000179020922    -0.000006733184    -0.000068510420
       7       -0.000044606369     0.000019448270     0.000001296546
       8       -0.000016712897     0.000002973741     0.000034861152
       9        0.000090615322    -0.000115982422     0.000153927993
      10        0.000173487341     0.000095543700    -0.000082458688

  **** Optimization is complete! (in 7 steps) ****
    Final optimized geometry and variables:
    Molecular point group: c1

    Geometry (in Angstrom), charge = 0, multiplicity = 1:

    H            2.860768956373    -0.351192994271     0.042021902637
    C            1.934321569947     0.067982533437    -0.335284435551
    C            0.790875439307    -0.484017855337     0.490663790583
    H            1.834352582813    -0.203771414566    -1.377998964237
    H            1.987971308579     1.145309258742    -0.265832563714
    N           -0.547105980476     0.010365832957     0.052006095421
    H            0.713778068066    -1.559485515727     0.443834052679
    H            0.853654186666    -0.198539556950     1.531912511714
    O           -1.489576429258    -0.531434937639     0.543118603008
    O           -0.595854165239     0.908060123708    -0.728781392808

  Mulliken Charges: (a.u.)
   Center  Symbol    Alpha    Beta     Spin     Total
       1     H     0.40986  0.40986  0.00000  0.18028
       2     C     3.24986  3.24986  0.00000 -0.49973
       3     C     3.09547  3.09547  0.00000 -0.19093
       4     H     0.40156  0.40156  0.00000  0.19688
       5     H     0.39794  0.39794  0.00000  0.20411
       6     N     3.22035  3.22035  0.00000  0.55931
       7     H     0.38476  0.38476  0.00000  0.23048
       8     H     0.38415  0.38415  0.00000  0.23170
       9     O     4.22894  4.22894  0.00000 -0.45787
      10     O     4.22711  4.22711  0.00000 -0.45422

   Total alpha = 20.00000, Total beta = 20.00000, Total charge = -0.00000
