  ==> Input File <==

--------------------------------------------------------------------------
set {
	reference rhf
	basis 6-31G*
}

set_num_threads( 1 )
memory 2 gb

molecule MOL {
0 1

H	 -1.352445	 1.300131	 0.345257
C	 -0.790252	 0.431209	 0.000000
N	 0.538815	 0.649616	 0.000000
O	 -1.332048	 -0.581515	 -0.331746
C	 1.521968	 -0.411503	 0.000000
H	 0.852804	 1.592852	 0.000000
H	 2.150599	 -0.357004	 -0.881901
H	 0.999455	 -1.354525	 0.000000
H	 2.150599	 -0.357004	 0.881901

	symmetry c1
}
set optking {
	frozen_dihedral = ("
		6 3 5 7
	")
}

ee = energy('scf')
oeprop('DIPOLE', 'QUADRUPOLE', 'MULLIKEN_CHARGES')
f=open( 'psi4out.xyz', 'w' )
f.write( "9  " )
f.write( str(ee) + "\n" )
f.write( MOL.save_string_xyz() )
f.close()
--------------------------------------------------------------------------

    Molecular point group: c1

    Geometry (in Angstrom), charge = 0, multiplicity = 1:

       Center              X                  Y                   Z               Mass
    ------------   -----------------  -----------------  -----------------  -----------------
           H         -1.350043872517     1.285517963554     0.429242987465     1.007825032070
           C         -0.787850872517     0.416595963554     0.083985987465    12.000000000000
           N          0.541216127483     0.635002963554     0.083985987465    14.003074004780
           O         -1.329646872517    -0.596128036446    -0.247760012535    15.994914619560
           C          1.524369127483    -0.426116036446     0.083985987465    12.000000000000
           H          0.855205127483     1.578238963554     0.083985987465     1.007825032070
           H          2.153000127483    -0.371617036446    -0.797915012535     1.007825032070
           H          1.001856127483    -1.369138036446     0.083985987465     1.007825032070
           H          2.153000127483    -0.371617036446     0.965886987465     1.007825032070

  Charge       = 0
  Multiplicity = 1
  Basis Set: 6-31G*
  Basis Set:

    Orbital Energies (a.u.)
    -----------------------

    Doubly Occupied:

       1A    -20.528213     2A    -15.587757     3A    -11.344698
       4A    -11.260876     5A     -1.390034     6A     -1.235715
       7A     -0.968071     8A     -0.808038     9A     -0.744883
      10A     -0.641683    11A     -0.629237    12A     -0.594460
      13A     -0.555042    14A     -0.533711    15A     -0.425053
      16A     -0.388938

  @DF-RHF Final Energy:  -207.95638224271806

   => Energetics <=

    Nuclear Repulsion Energy =            122.3379073977955613
    One-Electron Energy =                -525.3157973011092281
    Two-Electron Energy =                 195.0215076605954039
    DFT Exchange-Correlation Energy =       0.0000000000000000
    Empirical Dispersion Energy =           0.0000000000000000
    PCM Polarization Energy =               0.0000000000000000
    EFP Energy =                            0.0000000000000000
    Total Energy =                       -207.9563822427182629

  Mulliken Charges: (a.u.)
   Center  Symbol    Alpha    Beta     Spin     Total
       1     H     0.42792  0.42792  0.00000  0.14416
       2     C     2.74677  2.74677  0.00000  0.50646
       3     N     3.87636  3.87636  0.00000 -0.75271
       4     O     4.27942  4.27942  0.00000 -0.55884
       5     C     3.14305  3.14305  0.00000 -0.28611
       6     H     0.30958  0.30958  0.00000  0.38083
       7     H     0.41385  0.41385  0.00000  0.17231
       8     H     0.38845  0.38845  0.00000  0.22311
       9     H     0.41461  0.41461  0.00000  0.17078

   Total alpha = 16.00000, Total beta = 16.00000, Total charge = -0.00000
