  ==> Input File <==

--------------------------------------------------------------------------
set {
	reference rhf
	basis 6-31G*
}

set_num_threads( 4 )
memory 2 gb

molecule MOL {
0 1

H	 -0.809003	 -1.263153	 -0.404455
O	 -1.422729	 -0.573567	 -0.196946
C	 -0.731407	 0.539437	 0.309156
C	 0.680193	 0.672443	 -0.251532
H	 -1.319765	 1.404033	 0.030086
H	 -0.700012	 0.506517	 1.397677
C	 1.599139	 -0.492137	 0.118598
H	 0.616402	 0.758534	 -1.332349
H	 1.107032	 1.602637	 0.117369
H	 1.239738	 -1.428634	 -0.297334
H	 2.601428	 -0.335055	 -0.265730
H	 1.674954	 -0.608418	 1.197020

	symmetry c1
}
set optking {
	frozen_dihedral = ("
		1 2 3 4
	")
}

ee = optimize('scf')
oeprop('DIPOLE', 'QUADRUPOLE', 'MULLIKEN_CHARGES')
f=open( 'psi4out.xyz', 'w' )
f.write( "12  " )
f.write( str(ee) + "\n" )
f.write( MOL.save_string_xyz() )
f.close()
--------------------------------------------------------------------------

    Molecular point group: c1
  Charge       = 0
  Multiplicity = 1
  Basis Set: 6-31G*
  Basis Set:
  @DF-RHF Final Energy:  -193.10761126032369
    Total Energy =                       -193.1076112603235799
    Molecular point group: c1
  Basis Set: 6-31G*
  Basis Set:
  Basis Set: 6-31G*
  Basis Set:
  @DF-RHF Final Energy:  -193.10769758371023
    Total Energy =                       -193.1076975837102054
  Basis Set: 6-31G*
  Basis Set:
  Basis Set: 6-31G*
  Basis Set:
  @DF-RHF Final Energy:  -193.10785429237430
    Total Energy =                       -193.1078542923742134
  Basis Set: 6-31G*
  Basis Set:
  Basis Set: 6-31G*
  Basis Set:
  @DF-RHF Final Energy:  -193.10787249381150
    Total Energy =                       -193.1078724938116125
  Basis Set: 6-31G*
  Basis Set:
  Basis Set: 6-31G*
  Basis Set:
  @DF-RHF Final Energy:  -193.10787557010195
    Total Energy =                       -193.1078755701020384
  Basis Set: 6-31G*
  Basis Set:
  Charge       = 0
  Multiplicity = 1
  Basis Set: 6-31G*
  Basis Set:

    Orbital Energies (a.u.)
    -----------------------

    Doubly Occupied:

       1A    -20.550190     2A    -11.267315     3A    -11.225919
       4A    -11.223812     5A     -1.357931     6A     -1.055505
       7A     -0.930419     8A     -0.817315     9A     -0.681185
      10A     -0.641884    11A     -0.616964    12A     -0.584210
      13A     -0.550184    14A     -0.510169    15A     -0.495706
      16A     -0.467136    17A     -0.430253

  @DF-RHF Final Energy:  -193.10787628136151

   => Energetics <=

    Nuclear Repulsion Energy =            133.0019463702082305
    One-Electron Energy =                -525.4074482780847575
    Two-Electron Energy =                 199.2976256265150710
    DFT Exchange-Correlation Energy =       0.0000000000000000
    Empirical Dispersion Energy =           0.0000000000000000
    PCM Polarization Energy =               0.0000000000000000
    EFP Energy =                            0.0000000000000000
    Total Energy =                       -193.1078762813614844
    Molecular point group: c1
  Basis Set: 6-31G*
  Basis Set:

  -Total Gradient:
     Atom            X                  Y                   Z
    ------   -----------------  -----------------  -----------------
       1        0.000219010914     0.000845905748    -0.002105398944
       2       -0.000011388334    -0.001432466793     0.003070784427
       3       -0.000682582987     0.001450595519    -0.002035873701
       4        0.000488861160    -0.000873932790     0.001067411159
       5        0.000009448891     0.000014627255     0.000002334004
       6        0.000006510828    -0.000014185614    -0.000009437293
       7       -0.000006205253     0.000000712634    -0.000011834884
       8       -0.000004483352    -0.000008636854     0.000007727721
       9       -0.000007410452     0.000006033015     0.000011163277
      10       -0.000011541903     0.000002739160    -0.000001481613
      11        0.000003388635     0.000004990337     0.000000819094
      12       -0.000003608147     0.000003618383     0.000003786753

  **** Optimization is complete! (in 6 steps) ****
    Final optimized geometry and variables:
    Molecular point group: c1

    Geometry (in Angstrom), charge = 0, multiplicity = 1:

    H           -0.867940908718    -1.264347690577    -0.424221798017
    O           -1.454214163785    -0.559105083558    -0.194703579802
    C           -0.730366924237     0.530209186689     0.318716152492
    C            0.679977812329     0.657117192602    -0.247802991850
    H           -1.303960420809     1.417296250183     0.080444933386
    H           -0.678046255324     0.457873258780     1.404155373142
    C            1.614573807526    -0.490911779425     0.141427440671
    H            0.619533881807     0.735327913917    -1.330523700560
    H            1.102031407511     1.592668114591     0.110136984179
    H            1.282895974773    -1.447768519537    -0.253712225299
    H            2.613887198803    -0.321776233076    -0.245192889279
    H            1.686553998060    -0.587959019085     1.220697264390

  Mulliken Charges: (a.u.)
   Center  Symbol    Alpha    Beta     Spin     Total
       1     H     0.27878  0.27878  0.00000  0.44245
       2     O     4.37652  4.37652  0.00000 -0.75305
       3     C     2.98105  2.98105  0.00000  0.03790
       4     C     3.17939  3.17939  0.00000 -0.35878
       5     H     0.41758  0.41758  0.00000  0.16485
       6     H     0.43118  0.43118  0.00000  0.13764
       7     C     3.24667  3.24667  0.00000 -0.49334
       8     H     0.41483  0.41483  0.00000  0.17033
       9     H     0.41765  0.41765  0.00000  0.16471
      10     H     0.42753  0.42753  0.00000  0.14495
      11     H     0.41254  0.41254  0.00000  0.17493
      12     H     0.41629  0.41629  0.00000  0.16742

   Total alpha = 17.00000, Total beta = 17.00000, Total charge =  0.00000
