  ==> Input File <==

--------------------------------------------------------------------------
set {
	reference rhf
	basis cc-pvtz
}

set_num_threads( 4 )
memory 2 gb

molecule MOL {
0 1

H	 -2.698799	 -0.000846	 0.036018
C	 -1.694291	 -0.000483	 0.434279
O	 -0.828718	 -0.000608	 -0.655022
H	 -1.576855	 0.881100	 1.056504
H	 -1.576401	 -0.881658	 1.057001
C	 0.557892	 0.000078	 -0.420099
C	 0.972079	 -1.009998	 0.644075
C	 1.369255	 -0.144714	 -1.702665
H	 0.741218	 0.990979	 -0.023709
H	 0.351727	 -0.904583	 1.525613
H	 2.003180	 -0.839301	 0.931199
H	 0.896680	 -2.031814	 0.290819
H	 1.024406	 0.560816	 -2.448554
H	 2.414828	 0.057327	 -1.500849
H	 1.304302	 -1.143525	 -2.118235

	symmetry c1
}
set optking {
	frozen_dihedral = ("
		9 6 3 2
	")
}

ee = optimize('scf')
oeprop('DIPOLE', 'QUADRUPOLE', 'MULLIKEN_CHARGES')
f=open( 'psi4out.xyz', 'w' )
f.write( "15  " )
f.write( str(ee) + "\n" )
f.write( MOL.save_string_xyz() )
f.close()
--------------------------------------------------------------------------

    Molecular point group: c1
  Charge       = 0
  Multiplicity = 1
  Basis Set: CC-PVTZ
  Basis Set:
  @DF-RHF Final Energy:  -232.22293651033465
    Total Energy =                       -232.2229365103345344
    Molecular point group: c1
  Basis Set: CC-PVTZ
  Basis Set:
  Basis Set: CC-PVTZ
  Basis Set:
  @DF-RHF Final Energy:  -232.22699667040271
    Total Energy =                       -232.2269966704025705
  Basis Set: CC-PVTZ
  Basis Set:
  Basis Set: CC-PVTZ
  Basis Set:
  @DF-RHF Final Energy:  -232.22853439465396
    Total Energy =                       -232.2285343946539342
  Basis Set: CC-PVTZ
  Basis Set:
  Basis Set: CC-PVTZ
  Basis Set:
  @DF-RHF Final Energy:  -232.22856423626874
    Total Energy =                       -232.2285642362688236
  Basis Set: CC-PVTZ
  Basis Set:
  Basis Set: CC-PVTZ
  Basis Set:
  @DF-RHF Final Energy:  -232.22860327492836
    Total Energy =                       -232.2286032749283322
  Basis Set: CC-PVTZ
  Basis Set:
  Basis Set: CC-PVTZ
  Basis Set:
  @DF-RHF Final Energy:  -232.22860531126418
    Total Energy =                       -232.2286053112641184
  Basis Set: CC-PVTZ
  Basis Set:
  Charge       = 0
  Multiplicity = 1
  Basis Set: CC-PVTZ
  Basis Set:

    Orbital Energies (a.u.)
    -----------------------

    Doubly Occupied:

       1A    -20.543799     2A    -11.273025     3A    -11.260043
       4A    -11.210240     5A    -11.203843     6A     -1.377205
       7A     -1.053927     8A     -0.947498     9A     -0.913732
      10A     -0.789770    11A     -0.677244    12A     -0.641379
      13A     -0.635270    14A     -0.593379    15A     -0.550321
      16A     -0.543449    17A     -0.526323    18A     -0.498468
      19A     -0.495849    20A     -0.452219    21A     -0.411144

  @DF-RHF Final Energy:  -232.22860558825073

   => Energetics <=

    Nuclear Repulsion Energy =            198.1316707926931713
    One-Electron Energy =                -707.5243029153605221
    Two-Electron Energy =                 277.1640265344166210
    DFT Exchange-Correlation Energy =       0.0000000000000000
    Empirical Dispersion Energy =           0.0000000000000000
    PCM Polarization Energy =               0.0000000000000000
    EFP Energy =                            0.0000000000000000
    Total Energy =                       -232.2286055882507299
    Molecular point group: c1
  Basis Set: CC-PVTZ
  Basis Set:

  -Total Gradient:
     Atom            X                  Y                   Z
    ------   -----------------  -----------------  -----------------
       1        0.000000986449    -0.000003631077    -0.000010331284
       2        0.000153723764    -0.002912349456     0.000165399268
       3       -0.000053077079     0.004510254076    -0.000996479526
       4        0.000000352217     0.000003319155     0.000005772215
       5        0.000007368621     0.000002564444    -0.000015804241
       6       -0.000811843387    -0.002655068561     0.004118893288
       7       -0.000012864964    -0.000005113761     0.000023895963
       8        0.000004990305     0.000012894111    -0.000022799558
       9        0.000713731276     0.001046452372    -0.003252127908
      10        0.000002765151    -0.000008903596     0.000009638526
      11       -0.000014152664     0.000008042089    -0.000010119233
      12        0.000002749849    -0.000004773899    -0.000001912185
      13        0.000005324221    -0.000005899121    -0.000019687450
      14       -0.000001497731     0.000003512130    -0.000002812201
      15        0.000001443971     0.000008701095     0.000008474326

  **** Optimization is complete! (in 7 steps) ****
    Final optimized geometry and variables:
    Molecular point group: c1

    Geometry (in Angstrom), charge = 0, multiplicity = 1:

    H           -2.752599145744     0.311789955170     0.249972138250
    C           -1.770038964092     0.195249218253     0.684764146365
    O           -0.855046464348     0.184064186311    -0.360840026035
    H           -1.594984910262     1.026488732023     1.365529184688
    H           -1.755578408394    -0.727077970057     1.255654778887
    C            0.507198392696     0.274539505436    -0.034900291705
    C            0.956035795593    -0.742779610326     1.006139406595
    C            1.262726107466     0.104871148022    -1.342149578818
    H            0.706200496622     1.281728011136     0.333503478800
    H            0.495013079904    -0.576524599184     1.971080843141
    H            2.028807995094    -0.674534437888     1.141451053896
    H            0.717668567969    -1.749602982613     0.680761642760
    H            0.910475829486     0.822157363137    -2.071971018023
    H            2.325558743262     0.256373633067    -1.193631004582
    H            1.107654102007    -0.890256987592    -1.742560058025

  Mulliken Charges: (a.u.)
   Center  Symbol    Alpha    Beta     Spin     Total
       1     H     0.44337  0.44337  0.00000  0.11326
       2     C     3.04051  3.04051  0.00000 -0.08102
       3     O     4.18081  4.18081  0.00000 -0.36163
       4     H     0.47140  0.47140  0.00000  0.05719
       5     H     0.46782  0.46782  0.00000  0.06436
       6     C     2.92304  2.92304  0.00000  0.15391
       7     C     3.16243  3.16243  0.00000 -0.32486
       8     C     3.14097  3.14097  0.00000 -0.28194
       9     H     0.46417  0.46417  0.00000  0.07166
      10     H     0.44861  0.44861  0.00000  0.10278
      11     H     0.44723  0.44723  0.00000  0.10554
      12     H     0.44972  0.44972  0.00000  0.10056
      13     H     0.44629  0.44629  0.00000  0.10742
      14     H     0.45923  0.45923  0.00000  0.08154
      15     H     0.45439  0.45439  0.00000  0.09122

   Total alpha = 21.00000, Total beta = 21.00000, Total charge =  0.00000
