  ==> Input File <==

--------------------------------------------------------------------------
set {
	reference rhf
	basis 6-31G*
}

set_num_threads( 1 )
memory 2 gb

molecule MOL {
0 1

O	 3.225979	 0.970355	 -0.599647
C	 2.701189	 0.057885	 -0.047330
C	 1.245376	 -0.013843	 0.345420
O	 3.347903	 -1.046386	 0.304773
C	 0.455112	 1.231400	 -0.050772
H	 0.838542	 -0.913825	 -0.103701
H	 1.208210	 -0.175333	 1.419774
C	 -0.998893	 1.219485	 0.433193
H	 0.482531	 1.345121	 -1.130325
H	 0.957290	 2.103070	 0.354729
C	 -2.048319	 1.365158	 -0.672518
H	 -1.124856	 2.035248	 1.141280
H	 -1.187600	 0.303829	 0.991739
C	 -3.475726	 1.458150	 -0.129508
H	 -1.828259	 2.255618	 -1.259436
H	 -1.988139	 0.523982	 -1.359375
C	 -4.533318	 1.598722	 -1.225806
H	 -3.547915	 2.306364	 0.549136
H	 -3.692692	 0.572974	 0.466386
C	 -5.955671	 1.694809	 -0.675005
H	 -4.317441	 2.482224	 -1.822852
H	 -4.465612	 0.749579	 -1.902675
H	 -6.682162	 1.793503	 -1.475677
H	 -6.065486	 2.555270	 -0.020985
H	 -6.214473	 0.809517	 -0.100936
C	 4.728119	 -1.109107	 -0.004993
H	 4.882018	 -1.033965	 -1.071845
H	 5.068212	 -2.067527	 0.355250
H	 5.265056	 -0.311663	 0.488280

	symmetry c1
}
set optking {
	frozen_dihedral = ("
		21 17 14 11,
		17 14 11 15,
		15 11 8 5,
		6 3 5 9,
		2 4 26 27,
		1 2 4 26,
		6 3 2 1
	")
}

ee = energy('scf')
oeprop('DIPOLE', 'QUADRUPOLE', 'MULLIKEN_CHARGES')
f=open( 'psi4out.xyz', 'w' )
f.write( "29  " )
f.write( str(ee) + "\n" )
f.write( MOL.save_string_xyz() )
f.close()
--------------------------------------------------------------------------

    Molecular point group: c1

    Geometry (in Angstrom), charge = 0, multiplicity = 1:

       Center              X                  Y                   Z               Mass
    ------------   -----------------  -----------------  -----------------  -----------------
           O          3.302023998958     0.310965097295    -0.387413603644    15.994914619560
           C          2.777233998958    -0.601504902705     0.164903396356    12.000000000000
           C          1.321420998958    -0.673232902705     0.557653396356    12.000000000000
           O          3.423947998958    -1.705775902705     0.517006396356    15.994914619560
           C          0.531156998958     0.572010097295     0.161461396356    12.000000000000
           H          0.914586998958    -1.573214902705     0.108532396356     1.007825032070
           H          1.284254998958    -0.834722902705     1.632007396356     1.007825032070
           C         -0.922848001042     0.560095097295     0.645426396356    12.000000000000
           H          0.558575998958     0.685731097295    -0.918091603644     1.007825032070
           H          1.033334998958     1.443680097295     0.566962396356     1.007825032070
           C         -1.972274001042     0.705768097295    -0.460284603644    12.000000000000
           H         -1.048811001042     1.375858097295     1.353513396356     1.007825032070
           H         -1.111555001042    -0.355560902705     1.203972396356     1.007825032070
           C         -3.399681001042     0.798760097295     0.082725396356    12.000000000000
           H         -1.752214001042     1.596228097295    -1.047202603644     1.007825032070
           H         -1.912094001042    -0.135407902705    -1.147141603644     1.007825032070
           C         -4.457273001042     0.939332097295    -1.013572603644    12.000000000000
           H         -3.471870001042     1.646974097295     0.761369396356     1.007825032070
           H         -3.616647001042    -0.086415902705     0.678619396356     1.007825032070
           C         -5.879626001042     1.035419097295    -0.462771603644    12.000000000000
           H         -4.241396001042     1.822834097295    -1.610618603644     1.007825032070
           H         -4.389567001042     0.090189097295    -1.690441603644     1.007825032070
           H         -6.606117001042     1.134113097295    -1.263443603644     1.007825032070
           H         -5.989441001042     1.895880097295     0.191248396356     1.007825032070
           H         -6.138428001042     0.150127097295     0.111297396356     1.007825032070
           C          4.804163998958    -1.768496902705     0.207240396356    12.000000000000
           H          4.958062998958    -1.693354902705    -0.859611603644     1.007825032070
           H          5.144256998958    -2.726916902705     0.567483396356     1.007825032070
           H          5.341100998958    -0.971052902705     0.700513396356     1.007825032070

  Charge       = 0
  Multiplicity = 1
  Basis Set: 6-31G*
  Basis Set:

    Orbital Energies (a.u.)
    -----------------------

    Doubly Occupied:

       1A    -20.603328     2A    -20.545258     3A    -11.371761
       4A    -11.280666     5A    -11.235781     6A    -11.217512
       7A    -11.216129     8A    -11.215199     9A    -11.214891
      10A    -11.213183    11A    -11.208332    12A     -1.469064
      13A     -1.362506    14A     -1.096394    15A     -1.066984
      16A     -1.019991    17A     -0.977372    18A     -0.927332
      19A     -0.857345    20A     -0.800206    21A     -0.790187
      22A     -0.766708    23A     -0.699289    24A     -0.682255
      25A     -0.672261    26A     -0.650532    27A     -0.628562
      28A     -0.601442    29A     -0.595837    30A     -0.582367
      31A     -0.565894    32A     -0.547963    33A     -0.531653
      34A     -0.529942    35A     -0.514889    36A     -0.507019
      37A     -0.499265    38A     -0.477008    39A     -0.467521
      40A     -0.461487    41A     -0.459413    42A     -0.455364
      43A     -0.442864    44A     -0.431980

  @DF-RHF Final Energy:  -501.03957528339674

   => Energetics <=

    Nuclear Repulsion Energy =            603.4224249925357526
    One-Electron Energy =               -1878.0022714858566815
    Two-Electron Energy =                 773.5402712099250948
    DFT Exchange-Correlation Energy =       0.0000000000000000
    Empirical Dispersion Energy =           0.0000000000000000
    PCM Polarization Energy =               0.0000000000000000
    EFP Energy =                            0.0000000000000000
    Total Energy =                       -501.0395752833958340

  Mulliken Charges: (a.u.)
   Center  Symbol    Alpha    Beta     Spin     Total
       1     O     4.28584  4.28584  0.00000 -0.57167
       2     C     2.60574  2.60574  0.00000  0.78852
       3     C     3.21005  3.21005  0.00000 -0.42009
       4     O     4.30761  4.30761  0.00000 -0.61522
       5     C     3.15557  3.15557  0.00000 -0.31114
       6     H     0.40028  0.40028  0.00000  0.19943
       7     H     0.40035  0.40035  0.00000  0.19931
       8     C     3.15769  3.15769  0.00000 -0.31539
       9     H     0.41017  0.41017  0.00000  0.17967
      10     H     0.40832  0.40832  0.00000  0.18336
      11     C     3.15380  3.15380  0.00000 -0.30761
      12     H     0.41918  0.41918  0.00000  0.16164
      13     H     0.42222  0.42222  0.00000  0.15555
      14     C     3.15163  3.15163  0.00000 -0.30327
      15     H     0.42117  0.42117  0.00000  0.15766
      16     H     0.42363  0.42363  0.00000  0.15274
      17     C     3.15146  3.15146  0.00000 -0.30291
      18     H     0.42364  0.42364  0.00000  0.15273
      19     H     0.42430  0.42430  0.00000  0.15140
      20     C     3.23924  3.23924  0.00000 -0.47848
      21     H     0.42260  0.42260  0.00000  0.15480
      22     H     0.42330  0.42330  0.00000  0.15341
      23     H     0.41928  0.41928  0.00000  0.16143
      24     H     0.42172  0.42172  0.00000  0.15655
      25     H     0.42202  0.42202  0.00000  0.15595
      26     C     3.09242  3.09242  0.00000 -0.18484
      27     H     0.40909  0.40909  0.00000  0.18181
      28     H     0.40853  0.40853  0.00000  0.18295
      29     H     0.40914  0.40914  0.00000  0.18172

   Total alpha = 44.00000, Total beta = 44.00000, Total charge =  0.00000
