  ==> Input File <==

--------------------------------------------------------------------------
set {
	reference rhf
	basis cc-pvtz
}

set_num_threads( 4 )
memory 2 gb

molecule MOL {
0 1

H	 -3.048133	 -0.479470	 0.240260
C	 -2.891545	 0.305747	 -0.495810
O	 -1.550291	 0.425559	 -0.833783
H	 -3.437581	 0.054629	 -1.393403
H	 -3.287764	 1.236908	 -0.094770
C	 -0.718530	 0.758693	 0.228682
C	 0.718529	 0.758687	 -0.228709
H	 -0.968414	 1.749796	 0.607155
H	 -0.833914	 0.049028	 1.045073
O	 1.401606	 -0.295166	 0.366636
H	 0.748705	 0.673477	 -1.312803
H	 1.176496	 1.708671	 0.046552
C	 2.714315	 -0.441627	 -0.061017
H	 2.765292	 -0.641548	 -1.128869
H	 3.305661	 0.447341	 0.150952
H	 3.143725	 -1.278506	 0.470147

	symmetry c1
}
set optking {
	frozen_dihedral = ("
		3 6 7 11
	")
}

ee = optimize('scf')
oeprop('DIPOLE', 'QUADRUPOLE', 'MULLIKEN_CHARGES')
f=open( 'psi4out.xyz', 'w' )
f.write( "16  " )
f.write( str(ee) + "\n" )
f.write( MOL.save_string_xyz() )
f.close()
--------------------------------------------------------------------------

    Molecular point group: c1
  Charge       = 0
  Multiplicity = 1
  Basis Set: CC-PVTZ
  Basis Set:
  @DF-RHF Final Energy:  -307.09403979386951
    Total Energy =                       -307.0940397938696833
    Molecular point group: c1
  Basis Set: CC-PVTZ
  Basis Set:
  Basis Set: CC-PVTZ
  Basis Set:
  @DF-RHF Final Energy:  -307.09445818268193
    Total Energy =                       -307.0944581826819899
  Basis Set: CC-PVTZ
  Basis Set:
  Basis Set: CC-PVTZ
  Basis Set:
  @DF-RHF Final Energy:  -307.09452319006124
    Total Energy =                       -307.0945231900615227
  Basis Set: CC-PVTZ
  Basis Set:
  Charge       = 0
  Multiplicity = 1
  Basis Set: CC-PVTZ
  Basis Set:

    Orbital Energies (a.u.)
    -----------------------

    Doubly Occupied:

       1A    -20.550278     2A    -20.549837     3A    -11.266801
       4A    -11.266165     5A    -11.262845     6A    -11.262644
       7A     -1.390364     8A     -1.377324     9A     -1.029010
      10A     -0.939430    11A     -0.887071    12A     -0.830592
      13A     -0.687117    14A     -0.680982    15A     -0.658810
      16A     -0.642360    17A     -0.630961    18A     -0.599916
      19A     -0.552689    20A     -0.533082    21A     -0.509028
      22A     -0.482104    23A     -0.466714    24A     -0.425054
      25A     -0.413526

  @DF-RHF Final Energy:  -307.09452642207197

   => Energetics <=

    Nuclear Repulsion Energy =            256.1576456882451680
    One-Electron Energy =                -926.7149213980053446
    Two-Electron Energy =                 363.4627492876879842
    DFT Exchange-Correlation Energy =       0.0000000000000000
    Empirical Dispersion Energy =           0.0000000000000000
    PCM Polarization Energy =               0.0000000000000000
    EFP Energy =                            0.0000000000000000
    Total Energy =                       -307.0945264220722493
    Molecular point group: c1
  Basis Set: CC-PVTZ
  Basis Set:

  -Total Gradient:
     Atom            X                  Y                   Z
    ------   -----------------  -----------------  -----------------
       1       -0.000004965551     0.000011440915     0.000000407589
       2       -0.000032709273    -0.000033608942    -0.000063026898
       3       -0.000055568206     0.001616036420    -0.000292330189
       4       -0.000037844058     0.000000047011     0.000010967500
       5        0.000003910911    -0.000000109097     0.000005927431
       6        0.000074073853    -0.002503045748     0.000476613582
       7        0.000016464946     0.002852783420    -0.000280239641
       8       -0.000017073649     0.000006953136     0.000038241403
       9        0.000013915377    -0.000008721506     0.000000907732
      10       -0.000065631921     0.000171164898    -0.000046184122
      11        0.000038429630    -0.002051070560     0.000141768631
      12       -0.000000524710    -0.000003212495    -0.000008736388
      13        0.000045494383    -0.000072906645     0.000023797285
      14        0.000004913467     0.000009418499     0.000002475423
      15       -0.000008483533    -0.000000590174    -0.000002168311
      16        0.000025598334     0.000005420867    -0.000008421027

  **** Optimization is complete! (in 4 steps) ****
    Final optimized geometry and variables:
    Molecular point group: c1

    Geometry (in Angstrom), charge = 0, multiplicity = 1:

    H           -3.020777003130    -0.681438265706     0.443535631721
    C           -2.846272842943     0.074364050637    -0.318791810623
    O           -1.500983167154     0.158564747431    -0.653347838464
    H           -3.392865332735    -0.197352304764    -1.210098292964
    H           -3.226263358316     1.025885380218     0.047977689062
    C           -0.669093253727     0.510310117272     0.408781812059
    C            0.779029912304     0.517660590086    -0.060996149639
    H           -0.953059122346     1.492874026470     0.780976837947
    H           -0.765294418201    -0.197327666892     1.226314031349
    O            1.459155342915    -0.552957494799     0.520630350900
    H            0.789944837388     0.422019075035    -1.142353052894
    H            1.267293962221     1.451680742725     0.207748764279
    C            2.781723344270    -0.674549599928     0.115044164815
    H            2.856232110827    -0.835126728280    -0.958120788515
    H            3.360560428343     0.210927594178     0.370387419609
    H            3.207648682896    -1.526407339007     0.624918611024

  Mulliken Charges: (a.u.)
   Center  Symbol    Alpha    Beta     Spin     Total
       1     H     0.47041  0.47041  0.00000  0.05917
       2     C     3.02941  3.02941  0.00000 -0.05882
       3     O     4.17319  4.17319  0.00000 -0.34637
       4     H     0.44651  0.44651  0.00000  0.10698
       5     H     0.47279  0.47279  0.00000  0.05442
       6     C     2.96574  2.96574  0.00000  0.06852
       7     C     2.96641  2.96641  0.00000  0.06718
       8     H     0.47604  0.47604  0.00000  0.04792
       9     H     0.46576  0.46576  0.00000  0.06849
      10     O     4.17360  4.17360  0.00000 -0.34719
      11     H     0.46581  0.46581  0.00000  0.06838
      12     H     0.47495  0.47495  0.00000  0.05010
      13     C     3.02926  3.02926  0.00000 -0.05853
      14     H     0.47070  0.47070  0.00000  0.05860
      15     H     0.47286  0.47286  0.00000  0.05428
      16     H     0.44656  0.44656  0.00000  0.10688

   Total alpha = 25.00000, Total beta = 25.00000, Total charge =  0.00000
