  ==> Input File <==

--------------------------------------------------------------------------
set {
	reference rhf
	basis cc-pvtz
}

set_num_threads( 4 )
memory 2 gb

molecule MOL {
0 1

H	 1.205842	 -2.312386	 0.000119
C	 0.235830	 -1.844509	 -0.000118
O	 0.462329	 -0.453336	 -0.000137
H	 -0.307105	 -2.151109	 0.885002
H	 -0.306723	 -2.151204	 -0.885449
C	 -0.590565	 0.341382	 0.000062
O	 -1.693898	 -0.053880	 0.000252
H	 -0.340426	 1.403822	 0.000200

	symmetry c1
}
set optking {
	frozen_dihedral = ("
		2 3 6 7
	")
}

ee = optimize('scf')
oeprop('DIPOLE', 'QUADRUPOLE', 'MULLIKEN_CHARGES')
f=open( 'psi4out.xyz', 'w' )
f.write( "8  " )
f.write( str(ee) + "\n" )
f.write( MOL.save_string_xyz() )
f.close()
--------------------------------------------------------------------------

    Molecular point group: c1
  Charge       = 0
  Multiplicity = 1
  Basis Set: CC-PVTZ
  Basis Set:
  @DF-RHF Final Energy:  -227.87763272244416
    Total Energy =                       -227.8776327224443321
    Molecular point group: c1
  Basis Set: CC-PVTZ
  Basis Set:
  Basis Set: CC-PVTZ
  Basis Set:
  @DF-RHF Final Energy:  -227.87856665875523
    Total Energy =                       -227.8785666587551191
  Basis Set: CC-PVTZ
  Basis Set:
  Basis Set: CC-PVTZ
  Basis Set:
  @DF-RHF Final Energy:  -227.87877416211475
    Total Energy =                       -227.8787741621148371
  Basis Set: CC-PVTZ
  Basis Set:
  Basis Set: CC-PVTZ
  Basis Set:
  @DF-RHF Final Energy:  -227.87874777899304
    Total Energy =                       -227.8787477789931302
  Basis Set: CC-PVTZ
  Basis Set:
  Basis Set: CC-PVTZ
  Basis Set:
  @DF-RHF Final Energy:  -227.87877913774776
    Total Energy =                       -227.8787791377476992
  Basis Set: CC-PVTZ
  Basis Set:
  Charge       = 0
  Multiplicity = 1
  Basis Set: CC-PVTZ
  Basis Set:

    Orbital Energies (a.u.)
    -----------------------

    Doubly Occupied:

       1A    -20.610056     2A    -20.548428     3A    -11.372408
       4A    -11.287087     5A     -1.482869     6A     -1.380003
       7A     -0.999227     8A     -0.819465     9A     -0.748471
      10A     -0.685073    11A     -0.684628    12A     -0.602034
      13A     -0.560468    14A     -0.535550    15A     -0.469684
      16A     -0.462588

  @DF-RHF Final Energy:  -227.87877957482007

   => Energetics <=

    Nuclear Repulsion Energy =            124.0489669671696049
    One-Electron Energy =                -557.3594140425179830
    Two-Electron Energy =                 205.4316675005281922
    DFT Exchange-Correlation Energy =       0.0000000000000000
    Empirical Dispersion Energy =           0.0000000000000000
    PCM Polarization Energy =               0.0000000000000000
    EFP Energy =                            0.0000000000000000
    Total Energy =                       -227.8787795748202143
    Molecular point group: c1
  Basis Set: CC-PVTZ
  Basis Set:

  -Total Gradient:
     Atom            X                  Y                   Z
    ------   -----------------  -----------------  -----------------
       1       -0.000011810118    -0.000007578032    -0.000000123436
       2        0.000055165625    -0.000012228245    -0.000001956287
       3       -0.000004257087    -0.000025306140    -0.000003988827
       4       -0.000009456678     0.000013689863     0.000002761936
       5       -0.000009216787     0.000012579038    -0.000002513336
       6       -0.000072799260    -0.000015423146     0.000021774425
       7        0.000064869569     0.000030496659    -0.000007459881
       8       -0.000012495264     0.000003770002    -0.000008494594

  **** Optimization is complete! (in 6 steps) ****
    Final optimized geometry and variables:
    Molecular point group: c1

    Geometry (in Angstrom), charge = 0, multiplicity = 1:

    H            1.624025343397    -1.776282770556    -0.000104573475
    C            0.645951033202    -1.324789882942    -0.000106953269
    O            0.862518973439     0.075473387084     0.000057601218
    H            0.095762968995    -1.622110668396     0.880049572926
    H            0.095856110332    -1.621921825670    -0.880385560165
    C           -0.199066197372     0.847232143526     0.000085849062
    O           -1.318376995808     0.479990021180    -0.000019132762
    H            0.098172018720     1.890906075405     0.000081322589

  Mulliken Charges: (a.u.)
   Center  Symbol    Alpha    Beta     Spin     Total
       1     H     0.44433  0.44433  0.00000  0.11134
       2     C     3.02783  3.02783  0.00000 -0.05566
       3     O     4.13998  4.13998  0.00000 -0.27997
       4     H     0.45334  0.45334  0.00000  0.09332
       5     H     0.45334  0.45334  0.00000  0.09332
       6     C     2.83823  2.83823  0.00000  0.32354
       7     O     4.19479  4.19479  0.00000 -0.38959
       8     H     0.44815  0.44815  0.00000  0.10371

   Total alpha = 16.00000, Total beta = 16.00000, Total charge =  0.00000
