                              Psi4 1.0.54 Driver

  ==> Input File <==

--------------------------------------------------------------------------
set {
	reference rhf
	basis cc-pvtz
}

set_num_threads( 4 )
memory 2 gb

molecule MOL {
0 1

O	 -2.081319	 -0.951530	 -0.502732
N	 -1.613558	 0.006676	 0.014756
C	 -0.329345	 -0.171618	 0.743966
O	 -2.068523	 1.100482	 -0.024385
C	 0.835904	 0.041968	 -0.213982
H	 -0.346048	 -1.174374	 1.137184
H	 -0.333613	 0.555559	 1.538590
C	 2.177039	 -0.130175	 0.494460
H	 0.754456	 -0.665923	 -1.030569
H	 0.765464	 1.037260	 -0.637266
C	 2.350280	 0.841608	 1.656400
H	 2.983168	 0.012241	 -0.219200
H	 2.264220	 -1.149259	 0.859526
H	 2.301225	 1.870022	 1.316317
H	 1.575558	 0.701366	 2.401956
H	 3.307847	 0.697886	 2.141757

	symmetry c1
}
set optking {
	frozen_dihedral = ("
		11 8 5 9
	")
}

ee,wfn = optimize('scf', return_wfn=True)
oeprop( wfn, 'DIPOLE', 'QUADRUPOLE', 'MULLIKEN_CHARGES')
f=open( 'psi4out.xyz', 'w' )
f.write( "16  " )
f.write( str(ee) + "\n" )
f.write( MOL.save_string_xyz() )
f.close()
--------------------------------------------------------------------------

    Molecular point group: c1
  Charge       = 0
  Multiplicity = 1
  Basis Set: CC-PVTZ
  Basis Set:
  @DF-RHF Final Energy:  -360.90672155564215
    Total Energy =                       -360.9067215556422070
    Molecular point group: c1
  Basis Set: CC-PVTZ
  Basis Set:
  Basis Set: CC-PVTZ
  Basis Set:
  @DF-RHF Final Energy:  -360.90714582252087
    Total Energy =                       -360.9071458225209312
  Basis Set: CC-PVTZ
  Basis Set:
  Basis Set: CC-PVTZ
  Basis Set:
  @DF-RHF Final Energy:  -360.90750116273290
    Total Energy =                       -360.9075011627326148
  Basis Set: CC-PVTZ
  Basis Set:
  Basis Set: CC-PVTZ
  Basis Set:
  @DF-RHF Final Energy:  -360.90769486083752
    Total Energy =                       -360.9076948608372959
  Basis Set: CC-PVTZ
  Basis Set:
  @DF-RHF Final Energy:  -360.90779835590666
    Total Energy =                       -360.9077983559064933
  Basis Set: CC-PVTZ
  Basis Set:
  @DF-RHF Final Energy:  -360.90779615076821
    Total Energy =                       -360.9077961507683767
  Basis Set: CC-PVTZ
  Basis Set:
  Basis Set: CC-PVTZ
  Basis Set:
  @DF-RHF Final Energy:  -360.90782119715919
    Total Energy =                       -360.9078211971595351
  Basis Set: CC-PVTZ
  Basis Set:
  Basis Set: CC-PVTZ
  Basis Set:
  @DF-RHF Final Energy:  -360.90783029047753
    Total Energy =                       -360.9078302904774773
  Basis Set: CC-PVTZ
  Basis Set:
  Charge       = 0
  Multiplicity = 1
  Basis Set: CC-PVTZ
  Basis Set:

    Orbital Energies (a.u.)
    -----------------------

    Doubly Occupied:

       1A    -20.589527     2A    -20.589407     3A    -15.836013
       4A    -11.295604     5A    -11.251039     6A    -11.242011
       7A    -11.228479     8A     -1.634997     9A     -1.419290
      10A     -1.136574    11A     -1.058184    12A     -0.951742
      13A     -0.853817    14A     -0.819089    15A     -0.761301
      16A     -0.737570    17A     -0.724816    18A     -0.668976
      19A     -0.628560    20A     -0.605133    21A     -0.573269
      22A     -0.550286    23A     -0.512819    24A     -0.499806
      25A     -0.496347    26A     -0.485499    27A     -0.471350
      28A     -0.451935

  @DF-RHF Final Energy:  -360.90783095558589

   => Energetics <=

    Nuclear Repulsion Energy =            316.5165448850240750
    One-Electron Energy =               -1118.7018744965957922
    Two-Electron Energy =                 441.2774986559857098
    DFT Exchange-Correlation Energy =       0.0000000000000000
    Empirical Dispersion Energy =           0.0000000000000000
    PCM Polarization Energy =               0.0000000000000000
    EFP Energy =                            0.0000000000000000
    Total Energy =                       -360.9078309555859505
    Molecular point group: c1
  Basis Set: CC-PVTZ
  Basis Set:

  -Total Gradient:
     Atom            X                  Y                   Z
    ------   -----------------  -----------------  -----------------
       1        0.000007152162    -0.000055614851    -0.000022068251
       2       -0.000019333508     0.000112140684    -0.000015103773
       3        0.000000625778     0.000015657795    -0.000010145585
       4        0.000000057248    -0.000037662538     0.000014665376
       5        0.000451803240     0.000650187684    -0.000670435466
       6        0.000015158869    -0.000015719654     0.000014726363
       7        0.000023821233     0.000007265487     0.000004736378
       8        0.000412578200     0.000645540855    -0.000597161602
       9       -0.000511660995    -0.000755904608     0.000742361223
      10       -0.000004020724     0.000025020484     0.000002182062
      11       -0.000390981589    -0.000578585709     0.000518013053
      12        0.000016440979     0.000000262121    -0.000007415185
      13       -0.000000982454    -0.000001588507     0.000015942081
      14       -0.000008689524    -0.000004739112    -0.000004455183
      15       -0.000024951942    -0.000001314336     0.000014816930
      16        0.000032983017    -0.000004945800    -0.000000658418

  **** Optimization is complete! (in 9 steps) ****
    Final optimized geometry and variables:
    Molecular point group: c1

    Geometry (in Angstrom), charge = 0, multiplicity = 1:

    O           -1.908670097243    -1.122716131096    -0.798480867028
    N           -1.476541278943    -0.119726860167    -0.337692681870
    C           -0.223925872792    -0.218153398272     0.458801680651
    O           -1.943898540383     0.960092757387    -0.481406099996
    C            0.974087530527    -0.021695390866    -0.465364714260
    H           -0.228817575681    -1.199900279036     0.902899745965
    H           -0.294177664569     0.547790142360     1.210995732564
    C            2.311366776282    -0.223053753896     0.249189767597
    H            0.892774825601    -0.737594791900    -1.274294476875
    H            0.925317631981     0.971330800658    -0.896441203721
    C            2.563661984293     0.724074245640     1.419608506789
    H            3.098002046150    -0.097463040679    -0.486087457741
    H            2.380768069028    -1.250434332586     0.594513133563
    H            2.467796932199     1.760495021910     1.113716918667
    H            1.874019480854     0.554440212681     2.238308438588
    H            3.564779365029     0.586087431957     1.809194287767

  Mulliken Charges: (a.u.)
   Center  Symbol    Alpha    Beta     Spin     Total
       1     O     4.17366  4.17366  0.00000 -0.34731
       2     N     3.27510  3.27510  0.00000  0.44981
       3     C     3.04278  3.04278  0.00000 -0.08555
       4     O     4.17428  4.17428  0.00000 -0.34857
       5     C     3.10918  3.10918  0.00000 -0.21835
       6     H     0.43397  0.43397  0.00000  0.13205
       7     H     0.43315  0.43315  0.00000  0.13369
       8     C     3.09767  3.09767  0.00000 -0.19535
       9     H     0.43223  0.43223  0.00000  0.13554
      10     H     0.43644  0.43644  0.00000  0.12711
      11     C     3.15467  3.15467  0.00000 -0.30934
      12     H     0.44231  0.44231  0.00000  0.11537
      13     H     0.44859  0.44859  0.00000  0.10281
      14     H     0.44944  0.44944  0.00000  0.10113
      15     H     0.45476  0.45476  0.00000  0.09047
      16     H     0.44176  0.44176  0.00000  0.11647

   Total alpha = 28.00000, Total beta = 28.00000, Total charge =  0.00000

*** Psi4 exiting successfully. Buy a developer a beer!
