                              Psi4 1.0.54 Driver

  ==> Input File <==

--------------------------------------------------------------------------
set {
	reference rhf
	basis cc-pvtz
}

set_num_threads( 4 )
memory 2 gb

molecule MOL {
0 1

O	 1.188707	 1.348381	 -0.217203
C	 1.043085	 0.250098	 -0.633892
C	 -0.247499	 -0.528112	 -0.618277
O	 2.021426	 -0.452575	 -1.181137
C	 -1.413045	 0.229353	 0.001137
H	 -0.463341	 -0.811798	 -1.643175
H	 -0.056162	 -1.455989	 -0.089225
C	 -2.702562	 -0.586401	 0.000228
H	 -1.564936	 1.156995	 -0.539186
H	 -1.157733	 0.511644	 1.016357
C	 -3.953810	 0.284959	 -0.000782
H	 -2.717793	 -1.238567	 -0.869075
H	 -2.719108	 -1.238472	 0.869576
H	 -3.983727	 0.924403	 -0.876454
H	 -4.852989	 -0.320147	 -0.001515
H	 -3.985140	 0.924399	 0.874841
C	 3.293201	 0.158589	 -1.261048
H	 3.246834	 1.059218	 -1.855140
H	 3.941517	 -0.563609	 -1.730072
H	 3.660504	 0.404906	 -0.275838

	symmetry c1
}
set optking {
	frozen_dihedral = ("
		9 5 8 12
	")
}

ee,wfn = optimize('scf', return_wfn=True)
oeprop( wfn, 'DIPOLE', 'QUADRUPOLE', 'MULLIKEN_CHARGES')
f=open( 'psi4out.xyz', 'w' )
f.write( "20  " )
f.write( str(ee) + "\n" )
f.write( MOL.save_string_xyz() )
f.close()
--------------------------------------------------------------------------

    Molecular point group: c1
  Charge       = 0
  Multiplicity = 1
  Basis Set: CC-PVTZ
  Basis Set:
  @DF-RHF Final Energy:  -384.08087389749937
    Total Energy =                       -384.0808738974992593
    Molecular point group: c1
  Basis Set: CC-PVTZ
  Basis Set:
  Basis Set: CC-PVTZ
  Basis Set:
  @DF-RHF Final Energy:  -384.08110303887901
    Total Energy =                       -384.0811030388790641
  Basis Set: CC-PVTZ
  Basis Set:
  Basis Set: CC-PVTZ
  Basis Set:
  @DF-RHF Final Energy:  -384.08090593749665
    Total Energy =                       -384.0809059374967092
  Basis Set: CC-PVTZ
  Basis Set:
  Basis Set: CC-PVTZ
  Basis Set:
  @DF-RHF Final Energy:  -384.08119236812598
    Total Energy =                       -384.0811923681255848
  Basis Set: CC-PVTZ
  Basis Set:
  Basis Set: CC-PVTZ
  Basis Set:
  @DF-RHF Final Energy:  -384.08119365363251
    Total Energy =                       -384.0811936536324538
  Basis Set: CC-PVTZ
  Basis Set:
  Charge       = 0
  Multiplicity = 1
  Basis Set: CC-PVTZ
  Basis Set:

    Orbital Energies (a.u.)
    -----------------------

    Doubly Occupied:

       1A    -20.596507     2A    -20.534357     3A    -11.364798
       4A    -11.278625     5A    -11.234471     6A    -11.218217
       7A    -11.217016     8A    -11.209312     9A     -1.472426
      10A     -1.366019    11A     -1.089183    12A     -1.025515
      13A     -0.970164    14A     -0.886759    15A     -0.805261
      16A     -0.769841    17A     -0.700124    18A     -0.686446
      19A     -0.676246    20A     -0.642838    21A     -0.598958
      22A     -0.595067    23A     -0.579852    24A     -0.543063
      25A     -0.535633    26A     -0.524343    27A     -0.503824
      28A     -0.480345    29A     -0.474884    30A     -0.467598
      31A     -0.458427    32A     -0.440104

  @DF-RHF Final Energy:  -384.08119381129353

   => Energetics <=

    Nuclear Repulsion Energy =            381.6371431883902119
    One-Electron Energy =               -1279.5442295861885214
    Two-Electron Energy =                 513.8258925865043238
    DFT Exchange-Correlation Energy =       0.0000000000000000
    Empirical Dispersion Energy =           0.0000000000000000
    PCM Polarization Energy =               0.0000000000000000
    EFP Energy =                            0.0000000000000000
    Total Energy =                       -384.0811938112940425
    Molecular point group: c1
  Basis Set: CC-PVTZ
  Basis Set:

  -Total Gradient:
     Atom            X                  Y                   Z
    ------   -----------------  -----------------  -----------------
       1       -0.000003730824     0.000000184112    -0.000003793162
       2        0.000004522461     0.000006960340    -0.000001001145
       3        0.000010813546    -0.000010542398     0.000011315551
       4        0.000000761475    -0.000007627859     0.000000079646
       5        0.001881577261    -0.003114444039    -0.003952516678
       6       -0.000003280633     0.000007347694    -0.000001955481
       7       -0.000003627198     0.000002756796    -0.000004091024
       8       -0.002742410433     0.004185959884    -0.001872824738
       9       -0.001123518682     0.001919897712     0.003597814873
      10        0.000002694215    -0.000003606562     0.000005004956
      11       -0.000010363797     0.000005516940     0.000003444347
      12        0.001993635256    -0.002984797082     0.002210833811
      13       -0.000004052279    -0.000002897051     0.000005799435
      14        0.000004077295    -0.000002592390    -0.000002524390
      15       -0.000004900804    -0.000004840069     0.000000961039
      16        0.000003642595     0.000001148285     0.000001202436
      17       -0.000002113885     0.000003056280     0.000003225465
      18       -0.000002171770     0.000000063337    -0.000000164303
      19       -0.000000779019    -0.000001757401    -0.000000954982
      20       -0.000000774778     0.000000213473     0.000000144346

  **** Optimization is complete! (in 6 steps) ****
    Final optimized geometry and variables:
    Molecular point group: c1

    Geometry (in Angstrom), charge = 0, multiplicity = 1:

    O            1.251401874452     1.252230400826     0.279875379169
    C            1.108842059536     0.155727257370    -0.142382539243
    C           -0.185633849739    -0.616176682893    -0.155463137990
    O            2.094303401545    -0.550518152455    -0.671969853237
    C           -1.360657328214     0.145178098300     0.436969712060
    H           -0.379972123703    -0.900060572050    -1.184357146212
    H           -0.011499690731    -1.544646740798     0.379047355432
    C           -2.647838024853    -0.683768603525     0.476269064836
    H           -1.525008571922     1.068606821740    -0.106840629102
    H           -1.107104941825     0.459930478499     1.443112180025
    C           -3.909874813815     0.165989087629     0.551534200184
    H           -2.689531278017    -1.348515050790    -0.382399443734
    H           -2.611488590636    -1.344673736003     1.338464566378
    H           -4.014547317300     0.788576861085    -0.330379824099
    H           -4.796336371031    -0.452694867657     0.629508798460
    H           -3.886135015092     0.821376176903     1.415814041385
    C            3.370295882121     0.054617677784    -0.725548081530
    H            3.339881038930     0.956795755784    -1.318320506376
    H            4.024203782492    -0.669652808250    -1.183487316203
    H            3.719427786208     0.296945421200     0.267235026412

  Mulliken Charges: (a.u.)
   Center  Symbol    Alpha    Beta     Spin     Total
       1     O     4.19662  4.19662  0.00000 -0.39324
       2     C     2.80675  2.80675  0.00000  0.38649
       3     C     3.09998  3.09998  0.00000 -0.19995
       4     O     4.14668  4.14668  0.00000 -0.29336
       5     C     3.08346  3.08346  0.00000 -0.16693
       6     H     0.43996  0.43996  0.00000  0.12008
       7     H     0.43955  0.43955  0.00000  0.12090
       8     C     3.08713  3.08713  0.00000 -0.17426
       9     H     0.44774  0.44774  0.00000  0.10452
      10     H     0.44592  0.44592  0.00000  0.10816
      11     C     3.14804  3.14804  0.00000 -0.29607
      12     H     0.45684  0.45684  0.00000  0.08632
      13     H     0.45353  0.45353  0.00000  0.09294
      14     H     0.45453  0.45453  0.00000  0.09095
      15     H     0.44880  0.44880  0.00000  0.10239
      16     H     0.45284  0.45284  0.00000  0.09433
      17     C     3.03765  3.03765  0.00000 -0.07530
      18     H     0.45434  0.45434  0.00000  0.09132
      19     H     0.44532  0.44532  0.00000  0.10935
      20     H     0.45432  0.45432  0.00000  0.09135

   Total alpha = 32.00000, Total beta = 32.00000, Total charge = -0.00000

*** Psi4 exiting successfully. Buy a developer a beer!
