  ==> Input File <==

--------------------------------------------------------------------------
set {
	reference rhf
	basis 6-31G*
}

set_num_threads( 4 )
memory 2 gb

molecule MOL {
0 1

O	 0.575488	 0.499206	 0.966074
C	 0.028650	 0.075053	 -0.000277
C	 -1.233602	 -0.752807	 0.000328
O	 0.469568	 0.279678	 -1.234627
C	 -2.501530	 0.091881	 0.000126
H	 -1.193807	 -1.406641	 -0.865785
H	 -1.193516	 -1.405779	 0.867015
H	 -2.545121	 0.729328	 -0.874513
H	 -3.377167	 -0.548497	 0.000561
H	 -2.544818	 0.730135	 0.874258
C	 1.652825	 1.044909	 -1.375740
H	 1.514729	 2.036239	 -0.968791
H	 1.844367	 1.099155	 -2.436039
H	 2.478242	 0.564951	 -0.869976

	symmetry c1
}
set optking {
	frozen_dihedral = ("
		4 2 3 6
	")
}

ee = optimize('scf')
oeprop('DIPOLE', 'QUADRUPOLE', 'MULLIKEN_CHARGES')
f=open( 'psi4out.xyz', 'w' )
f.write( "14  " )
f.write( str(ee) + "\n" )
f.write( MOL.save_string_xyz() )
f.close()
--------------------------------------------------------------------------

    Molecular point group: c1
  Charge       = 0
  Multiplicity = 1
  Basis Set: 6-31G*
  Basis Set:
  @DF-RHF Final Energy:  -305.86964497629191
    Total Energy =                       -305.8696449762919656
    Molecular point group: c1
  Basis Set: 6-31G*
  Basis Set:
  Basis Set: 6-31G*
  Basis Set:
  @DF-RHF Final Energy:  -305.86976251540079
    Total Energy =                       -305.8697625154006232
  Basis Set: 6-31G*
  Basis Set:
  Basis Set: 6-31G*
  Basis Set:
  @DF-RHF Final Energy:  -305.87029096903893
    Total Energy =                       -305.8702909690391607
  Basis Set: 6-31G*
  Basis Set:
  Basis Set: 6-31G*
  Basis Set:
  @DF-RHF Final Energy:  -305.87037213190888
    Total Energy =                       -305.8703721319087663
  Basis Set: 6-31G*
  Basis Set:
  Basis Set: 6-31G*
  Basis Set:
  @DF-RHF Final Energy:  -305.87037381012317
    Total Energy =                       -305.8703738101228282
  Basis Set: 6-31G*
  Basis Set:
  Charge       = 0
  Multiplicity = 1
  Basis Set: 6-31G*
  Basis Set:

    Orbital Energies (a.u.)
    -----------------------

    Doubly Occupied:

       1A    -20.605809     2A    -20.543597     3A    -11.371737
       4A    -11.281308     5A    -11.237122     6A    -11.227467
       7A     -1.469794     8A     -1.362132     9A     -1.067157
      10A     -0.977860    11A     -0.882960    12A     -0.773851
      13A     -0.697538    14A     -0.679015    15A     -0.673281
      16A     -0.616879    17A     -0.597658    18A     -0.567108
      19A     -0.542276    20A     -0.518904    21A     -0.508037
      22A     -0.506677    23A     -0.455323    24A     -0.434577

  @DF-RHF Final Energy:  -305.87037396102437

   => Energetics <=

    Nuclear Repulsion Energy =            247.9706268365694086
    One-Electron Energy =                -908.4858645736520657
    Two-Electron Energy =                 354.6448637760583438
    DFT Exchange-Correlation Energy =       0.0000000000000000
    Empirical Dispersion Energy =           0.0000000000000000
    PCM Polarization Energy =               0.0000000000000000
    EFP Energy =                            0.0000000000000000
    Total Energy =                       -305.8703739610243133
    Molecular point group: c1
  Basis Set: 6-31G*
  Basis Set:

  -Total Gradient:
     Atom            X                  Y                   Z
    ------   -----------------  -----------------  -----------------
       1        0.000020135504    -0.000003309791    -0.000005577908
       2       -0.000325793080     0.000489860748    -0.000086094615
       3        0.000288865232    -0.000483585478     0.000290154617
       4        0.000224392435    -0.000322915669     0.000038605474
       5        0.000012502443    -0.000005351336     0.000007633027
       6       -0.000200092707     0.000301857110    -0.000227944627
       7        0.000000904523     0.000001346030    -0.000013539787
       8        0.000002030530    -0.000000062528     0.000000356298
       9       -0.000000606670    -0.000003173557     0.000000765549
      10       -0.000006370920     0.000006610004     0.000000189681
      11       -0.000031935576     0.000039995555    -0.000005754450
      12        0.000010404958    -0.000003327928    -0.000004984434
      13        0.000005627328    -0.000005582044    -0.000000098463
      14       -0.000000063999    -0.000012361115     0.000006289637

  **** Optimization is complete! (in 6 steps) ****
    Final optimized geometry and variables:
    Molecular point group: c1

    Geometry (in Angstrom), charge = 0, multiplicity = 1:

    O            0.712968646912     0.250013497869     1.252265624119
    C            0.180209470013    -0.179788033610     0.279674541705
    C           -1.082601674389    -1.005000349966     0.289468039944
    O            0.618298881395     0.049354621429    -0.950866058625
    C           -2.319549081868    -0.097081285229     0.273326266522
    H           -1.091096050855    -1.660973692291    -0.571727342184
    H           -1.072976715920    -1.604779319370     1.190434621091
    H           -2.346300419862     0.508634822087    -0.626021830030
    H           -3.223152963270    -0.695465084988     0.302386894149
    H           -2.322786625052     0.563780407796     1.132632150327
    C            1.773249371764     0.858852615232    -1.080332540543
    H            1.596298177154     1.841643223628    -0.667652274136
    H            1.968926755084     0.926843138872    -2.139082674398
    H            2.612232532617     0.405918792114    -0.572197134327

  Mulliken Charges: (a.u.)
   Center  Symbol    Alpha    Beta     Spin     Total
       1     O     4.28516  4.28516  0.00000 -0.57031
       2     C     2.61647  2.61647  0.00000  0.76706
       3     C     3.19455  3.19455  0.00000 -0.38911
       4     O     4.30246  4.30246  0.00000 -0.60493
       5     C     3.25140  3.25140  0.00000 -0.50280
       6     H     0.40277  0.40277  0.00000  0.19447
       7     H     0.39950  0.39950  0.00000  0.20100
       8     H     0.41102  0.41102  0.00000  0.17796
       9     H     0.41141  0.41141  0.00000  0.17718
      10     H     0.40658  0.40658  0.00000  0.18684
      11     C     3.09292  3.09292  0.00000 -0.18585
      12     H     0.40898  0.40898  0.00000  0.18203
      13     H     0.40858  0.40858  0.00000  0.18284
      14     H     0.40820  0.40820  0.00000  0.18361

   Total alpha = 24.00000, Total beta = 24.00000, Total charge =  0.00000
