  ==> Input File <==

--------------------------------------------------------------------------
set {
	reference rhf
	basis 6-31G*
}

set_num_threads( 4 )
memory 2 gb

molecule MOL {
0 1

H	 3.196789	 -0.643702	 -0.982417
N	 3.092854	 -0.246221	 -0.068770
C	 1.865559	 0.531981	 0.018834
H	 3.891694	 0.339594	 0.084542
C	 0.645745	 -0.382037	 -0.029944
H	 1.841966	 1.207024	 -0.831236
H	 1.815756	 1.155410	 0.915079
C	 -0.679275	 0.379305	 0.025956
H	 0.698998	 -0.976915	 -0.937203
H	 0.693479	 -1.083846	 0.802235
C	 -1.903357	 -0.536963	 -0.023547
H	 -0.726309	 1.082987	 -0.803784
H	 -0.717680	 0.977832	 0.934877
C	 -3.225172	 0.228290	 0.028445
H	 -1.867824	 -1.134999	 -0.931459
H	 -1.860449	 -1.239604	 0.805977
H	 -3.313397	 0.915643	 -0.808262
H	 -4.073500	 -0.448134	 -0.008893
H	 -3.306061	 0.809945	 0.942516

	symmetry c1
}
set optking {
	frozen_dihedral = ("
		1 2 3 6
	")
}

ee = optimize('scf')
oeprop('DIPOLE', 'QUADRUPOLE', 'MULLIKEN_CHARGES')
f=open( 'psi4out.xyz', 'w' )
f.write( "19  " )
f.write( str(ee) + "\n" )
f.write( MOL.save_string_xyz() )
f.close()
--------------------------------------------------------------------------

    Molecular point group: c1
  Charge       = 0
  Multiplicity = 1
  Basis Set: 6-31G*
  Basis Set:
  @DF-RHF Final Energy:  -251.34938704068273
    Total Energy =                       -251.3493870406829274
    Molecular point group: c1
  Basis Set: 6-31G*
  Basis Set:
  Basis Set: 6-31G*
  Basis Set:
  @DF-RHF Final Energy:  -251.35130031607798
    Total Energy =                       -251.3513003160778680
  Basis Set: 6-31G*
  Basis Set:
  Basis Set: 6-31G*
  Basis Set:
  @DF-RHF Final Energy:  -251.35160241541286
    Total Energy =                       -251.3516024154129127
  Basis Set: 6-31G*
  Basis Set:
  Basis Set: 6-31G*
  Basis Set:
  @DF-RHF Final Energy:  -251.35160582665949
    Total Energy =                       -251.3516058266594086
  Basis Set: 6-31G*
  Basis Set:
  Basis Set: 6-31G*
  Basis Set:
  @DF-RHF Final Energy:  -251.35161011813116
    Total Energy =                       -251.3516101181311910
  Basis Set: 6-31G*
  Basis Set:
  Charge       = 0
  Multiplicity = 1
  Basis Set: 6-31G*
  Basis Set:

    Orbital Energies (a.u.)
    -----------------------

    Doubly Occupied:

       1A    -15.532930     2A    -11.239975     3A    -11.213496
       4A    -11.212135     5A    -11.208143     6A    -11.207186
       7A     -1.176684     8A     -1.072451     9A     -0.998043
      10A     -0.900045    11A     -0.812246    12A     -0.788393
      13A     -0.667000    14A     -0.639873    15A     -0.616725
      16A     -0.586858    17A     -0.565072    18A     -0.549069
      19A     -0.527983    20A     -0.499455    21A     -0.479230
      22A     -0.464414    23A     -0.460389    24A     -0.450332
      25A     -0.381438

  @DF-RHF Final Energy:  -251.35161072095730

   => Energetics <=

    Nuclear Repulsion Energy =            245.5778994554387964
    One-Electron Energy =                -825.3598887854629993
    Two-Electron Energy =                 328.4303786090670201
    DFT Exchange-Correlation Energy =       0.0000000000000000
    Empirical Dispersion Energy =           0.0000000000000000
    PCM Polarization Energy =               0.0000000000000000
    EFP Energy =                            0.0000000000000000
    Total Energy =                       -251.3516107209571828
    Molecular point group: c1
  Basis Set: 6-31G*
  Basis Set:

  -Total Gradient:
     Atom            X                  Y                   Z
    ------   -----------------  -----------------  -----------------
       1        0.000576258785     0.000933922780    -0.000313288673
       2       -0.000925787306    -0.001373896653     0.000204175923
       3        0.000754638152     0.001205275345     0.000662276745
       4       -0.000011709802     0.000020273369     0.000008135140
       5        0.000031014746    -0.000037735537    -0.000002288134
       6       -0.000443179830    -0.000728395426    -0.000615734916
       7        0.000008144756    -0.000018813973     0.000007887880
       8        0.000011569131     0.000016293150     0.000027931380
       9        0.000012609053    -0.000006042132     0.000005748294
      10       -0.000023977254    -0.000005050251     0.000004131411
      11        0.000005693006    -0.000010284210     0.000006911126
      12        0.000025477273    -0.000004974833     0.000005032226
      13       -0.000024827124     0.000006571809     0.000006188793
      14        0.000003323423     0.000003627665    -0.000001169674
      15        0.000002588993     0.000003472473    -0.000001532005
      16       -0.000003548156    -0.000003662631    -0.000003084786
      17       -0.000002121666    -0.000000617748    -0.000001179919
      18        0.000002242565    -0.000000911676     0.000000815344
      19        0.000001591256     0.000000948480    -0.000000956154

  **** Optimization is complete! (in 6 steps) ****
    Final optimized geometry and variables:
    Molecular point group: c1

    Geometry (in Angstrom), charge = 0, multiplicity = 1:

    H            3.233470166164    -0.638749338668    -0.942332513620
    N            3.093330961724    -0.251704459539    -0.028272261117
    C            1.865436751198     0.531334743200     0.009641140896
    H            3.887361605796     0.330551331489     0.157170851566
    C            0.645047327952    -0.383404302737    -0.022572466195
    H            1.793690326337     1.252765741376    -0.807760969202
    H            1.863390024738     1.100785492811     0.933798948066
    C           -0.679759860344     0.378393777259     0.031728852749
    H            0.678051203004    -0.986970990307    -0.928977151175
    H            0.714375275643    -1.077006791990     0.810309590062
    C           -1.904098614965    -0.538301623970    -0.000865076423
    H           -0.733690404343     1.076014615994    -0.802810166932
    H           -0.711447542934     0.983962221334     0.936362909146
    C           -3.225633667557     0.226988770887     0.057068655408
    H           -1.876613127529    -1.142770863350    -0.905015278993
    H           -1.853442769090    -1.235023876544     0.832894124812
    H           -3.321677729323     0.908276510935    -0.783796325831
    H           -4.074119971594    -0.449893152151     0.032404016246
    H           -3.298447094134     0.815225540220     0.967551339281

  Mulliken Charges: (a.u.)
   Center  Symbol    Alpha    Beta     Spin     Total
       1     H     0.33518  0.33518  0.00000  0.32964
       2     N     3.92121  3.92121  0.00000 -0.84242
       3     C     3.06259  3.06259  0.00000 -0.12517
       4     H     0.33254  0.33254  0.00000  0.33492
       5     C     3.14895  3.14895  0.00000 -0.29791
       6     H     0.43420  0.43420  0.00000  0.13161
       7     H     0.42108  0.42108  0.00000  0.15784
       8     C     3.15523  3.15523  0.00000 -0.31045
       9     H     0.42738  0.42738  0.00000  0.14524
      10     H     0.41364  0.41364  0.00000  0.17272
      11     C     3.15071  3.15071  0.00000 -0.30142
      12     H     0.42514  0.42514  0.00000  0.14972
      13     H     0.42404  0.42404  0.00000  0.15192
      14     C     3.23927  3.23927  0.00000 -0.47853
      15     H     0.42327  0.42327  0.00000  0.15346
      16     H     0.42192  0.42192  0.00000  0.15617
      17     H     0.42235  0.42235  0.00000  0.15531
      18     H     0.41944  0.41944  0.00000  0.16112
      19     H     0.42188  0.42188  0.00000  0.15623

   Total alpha = 25.00000, Total beta = 25.00000, Total charge = -0.00000
