                              Psi4 1.0.54 Driver

  ==> Input File <==

--------------------------------------------------------------------------
set {
	reference rhf
	basis cc-pvtz
}

set_num_threads( 4 )
memory 2 gb

molecule MOL {
0 1

H	 -1.088256	 -1.364742	 0.152233
O	 -1.432053	 -0.565244	 -0.200812
C	 -0.727158	 0.534527	 0.310686
C	 0.680222	 0.664433	 -0.252229
H	 -1.306802	 1.408001	 0.044211
H	 -0.690821	 0.490158	 1.397609
C	 1.431686	 -0.659835	 -0.350534
H	 0.619883	 1.125329	 -1.232619
H	 1.234360	 1.347640	 0.385586
H	 0.938666	 -1.348181	 -1.028203
H	 2.437076	 -0.508743	 -0.724586
H	 1.510246	 -1.140675	 0.619815

	symmetry c1
}
set optking {
	frozen_dihedral = ("
		8 4 3 2
	")
}

ee,wfn = optimize('scf', return_wfn=True)
oeprop( wfn, 'DIPOLE', 'QUADRUPOLE', 'MULLIKEN_CHARGES')
f=open( 'psi4out.xyz', 'w' )
f.write( "12  " )
f.write( str(ee) + "\n" )
f.write( MOL.save_string_xyz() )
f.close()
--------------------------------------------------------------------------

    Molecular point group: c1
  Charge       = 0
  Multiplicity = 1
  Basis Set: CC-PVTZ
  Basis Set:
  @DF-RHF Final Energy:  -193.18827229658200
    Total Energy =                       -193.1882722965821131
    Molecular point group: c1
  Basis Set: CC-PVTZ
  Basis Set:
  Basis Set: CC-PVTZ
  Basis Set:
  @DF-RHF Final Energy:  -193.18856736506135
    Total Energy =                       -193.1885673650613739
  Basis Set: CC-PVTZ
  Basis Set:
  Basis Set: CC-PVTZ
  Basis Set:
  @DF-RHF Final Energy:  -193.18865624615228
    Total Energy =                       -193.1886562461522203
  Basis Set: CC-PVTZ
  Basis Set:
  Basis Set: CC-PVTZ
  Basis Set:
  @DF-RHF Final Energy:  -193.18865900362033
    Total Energy =                       -193.1886590036204439
  Basis Set: CC-PVTZ
  Basis Set:
  Charge       = 0
  Multiplicity = 1
  Basis Set: CC-PVTZ
  Basis Set:

    Orbital Energies (a.u.)
    -----------------------

    Doubly Occupied:

       1A    -20.545677     2A    -11.266383     3A    -11.217442
       4A    -11.214596     5A     -1.364237     6A     -1.050525
       7A     -0.929863     8A     -0.808851     9A     -0.697710
      10A     -0.634992    11A     -0.611164    12A     -0.587564
      13A     -0.534977    14A     -0.512911    15A     -0.497256
      16A     -0.465491    17A     -0.431932

  @DF-RHF Final Energy:  -193.18865927250533

   => Energetics <=

    Nuclear Repulsion Energy =            133.5213470378689635
    One-Electron Energy =                -526.6768720977506746
    Two-Electron Energy =                 199.9668657873766051
    DFT Exchange-Correlation Energy =       0.0000000000000000
    Empirical Dispersion Energy =           0.0000000000000000
    PCM Polarization Energy =               0.0000000000000000
    EFP Energy =                            0.0000000000000000
    Total Energy =                       -193.1886592725051059
    Molecular point group: c1
  Basis Set: CC-PVTZ
  Basis Set:

  -Total Gradient:
     Atom            X                  Y                   Z
    ------   -----------------  -----------------  -----------------
       1       -0.000008355647    -0.000021937478    -0.000001182638
       2        0.001438940766    -0.002320584057     0.002921508369
       3       -0.001831674656     0.004308713607    -0.003517180270
       4       -0.000079339655    -0.006437595976    -0.001534585821
       5       -0.000004390665     0.000007947206     0.000003956835
       6       -0.000000392120    -0.000016097088    -0.000009169536
       7        0.000025429882     0.000005828824    -0.000011742851
       8        0.000450609957     0.004463256213     0.002135411531
       9        0.000020001477     0.000008837840     0.000014645304
      10       -0.000001205222     0.000009007943     0.000006581891
      11        0.000000492127    -0.000010703284    -0.000005229862
      12       -0.000010116250     0.000003326248    -0.000003012953

  **** Optimization is complete! (in 5 steps) ****
    Final optimized geometry and variables:
    Molecular point group: c1

    Geometry (in Angstrom), charge = 0, multiplicity = 1:

    H           -1.058920426536    -1.324883839205     0.244799179789
    O           -1.414374117715    -0.518614706802    -0.079267162968
    C           -0.685485692691     0.567011876498     0.427792446126
    C            0.721627344655     0.699367096723    -0.151499878487
    H           -1.261557557432     1.453756412401     0.203359117010
    H           -0.622750987021     0.489790138299     1.511569214971
    C            1.503350455245    -0.606679988948    -0.220821620296
    H            0.672901863831     1.171907527631    -1.127111139123
    H            1.259314712216     1.403144371198     0.479541375315
    H            1.044090892983    -1.307449999979    -0.906919911528
    H            2.515761934630    -0.430285694233    -0.562862597206
    H            1.567834421040    -1.080109958302     0.755169092893

  Mulliken Charges: (a.u.)
   Center  Symbol    Alpha    Beta     Spin     Total
       1     H     0.39061  0.39061  0.00000  0.21878
       2     O     4.20583  4.20583  0.00000 -0.41166
       3     C     2.97772  2.97772  0.00000  0.04457
       4     C     3.08029  3.08029  0.00000 -0.16059
       5     H     0.45081  0.45081  0.00000  0.09838
       6     H     0.47031  0.47031  0.00000  0.05937
       7     C     3.16416  3.16416  0.00000 -0.32832
       8     H     0.45285  0.45285  0.00000  0.09431
       9     H     0.45788  0.45788  0.00000  0.08424
      10     H     0.44906  0.44906  0.00000  0.10187
      11     H     0.44511  0.44511  0.00000  0.10978
      12     H     0.45536  0.45536  0.00000  0.08927

   Total alpha = 17.00000, Total beta = 17.00000, Total charge = -0.00000

*** Psi4 exiting successfully. Buy a developer a beer!
