                              Psi4 1.0.54 Driver

  ==> Input File <==

--------------------------------------------------------------------------
set {
	reference rhf
	basis cc-pvtz
}

set_num_threads( 4 )
memory 2 gb

molecule MOL {
0 1

O	 -2.440701	 -0.934798	 -0.415053
C	 -1.922978	 0.063265	 -0.045005
C	 -2.632749	 1.372204	 0.158357
O	 -0.637375	 0.157174	 0.243149
H	 -2.187724	 2.129143	 -0.474664
H	 -3.677681	 1.257276	 -0.079438
H	 -2.516788	 1.693160	 1.185542
C	 0.162530	 -1.009518	 0.097799
C	 1.587210	 -0.664190	 0.477086
H	 0.096803	 -1.356267	 -0.924704
H	 -0.233803	 -1.785900	 0.736810
C	 2.256770	 0.342732	 -0.454344
H	 2.154716	 -1.590834	 0.479041
H	 1.598751	 -0.289614	 1.496104
C	 2.436390	 1.712400	 0.191692
H	 3.226241	 -0.043060	 -0.758296
H	 1.667702	 0.443012	 -1.358660
H	 2.916928	 2.405590	 -0.488716
H	 3.048324	 1.648755	 1.085492
H	 1.480304	 2.138637	 0.476714

	symmetry c1
}
set optking {
	frozen_dihedral = ("
		16 12 9 8
	")
}

ee,wfn = optimize('scf', return_wfn=True)
oeprop( wfn, 'DIPOLE', 'QUADRUPOLE', 'MULLIKEN_CHARGES')
f=open( 'psi4out.xyz', 'w' )
f.write( "20  " )
f.write( str(ee) + "\n" )
f.write( MOL.save_string_xyz() )
f.close()
--------------------------------------------------------------------------

    Molecular point group: c1
  Charge       = 0
  Multiplicity = 1
  Basis Set: CC-PVTZ
  Basis Set:
  @DF-RHF Final Energy:  -384.08246435605196
    Total Energy =                       -384.0824643560520144
    Molecular point group: c1
  Basis Set: CC-PVTZ
  Basis Set:
  Basis Set: CC-PVTZ
  Basis Set:
  @DF-RHF Final Energy:  -384.08276828996168
    Total Energy =                       -384.0827682899615638
  Basis Set: CC-PVTZ
  Basis Set:
  Basis Set: CC-PVTZ
  Basis Set:
  @DF-RHF Final Energy:  -384.08275660350108
    Total Energy =                       -384.0827566035012524
  Basis Set: CC-PVTZ
  Basis Set:
  Basis Set: CC-PVTZ
  Basis Set:
  @DF-RHF Final Energy:  -384.08283016352351
    Total Energy =                       -384.0828301635237949
  Basis Set: CC-PVTZ
  Basis Set:
  Basis Set: CC-PVTZ
  Basis Set:
  @DF-RHF Final Energy:  -384.08285096234221
    Total Energy =                       -384.0828509623422633
  Basis Set: CC-PVTZ
  Basis Set:
  Basis Set: CC-PVTZ
  Basis Set:
  @DF-RHF Final Energy:  -384.08285524922775
    Total Energy =                       -384.0828552492279186
  Basis Set: CC-PVTZ
  Basis Set:
  Charge       = 0
  Multiplicity = 1
  Basis Set: CC-PVTZ
  Basis Set:

    Orbital Energies (a.u.)
    -----------------------

    Doubly Occupied:

       1A    -20.594828     2A    -20.533139     3A    -11.367105
       4A    -11.280493     5A    -11.232098     6A    -11.223609
       7A    -11.219707     8A    -11.208757     9A     -1.471421
      10A     -1.365607    11A     -1.084914    12A     -1.028119
      13A     -0.981922    14A     -0.883288    15A     -0.808820
      16A     -0.778477    17A     -0.693662    18A     -0.688160
      19A     -0.670215    20A     -0.620322    21A     -0.605565
      22A     -0.596840    23A     -0.575906    24A     -0.555388
      25A     -0.540069    26A     -0.534267    27A     -0.513035
      28A     -0.480974    29A     -0.476766    30A     -0.469098
      31A     -0.452605    32A     -0.441751

  @DF-RHF Final Energy:  -384.08285568488543

   => Energetics <=

    Nuclear Repulsion Energy =            391.5702038395106683
    One-Electron Energy =               -1299.3522566070673747
    Two-Electron Energy =                 523.6991970826712759
    DFT Exchange-Correlation Energy =       0.0000000000000000
    Empirical Dispersion Energy =           0.0000000000000000
    PCM Polarization Energy =               0.0000000000000000
    EFP Energy =                            0.0000000000000000
    Total Energy =                       -384.0828556848854305
    Molecular point group: c1
  Basis Set: CC-PVTZ
  Basis Set:

  -Total Gradient:
     Atom            X                  Y                   Z
    ------   -----------------  -----------------  -----------------
       1        0.000013000774     0.000011753158     0.000032920650
       2        0.000023222330     0.000075864886    -0.000057583895
       3       -0.000010854085    -0.000011689669     0.000016545041
       4       -0.000050158226    -0.000023941484     0.000005814218
       5       -0.000004624639    -0.000030049896     0.000017740191
       6       -0.000004780653     0.000007923196     0.000002923999
       7       -0.000001230728    -0.000011601189    -0.000025889717
       8        0.000399667290    -0.000885644472    -0.000681988801
       9       -0.000689803459     0.001031225259     0.000702915345
      10       -0.000010719861    -0.000014038962    -0.000012774402
      11        0.000012641977     0.000017236128    -0.000007621126
      12        0.001016861377     0.000500776257     0.001278574141
      13        0.000000764947     0.000009454920     0.000008255912
      14       -0.000000225074    -0.000011188964    -0.000002018849
      15        0.000003806124     0.000021073480     0.000010057930
      16       -0.000704105245    -0.000686842344    -0.001277729791
      17        0.000001171213    -0.000003854906    -0.000015673224
      18        0.000002037957    -0.000003866546    -0.000003399170
      19        0.000007632982     0.000003583607     0.000007470077
      20       -0.000004305011     0.000003827540     0.000001461470

  **** Optimization is complete! (in 7 steps) ****
    Final optimized geometry and variables:
    Molecular point group: c1

    Geometry (in Angstrom), charge = 0, multiplicity = 1:

    O           -2.275817960868    -1.064710570548    -0.471536825741
    C           -1.753780210578    -0.066799999140    -0.107598757748
    C           -2.451034605125     1.253795549752     0.057550255091
    O           -0.472990029330     0.015485442437     0.205735577896
    H           -1.983747710716     1.993356598781    -0.579852020346
    H           -3.492313155580     1.147352976150    -0.199445053302
    H           -2.351804634610     1.591725920151     1.080946716981
    C            0.314333211142    -1.164167268507     0.095799638978
    C            1.741532046904    -0.827891684016     0.473122866575
    H            0.252596654726    -1.533518086558    -0.918690770462
    H           -0.095425327716    -1.920671982235     0.750230715256
    C            2.417290510317     0.207287479571    -0.447113489029
    H            2.292346862624    -1.762343587957     0.448705951894
    H            1.763762352431    -0.487112426729     1.502644024571
    C            2.595368288921     1.579648884936     0.194909848867
    H            3.383099246043    -0.169291197473    -0.765024083056
    H            1.832822922901     0.315316729394    -1.355178935398
    H            3.057632962801     2.275894622834    -0.495697189131
    H            3.227669470122     1.518169474020     1.074483142802
    H            1.641242582816     1.992091991882     0.500137866610

  Mulliken Charges: (a.u.)
   Center  Symbol    Alpha    Beta     Spin     Total
       1     O     4.19741  4.19741  0.00000 -0.39483
       2     C     2.80818  2.80818  0.00000  0.38365
       3     C     3.14011  3.14011  0.00000 -0.28023
       4     O     4.15431  4.15431  0.00000 -0.30862
       5     H     0.44584  0.44584  0.00000  0.10833
       6     H     0.43678  0.43678  0.00000  0.12643
       7     H     0.44548  0.44548  0.00000  0.10904
       8     C     2.99317  2.99317  0.00000  0.01365
       9     C     3.09290  3.09290  0.00000 -0.18579
      10     H     0.45096  0.45096  0.00000  0.09808
      11     H     0.44439  0.44439  0.00000  0.11122
      12     C     3.08804  3.08804  0.00000 -0.17608
      13     H     0.44498  0.44498  0.00000  0.11003
      14     H     0.45211  0.45211  0.00000  0.09577
      15     C     3.14793  3.14793  0.00000 -0.29586
      16     H     0.44726  0.44726  0.00000  0.10549
      17     H     0.45398  0.45398  0.00000  0.09205
      18     H     0.45009  0.45009  0.00000  0.09983
      19     H     0.45582  0.45582  0.00000  0.08836
      20     H     0.45026  0.45026  0.00000  0.09949

   Total alpha = 32.00000, Total beta = 32.00000, Total charge =  0.00000

*** Psi4 exiting successfully. Buy a developer a beer!
