  ==> Input File <==

--------------------------------------------------------------------------
set {
	reference rhf
	basis 6-31G*
}

set_num_threads( 1 )
memory 2 gb

molecule MOL {
0 1

H	 -2.646374	 -0.642757	 1.268656
C	 -2.083525	 -0.384536	 0.393091
O	 -0.807605	 -0.127164	 0.768327
F	 -2.118945	 -1.383102	 -0.486752
F	 -2.621877	 0.670592	 -0.209486
C	 0.084052	 0.273579	 -0.209957
C	 0.701338	 -0.990610	 -0.793859
Cl	 1.338009	 1.323226	 0.470519
H	 -0.397245	 0.813977	 -1.006259
F	 1.556654	 -0.686522	 -1.746805
F	 -0.256661	 -1.725267	 -1.322967
F	 1.318510	 -1.705236	 0.115197

	symmetry c1
}
set optking {
	frozen_dihedral = ("
		10 7 6 9,
		6 3 2 4
	")
}

ee = energy('scf')
oeprop('DIPOLE', 'QUADRUPOLE', 'MULLIKEN_CHARGES')
f=open( 'psi4out.xyz', 'w' )
f.write( "12  " )
f.write( str(ee) + "\n" )
f.write( MOL.save_string_xyz() )
f.close()
--------------------------------------------------------------------------

    Molecular point group: c1

    Geometry (in Angstrom), charge = 0, multiplicity = 1:

       Center              X                  Y                   Z               Mass
    ------------   -----------------  -----------------  -----------------  -----------------
           H         -2.509968795747    -0.313564697539     1.527832285911     1.007825032070
           C         -1.947119795747    -0.055343697539     0.652267285911    12.000000000000
           O         -0.671199795747     0.202028302461     1.027503285911    15.994914619560
           F         -1.982539795747    -1.053909697539    -0.227575714089    18.998403224000
           F         -2.485471795747     0.999784302461     0.049690285911    18.998403224000
           C          0.220457204253     0.602771302461     0.049219285911    12.000000000000
           C          0.837743204253    -0.661417697539    -0.534682714089    12.000000000000
          CL          1.474414204253     1.652418302461     0.729695285911    34.968852682000
           H         -0.260839795747     1.143169302461    -0.747082714089     1.007825032070
           F          1.693059204253    -0.357329697539    -1.487628714089    18.998403224000
           F         -0.120255795747    -1.396074697539    -1.063790714089    18.998403224000
           F          1.454915204253    -1.376043697539     0.374373285911    18.998403224000

  Charge       = 0
  Multiplicity = 1
  Basis Set: 6-31G*
  Basis Set:

    Orbital Energies (a.u.)
    -----------------------

    Doubly Occupied:

       1A   -104.850118     2A    -26.355217     3A    -26.354415
       4A    -26.347293     5A    -26.347147     6A    -26.332654
       7A    -20.647383     8A    -11.520870     9A    -11.487277
      10A    -11.399717    11A    -10.584346    12A     -8.053736
      13A     -8.050153    14A     -8.050056    15A     -1.757561
      16A     -1.715377    17A     -1.654411    18A     -1.653814
      19A     -1.631310    20A     -1.485308    21A     -1.181759
      22A     -1.045928    23A     -0.991999    24A     -0.913004
      25A     -0.855030    26A     -0.849513    27A     -0.839508
      28A     -0.835337    29A     -0.809325    30A     -0.788200
      31A     -0.729385    32A     -0.720012    33A     -0.707033
      34A     -0.697373    35A     -0.671586    36A     -0.660649
      37A     -0.657040    38A     -0.649865    39A     -0.640869
      40A     -0.634142    41A     -0.586373    42A     -0.570118
      43A     -0.528029    44A     -0.482596    45A     -0.470419

  @DF-RHF Final Energy: -1146.29171938315358

   => Energetics <=

    Nuclear Repulsion Energy =            752.9957153545522033
    One-Electron Energy =               -3088.9882254046801791
    Two-Electron Energy =                1189.7007906669734894
    DFT Exchange-Correlation Energy =       0.0000000000000000
    Empirical Dispersion Energy =           0.0000000000000000
    PCM Polarization Energy =               0.0000000000000000
    EFP Energy =                            0.0000000000000000
    Total Energy =                      -1146.2917193831542590

  Mulliken Charges: (a.u.)
   Center  Symbol    Alpha    Beta     Spin     Total
       1     H     0.40158  0.40158  0.00000  0.19684
       2     C     2.56313  2.56313  0.00000  0.87374
       3     O     4.29981  4.29981  0.00000 -0.59963
       4     F     4.68220  4.68220  0.00000 -0.36441
       5     F     4.68754  4.68754  0.00000 -0.37508
       6     C     3.05790  3.05790  0.00000 -0.11580
       7     C     2.43575  2.43575  0.00000  1.12850
       8    CL     8.48956  8.48956  0.00000  0.02088
       9     H     0.36633  0.36633  0.00000  0.26734
      10     F     4.67517  4.67517  0.00000 -0.35035
      11     F     4.67217  4.67217  0.00000 -0.34434
      12     F     4.66885  4.66885  0.00000 -0.33770

   Total alpha = 45.00000, Total beta = 45.00000, Total charge =  0.00000
