  ==> Input File <==

--------------------------------------------------------------------------
set {
	reference rhf
	basis 6-31G*
}

set_num_threads( 4 )
memory 2 gb

molecule MOL {
0 1

H	 3.463771	 0.168298	 -0.756243
C	 2.752674	 -0.045734	 0.033351
C	 1.322923	 0.120767	 -0.479465
H	 2.934561	 -1.059086	 0.377456
H	 2.958358	 0.631174	 0.856809
C	 0.306652	 -0.176050	 0.621399
H	 1.144658	 -0.551717	 -1.312180
H	 1.166477	 1.131798	 -0.836680
N	 -1.068537	 -0.011044	 0.085269
H	 0.372515	 -1.192590	 0.973735
H	 0.391664	 0.520566	 1.441230
O	 -1.187437	 0.129098	 -1.092694
O	 -1.960329	 0.001923	 0.878089

	symmetry c1
}
set optking {
	frozen_dihedral = ("
		12 9 6 3
	")
}

ee = optimize('scf')
oeprop('DIPOLE', 'QUADRUPOLE', 'MULLIKEN_CHARGES')
f=open( 'psi4out.xyz', 'w' )
f.write( "13  " )
f.write( str(ee) + "\n" )
f.write( MOL.save_string_xyz() )
f.close()
--------------------------------------------------------------------------

    Molecular point group: c1
  Charge       = 0
  Multiplicity = 1
  Basis Set: 6-31G*
  Basis Set:
  @DF-RHF Final Energy:  -321.73309745744319
    Total Energy =                       -321.7330974574431934
    Molecular point group: c1
  Basis Set: 6-31G*
  Basis Set:
  Basis Set: 6-31G*
  Basis Set:
  @DF-RHF Final Energy:  -321.73032504864415
    Total Energy =                       -321.7303250486443176
  Basis Set: 6-31G*
  Basis Set:
  Basis Set: 6-31G*
  Basis Set:
  @DF-RHF Final Energy:  -321.73162736578314
    Total Energy =                       -321.7316273657833108
  Basis Set: 6-31G*
  Basis Set:
  Basis Set: 6-31G*
  Basis Set:
  @DF-RHF Final Energy:  -321.73460667968595
    Total Energy =                       -321.7346066796857258
  Basis Set: 6-31G*
  Basis Set:
  Basis Set: 6-31G*
  Basis Set:
  @DF-RHF Final Energy:  -321.73442241111331
    Total Energy =                       -321.7344224111134281
  Basis Set: 6-31G*
  Basis Set:
  Basis Set: 6-31G*
  Basis Set:
  @DF-RHF Final Energy:  -321.73476854071197
    Total Energy =                       -321.7347685407117979
  Basis Set: 6-31G*
  Basis Set:
  Basis Set: 6-31G*
  Basis Set:
  @DF-RHF Final Energy:  -321.73500547215883
    Total Energy =                       -321.7350054721589458
  Basis Set: 6-31G*
  Basis Set:
  Charge       = 0
  Multiplicity = 1
  Basis Set: 6-31G*
  Basis Set:

    Orbital Energies (a.u.)
    -----------------------

    Doubly Occupied:

       1A    -20.604422     2A    -20.598202     3A    -15.848945
       4A    -11.301216     5A    -11.249806     6A    -11.237535
       7A     -1.632058     8A     -1.417356     9A     -1.132922
      10A     -1.027311    11A     -0.884803    12A     -0.825507
      13A     -0.760008    14A     -0.749802    15A     -0.725771
      16A     -0.656245    17A     -0.607700    18A     -0.576288
      19A     -0.553773    20A     -0.522864    21A     -0.509982
      22A     -0.485580    23A     -0.473011    24A     -0.448723

  @DF-RHF Final Energy:  -321.73500577716493

   => Energetics <=

    Nuclear Repulsion Energy =            247.0354726909680494
    One-Electron Energy =                -927.8812973107499147
    Two-Electron Energy =                 359.1108188426168795
    DFT Exchange-Correlation Energy =       0.0000000000000000
    Empirical Dispersion Energy =           0.0000000000000000
    PCM Polarization Energy =               0.0000000000000000
    EFP Energy =                            0.0000000000000000
    Total Energy =                       -321.7350057771649858
    Molecular point group: c1
  Basis Set: 6-31G*
  Basis Set:

  -Total Gradient:
     Atom            X                  Y                   Z
    ------   -----------------  -----------------  -----------------
       1       -0.000005873313    -0.000008358981    -0.000006565514
       2       -0.000009622007    -0.000045367852    -0.000005848051
       3        0.000025832662    -0.000002938147     0.000012887833
       4        0.000009424197    -0.000001392038     0.000010779019
       5       -0.000012452520     0.000004904758    -0.000009886122
       6       -0.000032308179     0.000161504669    -0.000005709733
       7       -0.000001344338     0.000001296603    -0.000025344277
       8        0.000003087622    -0.000016151549     0.000018953603
       9        0.000067626239    -0.000179834627    -0.000000529002
      10        0.000043108547    -0.000005625715     0.000039514775
      11        0.000001634806    -0.000010809992    -0.000009107838
      12       -0.000046741858     0.000100101853     0.000004950285
      13       -0.000042371856     0.000002671019    -0.000024094981

  **** Optimization is complete! (in 8 steps) ****
    Final optimized geometry and variables:
    Molecular point group: c1

    Geometry (in Angstrom), charge = 0, multiplicity = 1:

    H            3.513952740374     0.147870327748    -0.733821593751
    C            2.776541405577    -0.052156295501     0.034978403884
    C            1.364055888910     0.120392249855    -0.526261532747
    H            2.941276455541    -1.063443031335     0.394774164798
    H            2.964893687946     0.629873052525     0.858636395204
    C            0.328177235323    -0.161285969181     0.547723028118
    H            1.209289013510    -0.547868335636    -1.363547493708
    H            1.231872489222     1.128809566750    -0.900357663250
    N           -1.080153979523    -0.001613099894     0.082661409998
    H            0.377243677044    -1.178724488580     0.912871771018
    H            0.412296477101     0.499967618775     1.397510531206
    O           -1.286359820355     0.142284200998    -1.081405746759
    O           -1.917760808817    -0.046897330821     0.931027436728

  Mulliken Charges: (a.u.)
   Center  Symbol    Alpha    Beta     Spin     Total
       1     H     0.40757  0.40757  0.00000  0.18487
       2     C     3.25018  3.25018  0.00000 -0.50036
       3     C     3.16494  3.16494  0.00000 -0.32988
       4     H     0.41650  0.41650  0.00000  0.16700
       5     H     0.41636  0.41636  0.00000  0.16727
       6     C     3.08863  3.08863  0.00000 -0.17725
       7     H     0.39964  0.39964  0.00000  0.20072
       8     H     0.40328  0.40328  0.00000  0.19344
       9     N     3.22481  3.22481  0.00000  0.55037
      10     H     0.38533  0.38533  0.00000  0.22935
      11     H     0.38579  0.38579  0.00000  0.22842
      12     O     4.22772  4.22772  0.00000 -0.45543
      13     O     4.22925  4.22925  0.00000 -0.45849

   Total alpha = 24.00000, Total beta = 24.00000, Total charge = -0.00000
