  ==> Input File <==

--------------------------------------------------------------------------
set {
	reference rhf
	basis 6-31G*
}

set_num_threads( 4 )
memory 2 gb

molecule MOL {
0 1

H	 -3.225282	 -0.897878	 -0.549920
O	 -2.310168	 -0.871793	 -0.309793
C	 -2.026376	 0.340750	 0.341611
C	 -0.673256	 0.843270	 -0.132153
H	 -2.792215	 1.080697	 0.115987
H	 -2.013526	 0.200402	 1.421792
C	 0.486613	 -0.083066	 0.235839
H	 -0.715586	 0.970948	 -1.210718
H	 -0.508072	 1.829858	 0.297090
C	 1.840406	 0.433480	 -0.254303
H	 0.300215	 -1.068318	 -0.178947
H	 0.519509	 -0.203625	 1.318070
C	 3.000220	 -0.489290	 0.118523
H	 1.809207	 0.553576	 -1.335192
H	 2.021860	 1.424500	 0.157276
H	 2.864959	 -1.479103	 -0.307933
H	 3.946603	 -0.099227	 -0.243630
H	 3.080049	 -0.602997	 1.196117

	symmetry c1
}
set optking {
	frozen_dihedral = ("
		1 2 3 4
	")
}

ee = optimize('scf')
oeprop('DIPOLE', 'QUADRUPOLE', 'MULLIKEN_CHARGES')
f=open( 'psi4out.xyz', 'w' )
f.write( "18  " )
f.write( str(ee) + "\n" )
f.write( MOL.save_string_xyz() )
f.close()
--------------------------------------------------------------------------

    Molecular point group: c1
  Charge       = 0
  Multiplicity = 1
  Basis Set: 6-31G*
  Basis Set:
  @DF-RHF Final Energy:  -271.17815104682848
    Total Energy =                       -271.1781510468287593
    Molecular point group: c1
  Basis Set: 6-31G*
  Basis Set:
  Basis Set: 6-31G*
  Basis Set:
  @DF-RHF Final Energy:  -271.17826260434026
    Total Energy =                       -271.1782626043403752
  Basis Set: 6-31G*
  Basis Set:
  Basis Set: 6-31G*
  Basis Set:
  @DF-RHF Final Energy:  -271.17830022445730
    Total Energy =                       -271.1783002244571321
  Basis Set: 6-31G*
  Basis Set:
  Charge       = 0
  Multiplicity = 1
  Basis Set: 6-31G*
  Basis Set:

    Orbital Energies (a.u.)
    -----------------------

    Doubly Occupied:

       1A    -20.551697     2A    -11.268244     3A    -11.211549
       4A    -11.210423     5A    -11.205807     6A    -11.204026
       7A     -1.358282     8A     -1.074300     9A     -1.008337
      10A     -0.912895    11A     -0.818550    12A     -0.784826
      13A     -0.701092    14A     -0.647899    15A     -0.616970
      16A     -0.581047    17A     -0.574357    18A     -0.551824
      19A     -0.517826    20A     -0.511611    21A     -0.488872
      22A     -0.466315    23A     -0.457793    24A     -0.442417
      25A     -0.428908

  @DF-RHF Final Energy:  -271.17829933722032

   => Energetics <=

    Nuclear Repulsion Energy =            248.9202467325385442
    One-Electron Energy =                -861.0053549858107544
    Two-Electron Energy =                 340.9068089160521140
    DFT Exchange-Correlation Energy =       0.0000000000000000
    Empirical Dispersion Energy =           0.0000000000000000
    PCM Polarization Energy =               0.0000000000000000
    EFP Energy =                            0.0000000000000000
    Total Energy =                       -271.1782993372200963
    Molecular point group: c1
  Basis Set: 6-31G*
  Basis Set:

  -Total Gradient:
     Atom            X                  Y                   Z
    ------   -----------------  -----------------  -----------------
       1        0.000491775216     0.000650197729    -0.001351941237
       2       -0.000661606558    -0.000635520490     0.001426391472
       3        0.000661511755    -0.000436598087     0.000703708254
       4       -0.000507735064     0.000432883314    -0.000813180246
       5        0.000027951807     0.000015635721    -0.000015435684
       6        0.000010610559     0.000003712013    -0.000052657318
       7        0.000022079442     0.000042676387     0.000064902597
       8        0.000021711899     0.000044356866    -0.000029875925
       9       -0.000083236656    -0.000078725573     0.000071276428
      10        0.000018121009    -0.000018841105    -0.000015683855
      11       -0.000002859254    -0.000036794884     0.000071730523
      12       -0.000006379331     0.000029372505    -0.000007532257
      13       -0.000002442257    -0.000022159462    -0.000055308797
      14        0.000004972394     0.000042412322    -0.000012644874
      15        0.000008406968    -0.000020314696     0.000032297559
      16        0.000008049510    -0.000017854374     0.000008928863
      17       -0.000001387337    -0.000009256294    -0.000013641383
      18       -0.000009544097     0.000014818108    -0.000011334122

  **** Optimization is complete! (in 4 steps) ****
    Final optimized geometry and variables:
    Molecular point group: c1

    Geometry (in Angstrom), charge = 0, multiplicity = 1:

    H           -3.211200990555    -0.938601629885    -0.534816652835
    O           -2.301683668177    -0.896251891820    -0.282851223196
    C           -2.027116254889     0.340208726108     0.333649770123
    C           -0.671384171036     0.853669547238    -0.124515355360
    H           -2.792773588131     1.069749252453     0.080581508701
    H           -2.039133459051     0.219321865638     1.414625604631
    C            0.485984145841    -0.075860567036     0.243882914218
    H           -0.703089620808     0.992704176916    -1.202199124614
    H           -0.510347715259     1.834884590753     0.319260022085
    C            1.841640444947     0.434708474080    -0.247474638617
    H            0.295667005295    -1.061031611584    -0.170010530898
    H            0.518109832156    -0.196036899755     1.326016085116
    C            2.996104415432    -0.499597499799     0.112995324860
    H            1.807167804693     0.563908312185    -1.327263247147
    H            2.031927008142     1.421027565877     0.171465916548
    H            2.850694780755    -1.485587789237    -0.319002243806
    H            3.943604271812    -0.114634186093    -0.251701263876
    H            3.080617814480    -0.620958511804     1.189320521776

  Mulliken Charges: (a.u.)
   Center  Symbol    Alpha    Beta     Spin     Total
       1     H     0.27938  0.27938  0.00000  0.44124
       2     O     4.37201  4.37201  0.00000 -0.74403
       3     C     2.99859  2.99859  0.00000  0.00282
       4     C     3.15705  3.15705  0.00000 -0.31410
       5     H     0.43009  0.43009  0.00000  0.13983
       6     H     0.42749  0.42749  0.00000  0.14503
       7     C     3.15397  3.15397  0.00000 -0.30795
       8     H     0.41935  0.41935  0.00000  0.16130
       9     H     0.42566  0.42566  0.00000  0.14867
      10     C     3.15153  3.15153  0.00000 -0.30307
      11     H     0.40745  0.40745  0.00000  0.18510
      12     H     0.42629  0.42629  0.00000  0.14742
      13     C     3.23890  3.23890  0.00000 -0.47780
      14     H     0.42313  0.42313  0.00000  0.15374
      15     H     0.42537  0.42537  0.00000  0.14925
      16     H     0.42077  0.42077  0.00000  0.15847
      17     H     0.42059  0.42059  0.00000  0.15882
      18     H     0.42237  0.42237  0.00000  0.15526

   Total alpha = 25.00000, Total beta = 25.00000, Total charge =  0.00000
