  ==> Input File <==

--------------------------------------------------------------------------
set {
	reference rhf
	basis cc-pvtz
}

set_num_threads( 4 )
memory 2 gb

molecule MOL {
0 1

H	 2.010674	 -0.752985	 -0.693518
O	 1.189535	 -0.697636	 -0.241510
C	 0.700177	 0.619554	 -0.266242
C	 -0.713111	 0.588314	 0.266177
H	 0.697260	 1.008124	 -1.280111
H	 1.309386	 1.271777	 0.354119
O	 -1.421673	 -0.521378	 -0.196983
H	 -1.244794	 1.469161	 -0.069059
H	 -0.685100	 0.604721	 1.352683
H	 -0.933408	 -1.297830	 0.014544

	symmetry c1
}
set optking {
	frozen_dihedral = ("
		5 3 4 7
	")
}

ee = optimize('scf')
oeprop('DIPOLE', 'QUADRUPOLE', 'MULLIKEN_CHARGES')
f=open( 'psi4out.xyz', 'w' )
f.write( "10  " )
f.write( str(ee) + "\n" )
f.write( MOL.save_string_xyz() )
f.close()
--------------------------------------------------------------------------

    Molecular point group: c1
  Charge       = 0
  Multiplicity = 1
  Basis Set: CC-PVTZ
  Basis Set:
  @DF-RHF Final Energy:  -229.02533164258168
    Total Energy =                       -229.0253316425817616
    Molecular point group: c1
  Basis Set: CC-PVTZ
  Basis Set:
  Basis Set: CC-PVTZ
  Basis Set:
  @DF-RHF Final Energy:  -229.02617892764380
    Total Energy =                       -229.0261789276437412
  Basis Set: CC-PVTZ
  Basis Set:
  Basis Set: CC-PVTZ
  Basis Set:
  @DF-RHF Final Energy:  -229.02636498354440
    Total Energy =                       -229.0263649835444539
  Basis Set: CC-PVTZ
  Basis Set:
  Basis Set: CC-PVTZ
  Basis Set:
  @DF-RHF Final Energy:  -229.02637682652315
    Total Energy =                       -229.0263768265231192
  Basis Set: CC-PVTZ
  Basis Set:
  @DF-RHF Final Energy:  -229.02638126129321
    Total Energy =                       -229.0263812612932384
  @DF-RHF Final Energy:  -229.02638335756919
    Total Energy =                       -229.0263833575691024
  @DF-RHF Final Energy:  -228.95623724427026
    Total Energy =                       -228.9562372442702269
  @DF-RHF Final Energy:  -228.96053562091899
    Total Energy =                       -228.9605356209191314
  @DF-RHF Final Energy:  -229.01106437046226
    Total Energy =                       -229.0110643704622930
  @DF-RHF Final Energy:  -229.02249363807951
    Total Energy =                       -229.0224936380794247
  @DF-RHF Final Energy:  -229.02466125604303
    Total Energy =                       -229.0246612560430322
  @DF-RHF Final Energy:  -229.02581783100416
    Total Energy =                       -229.0258178310041330
  Basis Set: CC-PVTZ
  Basis Set:
  @DF-RHF Final Energy:  -229.02632419497132
    Total Energy =                       -229.0263241949712096
  Basis Set: CC-PVTZ
  Basis Set:
  Basis Set: CC-PVTZ
  Basis Set:
  @DF-RHF Final Energy:  -229.02638014178331
    Total Energy =                       -229.0263801417831360
  Basis Set: CC-PVTZ
  Basis Set:
  Basis Set: CC-PVTZ
  Basis Set:
  @DF-RHF Final Energy:  -229.02638339180450
    Total Energy =                       -229.0263833918043588
  Basis Set: CC-PVTZ
  Basis Set:
  Charge       = 0
  Multiplicity = 1
  Basis Set: CC-PVTZ
  Basis Set:

    Orbital Energies (a.u.)
    -----------------------

    Doubly Occupied:

       1A    -20.565525     2A    -20.538452     3A    -11.276721
       4A    -11.267041     5A     -1.390303     6A     -1.353454
       7A     -1.002936     8A     -0.846126     9A     -0.731899
      10A     -0.682466    11A     -0.655282    12A     -0.601404
      13A     -0.580986    14A     -0.539919    15A     -0.491360
      16A     -0.457241    17A     -0.430690

  @DF-RHF Final Energy:  -229.02638359112294

   => Energetics <=

    Nuclear Repulsion Energy =            135.0297168636389813
    One-Electron Energy =                -581.2885958152149897
    Two-Electron Energy =                 217.2324953604530720
    DFT Exchange-Correlation Energy =       0.0000000000000000
    Empirical Dispersion Energy =           0.0000000000000000
    PCM Polarization Energy =               0.0000000000000000
    EFP Energy =                            0.0000000000000000
    Total Energy =                       -229.0263835911229080
    Molecular point group: c1
  Basis Set: CC-PVTZ
  Basis Set:

  -Total Gradient:
     Atom            X                  Y                   Z
    ------   -----------------  -----------------  -----------------
       1       -0.000001082696    -0.000009519489    -0.000003547848
       2        0.000018580865    -0.000018690481    -0.000005801723
       3       -0.000448236729    -0.008430397809    -0.001375830243
       4       -0.002032566325     0.005126764671    -0.004871562682
       5        0.000818683730     0.005999134717     0.002230525108
       6       -0.000004743987     0.000001993931    -0.000001353492
       7        0.001646316966    -0.002649017678     0.004026729881
       8       -0.000003125793    -0.000000342692     0.000004495394
       9       -0.000002107714    -0.000003281624    -0.000002830084
      10        0.000008281682    -0.000016643544    -0.000000824311

  **** Optimization is complete! (in 16 steps) ****
    Final optimized geometry and variables:
    Molecular point group: c1

    Geometry (in Angstrom), charge = 0, multiplicity = 1:

    H            2.102466755667    -0.694167997935    -0.517133638400
    O            1.262621391352    -0.647742848637    -0.100142671094
    C            0.737980092082     0.648374806414    -0.187514218161
    C           -0.673781592173     0.629858173817     0.376970649838
    H            0.738267011817     1.024914404033    -1.206320745042
    H            1.332768444026     1.343396199341     0.400909827054
    O           -1.405604204147    -0.475002030356    -0.054333491608
    H           -1.200187540834     1.522863171513     0.067905024669
    H           -0.618327687666     0.635853922788     1.463227243018
    H           -0.850146524052    -1.233784827713    -0.012764183618

  Mulliken Charges: (a.u.)
   Center  Symbol    Alpha    Beta     Spin     Total
       1     H     0.39076  0.39076  0.00000  0.21849
       2     O     4.20453  4.20453  0.00000 -0.40906
       3     C     2.96860  2.96860  0.00000  0.06281
       4     C     2.96054  2.96054  0.00000  0.07892
       5     H     0.47310  0.47310  0.00000  0.05379
       6     H     0.47404  0.47404  0.00000  0.05192
       7     O     4.20976  4.20976  0.00000 -0.41953
       8     H     0.46060  0.46060  0.00000  0.07881
       9     H     0.47496  0.47496  0.00000  0.05008
      10     H     0.38311  0.38311  0.00000  0.23377

   Total alpha = 17.00000, Total beta = 17.00000, Total charge = -0.00000
