  ==> Input File <==

--------------------------------------------------------------------------
set {
	reference rhf
	basis 6-31G*
}

set_num_threads( 1 )
memory 2 gb

molecule MOL {
0 1

H	 -3.892951	 0.981613	 -0.358725
C	 -3.196921	 0.361773	 0.172313
C	 -2.076860	 -0.007332	 -0.404944
H	 -3.439953	 0.057760	 1.173024
O	 -1.974751	 -0.152153	 -1.752335
H	 -1.173484	 -0.197140	 0.147397
C	 -0.815672	 -0.712322	 -2.266724
C	 -0.891383	 -2.222091	 -2.300759
H	 0.064867	 -0.431131	 -1.699912
H	 -0.703918	 -0.363408	 -3.282724
F	 0.220983	 -2.707352	 -2.832709
F	 -1.013137	 -2.734836	 -1.087458
F	 -1.906714	 -2.650626	 -3.021765

	symmetry c1
}
set optking {
	frozen_dihedral = ("
		11 8 7 9,
		3 5 7 9,
		6 3 5 7
	")
}

ee = energy('scf')
oeprop('DIPOLE', 'QUADRUPOLE', 'MULLIKEN_CHARGES')
f=open( 'psi4out.xyz', 'w' )
f.write( "13  " )
f.write( str(ee) + "\n" )
f.write( MOL.save_string_xyz() )
f.close()
--------------------------------------------------------------------------

    Molecular point group: c1

    Geometry (in Angstrom), charge = 0, multiplicity = 1:

       Center              X                  Y                   Z               Mass
    ------------   -----------------  -----------------  -----------------  -----------------
           H         -2.497662277180     2.466155798117     1.399341837242     1.007825032070
           C         -1.801632277180     1.846315798117     1.930379837242    12.000000000000
           C         -0.681571277180     1.477210798117     1.353122837242    12.000000000000
           H         -2.044664277180     1.542302798117     2.931090837242     1.007825032070
           O         -0.579462277180     1.332389798117     0.005731837242    15.994914619560
           H          0.221804722820     1.287402798117     1.905463837242     1.007825032070
           C          0.579616722820     0.772220798117    -0.508657162758    12.000000000000
           C          0.503905722820    -0.737548201883    -0.542692162758    12.000000000000
           H          1.460155722820     1.053411798117     0.058154837242     1.007825032070
           H          0.691370722820     1.121134798117    -1.524657162758     1.007825032070
           F          1.616271722820    -1.222809201883    -1.074642162758    18.998403224000
           F          0.382151722820    -1.250293201883     0.670608837242    18.998403224000
           F         -0.511425277180    -1.166083201883    -1.263698162758    18.998403224000

  Charge       = 0
  Multiplicity = 1
  Basis Set: 6-31G*
  Basis Set:

    Orbital Energies (a.u.)
    -----------------------

    Doubly Occupied:

       1A    -26.345113     2A    -26.343279     3A    -26.340544
       4A    -20.609420     5A    -11.503660     6A    -11.319871
       7A    -11.302659     8A    -11.212751     9A     -1.741776
      10A     -1.639991    11A     -1.638140    12A     -1.439386
      13A     -1.084706    14A     -1.016347    15A     -0.925445
      16A     -0.836708    17A     -0.830990    18A     -0.821727
      19A     -0.791848    20A     -0.721766    21A     -0.711220
      22A     -0.696258    23A     -0.675815    24A     -0.659993
      25A     -0.654624    26A     -0.643075    27A     -0.634368
      28A     -0.587143    29A     -0.568207    30A     -0.525866
      31A     -0.510872    32A     -0.337464

  @DF-RHF Final Energy:  -527.51528754563060

   => Energetics <=

    Nuclear Repulsion Energy =            413.5077658037747597
    One-Electron Energy =               -1550.7039310196864790
    Two-Electron Energy =                 609.6808776702812338
    DFT Exchange-Correlation Energy =       0.0000000000000000
    Empirical Dispersion Energy =           0.0000000000000000
    PCM Polarization Energy =               0.0000000000000000
    EFP Energy =                            0.0000000000000000
    Total Energy =                       -527.5152875456303718

  Mulliken Charges: (a.u.)
   Center  Symbol    Alpha    Beta     Spin     Total
       1     H     0.40419  0.40419  0.00000  0.19163
       2     C     3.24266  3.24266  0.00000 -0.48532
       3     C     2.89397  2.89397  0.00000  0.21206
       4     H     0.40378  0.40378  0.00000  0.19244
       5     O     4.29821  4.29821  0.00000 -0.59643
       6     H     0.40655  0.40655  0.00000  0.18689
       7     C     3.06453  3.06453  0.00000 -0.12905
       8     C     2.45478  2.45478  0.00000  1.09044
       9     H     0.40531  0.40531  0.00000  0.18938
      10     H     0.38966  0.38966  0.00000  0.22068
      11     F     4.68271  4.68271  0.00000 -0.36543
      12     F     4.67936  4.67936  0.00000 -0.35873
      13     F     4.67429  4.67429  0.00000 -0.34858

   Total alpha = 32.00000, Total beta = 32.00000, Total charge =  0.00000
