  ==> Input File <==

--------------------------------------------------------------------------
set {
	reference rhf
	basis 6-31G*
}

set_num_threads( 1 )
memory 2 gb

molecule MOL {
0 1

H	 -0.000158	 1.970498	 0.756846
O	 -0.000074	 1.880206	 -0.189275
C	 -0.000015	 0.544847	 -0.545111
C	 -1.278788	 -0.123820	 -0.051541
C	 1.278802	 -0.123718	 -0.051505
H	 -0.000001	 0.490777	 -1.623619
F	 -1.011274	 -1.348474	 0.348714
F	 -1.823734	 0.524255	 0.956127
F	 -2.173522	 -0.203031	 -1.023536
F	 2.323327	 0.466644	 -0.591854
F	 1.326242	 -1.401483	 -0.363667
F	 1.388946	 -0.015632	 1.262939

	symmetry c1
}
set optking {
	frozen_dihedral = ("
		6 3 2 1
	")
}

ee = energy('scf')
oeprop('DIPOLE', 'QUADRUPOLE', 'MULLIKEN_CHARGES')
f=open( 'psi4out.xyz', 'w' )
f.write( "12  " )
f.write( str(ee) + "\n" )
f.write( MOL.save_string_xyz() )
f.close()
--------------------------------------------------------------------------

    Molecular point group: c1

    Geometry (in Angstrom), charge = 0, multiplicity = 1:

       Center              X                  Y                   Z               Mass
    ------------   -----------------  -----------------  -----------------  -----------------
           H         -0.003540785262     1.979138211472     0.759786935452     1.007825032070
           O         -0.003456785262     1.888846211472    -0.186334064548    15.994914619560
           C         -0.003397785262     0.553487211472    -0.542170064548    12.000000000000
           C         -1.282170785262    -0.115179788528    -0.048600064548    12.000000000000
           C          1.275419214738    -0.115077788528    -0.048564064548    12.000000000000
           H         -0.003383785262     0.499417211472    -1.620678064548     1.007825032070
           F         -1.014656785262    -1.339833788528     0.351654935452    18.998403224000
           F         -1.827116785262     0.532895211472     0.959067935452    18.998403224000
           F         -2.176904785262    -0.194390788528    -1.020595064548    18.998403224000
           F          2.319944214738     0.475284211472    -0.588913064548    18.998403224000
           F          1.322859214738    -1.392842788528    -0.360726064548    18.998403224000
           F          1.385563214738    -0.006991788528     1.265879935452    18.998403224000

  Charge       = 0
  Multiplicity = 1
  Basis Set: 6-31G*
  Basis Set:

    Orbital Energies (a.u.)
    -----------------------

    Doubly Occupied:

       1A    -26.366295     2A    -26.363192     3A    -26.359132
       4A    -26.358614     5A    -26.358120     6A    -26.357582
       7A    -20.614454     8A    -11.526332     9A    -11.524666
      10A    -11.347673    11A     -1.765625    12A     -1.758057
      13A     -1.663404    14A     -1.658043    15A     -1.657726
      16A     -1.652901    17A     -1.433758    18A     -1.101397
      19A     -0.997148    20A     -0.937860    21A     -0.866044
      22A     -0.860335    23A     -0.851781    24A     -0.845457
      25A     -0.834400    26A     -0.814849    27A     -0.738462
      28A     -0.729624    29A     -0.724801    30A     -0.721926
      31A     -0.688331    32A     -0.687847    33A     -0.681582
      34A     -0.676702    35A     -0.667401    36A     -0.660541
      37A     -0.655848    38A     -0.650011    39A     -0.620747
      40A     -0.549125    41A     -0.505154

  @DF-RHF Final Energy:  -786.27185456698749

   => Energetics <=

    Nuclear Repulsion Energy =            671.6498644703096943
    One-Electron Energy =               -2430.1774787660297079
    Two-Electron Energy =                 972.2557597287332101
    DFT Exchange-Correlation Energy =       0.0000000000000000
    Empirical Dispersion Energy =           0.0000000000000000
    PCM Polarization Energy =               0.0000000000000000
    EFP Energy =                            0.0000000000000000
    Total Energy =                       -786.2718545669868035

  Mulliken Charges: (a.u.)
   Center  Symbol    Alpha    Beta     Spin     Total
       1     H     0.26601  0.26601  0.00000  0.46797
       2     O     4.36195  4.36195  0.00000 -0.72389
       3     C     3.07144  3.07144  0.00000 -0.14289
       4     C     2.42815  2.42815  0.00000  1.14370
       5     C     2.43930  2.43930  0.00000  1.12139
       6     H     0.37097  0.37097  0.00000  0.25805
       7     F     4.67530  4.67530  0.00000 -0.35061
       8     F     4.67556  4.67556  0.00000 -0.35113
       9     F     4.67943  4.67943  0.00000 -0.35887
      10     F     4.67513  4.67513  0.00000 -0.35025
      11     F     4.67443  4.67443  0.00000 -0.34885
      12     F     4.68231  4.68231  0.00000 -0.36463

   Total alpha = 41.00000, Total beta = 41.00000, Total charge =  0.00000
