  ==> Input File <==

--------------------------------------------------------------------------
set {
	reference rhf
	basis 6-31G*
}

set_num_threads( 4 )
memory 2 gb

molecule MOL {
0 1

H	 -3.135461	 -1.215070	 0.001379
O	 -2.310168	 -0.871793	 -0.309793
C	 -2.026376	 0.340750	 0.341611
C	 -0.673256	 0.843270	 -0.132153
H	 -2.792215	 1.080697	 0.115987
H	 -2.013526	 0.200402	 1.421792
C	 0.486613	 -0.083066	 0.235839
H	 -0.715586	 0.970948	 -1.210718
H	 -0.508072	 1.829858	 0.297090
C	 1.840406	 0.433480	 -0.254303
H	 0.300215	 -1.068318	 -0.178947
H	 0.519509	 -0.203625	 1.318070
C	 2.879668	 0.532033	 0.861893
H	 2.213880	 -0.223813	 -1.036736
H	 1.711414	 1.411561	 -0.713827
H	 3.056378	 -0.437695	 1.318282
H	 3.829652	 0.898626	 0.484952
H	 2.550945	 1.209659	 1.645012

	symmetry c1
}
set optking {
	frozen_dihedral = ("
		14 10 7 11
	")
}

ee = optimize('scf')
oeprop('DIPOLE', 'QUADRUPOLE', 'MULLIKEN_CHARGES')
f=open( 'psi4out.xyz', 'w' )
f.write( "18  " )
f.write( str(ee) + "\n" )
f.write( MOL.save_string_xyz() )
f.close()
--------------------------------------------------------------------------

    Molecular point group: c1
  Charge       = 0
  Multiplicity = 1
  Basis Set: 6-31G*
  Basis Set:
  @DF-RHF Final Energy:  -271.17417613073997
    Total Energy =                       -271.1741761307400225
    Molecular point group: c1
  Basis Set: 6-31G*
  Basis Set:
  Basis Set: 6-31G*
  Basis Set:
  @DF-RHF Final Energy:  -271.17440703625005
    Total Energy =                       -271.1744070362499315
  Basis Set: 6-31G*
  Basis Set:
  Basis Set: 6-31G*
  Basis Set:
  @DF-RHF Final Energy:  -271.17448806596133
    Total Energy =                       -271.1744880659610999
  Basis Set: 6-31G*
  Basis Set:
  Charge       = 0
  Multiplicity = 1
  Basis Set: 6-31G*
  Basis Set:

    Orbital Energies (a.u.)
    -----------------------

    Doubly Occupied:

       1A    -20.553086     2A    -11.267777     3A    -11.212235
       4A    -11.210461     5A    -11.206043     6A    -11.205522
       7A     -1.359749     8A     -1.072429     9A     -1.008019
      10A     -0.912579    11A     -0.819503    12A     -0.783120
      13A     -0.705183    14A     -0.637645    15A     -0.619342
      16A     -0.592811    17A     -0.571855    18A     -0.551375
      19A     -0.520339    20A     -0.502817    21A     -0.492319
      22A     -0.465762    23A     -0.452626    24A     -0.447012
      25A     -0.428105

  @DF-RHF Final Energy:  -271.17448826462999

   => Energetics <=

    Nuclear Repulsion Energy =            249.0096350523491537
    One-Electron Energy =                -861.1728231017159487
    Two-Electron Energy =                 340.9886997847368093
    DFT Exchange-Correlation Energy =       0.0000000000000000
    Empirical Dispersion Energy =           0.0000000000000000
    PCM Polarization Energy =               0.0000000000000000
    EFP Energy =                            0.0000000000000000
    Total Energy =                       -271.1744882646299857
    Molecular point group: c1
  Basis Set: 6-31G*
  Basis Set:

  -Total Gradient:
     Atom            X                  Y                   Z
    ------   -----------------  -----------------  -----------------
       1       -0.000001499454    -0.000000479518    -0.000000256747
       2       -0.000004124618     0.000020245996     0.000022638167
       3       -0.000011627655    -0.000006108965    -0.000022627248
       4        0.000031685303    -0.000026644461     0.000032231785
       5       -0.000022734452    -0.000012225066    -0.000002021043
       6       -0.000007355069    -0.000007895979    -0.000008770903
       7        0.001091676588    -0.001053407670     0.001862453791
       8        0.000020126665     0.000016494084    -0.000001045619
       9       -0.000003659242    -0.000005005564     0.000011850031
      10       -0.001107551242     0.001297796514    -0.001696522870
      11       -0.000750569070     0.000692315773    -0.001300776169
      12        0.000011253016     0.000002037012    -0.000002436380
      13       -0.000012133880     0.000002240698    -0.000029842069
      14        0.000777920023    -0.000922930968     0.001143284419
      15       -0.000007266078     0.000001906533     0.000002279225
      16       -0.000014417691     0.000003960626     0.000006463077
      17        0.000012868638    -0.000006312956    -0.000005496433
      18       -0.000002591781     0.000004013912    -0.000011405013

  **** Optimization is complete! (in 4 steps) ****
    Final optimized geometry and variables:
    Molecular point group: c1

    Geometry (in Angstrom), charge = 0, multiplicity = 1:

    H           -3.118228776853    -1.397973825503    -0.136576391072
    O           -2.291911737237    -1.052245985615    -0.442284453844
    C           -2.016812569753     0.162145516995     0.209606740919
    C           -0.662999958608     0.669759558043    -0.256126775042
    H           -2.784396502204     0.898666353320    -0.021460434439
    H           -2.010185558747     0.022934397517     1.290069629950
    C            0.500697629179    -0.250117865111     0.122422401572
    H           -0.697199819106     0.794289656200    -1.335381027053
    H           -0.504143714031     1.658344237489     0.171280102874
    C            1.868423503983     0.267142127631    -0.377176516111
    H            0.300797764044    -1.233828100946    -0.285232070519
    H            0.521125200634    -0.360541897636     1.204737336437
    C            2.922341668944     0.354366573799     0.728119507041
    H            2.243864575046    -0.385908709659    -1.159704738406
    H            1.752355819087     1.248624548598    -0.829707914660
    H            3.091552317992    -0.617064960462     1.184179411332
    H            3.873024958859     0.708514352717     0.340705269133
    H            2.609263813376     1.036413063851     1.514091510188

  Mulliken Charges: (a.u.)
   Center  Symbol    Alpha    Beta     Spin     Total
       1     H     0.28055  0.28055  0.00000  0.43890
       2     O     4.36974  4.36974  0.00000 -0.73948
       3     C     2.99772  2.99772  0.00000  0.00457
       4     C     3.16223  3.16223  0.00000 -0.32446
       5     H     0.42926  0.42926  0.00000  0.14149
       6     H     0.43267  0.43267  0.00000  0.13466
       7     C     3.15788  3.15788  0.00000 -0.31577
       8     H     0.41461  0.41461  0.00000  0.17078
       9     H     0.42426  0.42426  0.00000  0.15148
      10     C     3.15479  3.15479  0.00000 -0.30958
      11     H     0.40474  0.40474  0.00000  0.19052
      12     H     0.42468  0.42468  0.00000  0.15064
      13     C     3.23956  3.23956  0.00000 -0.47913
      14     H     0.41944  0.41944  0.00000  0.16112
      15     H     0.42157  0.42157  0.00000  0.15687
      16     H     0.42145  0.42145  0.00000  0.15710
      17     H     0.42136  0.42136  0.00000  0.15728
      18     H     0.42349  0.42349  0.00000  0.15302

   Total alpha = 25.00000, Total beta = 25.00000, Total charge =  0.00000
