                              Psi4 1.0.54 Driver

  ==> Input File <==

--------------------------------------------------------------------------
set {
	reference rhf
	basis cc-pvtz
}

set_num_threads( 4 )
memory 2 gb

molecule MOL {
0 1

H	 0.524469	 1.865500	 0.430598
O	 0.057669	 1.301365	 -0.158528
C	 0.004145	 -0.005141	 0.363049
C	 1.199168	 -0.827145	 -0.096690
C	 -1.316386	 -0.602081	 -0.083515
H	 0.012026	 0.043363	 1.450619
H	 1.216685	 -0.896776	 -1.178167
H	 2.129940	 -0.372354	 0.228035
H	 1.160783	 -1.829622	 0.314294
H	 -1.357882	 -0.655920	 -1.165207
H	 -2.140147	 0.011735	 0.257253
H	 -1.440790	 -1.601175	 0.317669

	symmetry c1
}
set optking {
	frozen_dihedral = ("
		1 2 3 4
	")
}

ee,wfn = optimize('scf', return_wfn=True)
oeprop( wfn, 'DIPOLE', 'QUADRUPOLE', 'MULLIKEN_CHARGES')
f=open( 'psi4out.xyz', 'w' )
f.write( "12  " )
f.write( str(ee) + "\n" )
f.write( MOL.save_string_xyz() )
f.close()
--------------------------------------------------------------------------

    Molecular point group: c1
  Charge       = 0
  Multiplicity = 1
  Basis Set: CC-PVTZ
  Basis Set:
  @DF-RHF Final Energy:  -193.19494213376726
    Total Energy =                       -193.1949421337673130
    Molecular point group: c1
  Basis Set: CC-PVTZ
  Basis Set:
  Basis Set: CC-PVTZ
  Basis Set:
  @DF-RHF Final Energy:  -193.19502238602126
    Total Energy =                       -193.1950223860212077
  Basis Set: CC-PVTZ
  Basis Set:
  Basis Set: CC-PVTZ
  Basis Set:
  @DF-RHF Final Energy:  -193.19503814559553
    Total Energy =                       -193.1950381455955323
  Basis Set: CC-PVTZ
  Basis Set:
  Charge       = 0
  Multiplicity = 1
  Basis Set: CC-PVTZ
  Basis Set:

    Orbital Energies (a.u.)
    -----------------------

    Doubly Occupied:

       1A    -20.543585     2A    -11.274523     3A    -11.206695
       4A    -11.204681     5A     -1.363583     6A     -1.042846
       7A     -0.937029     8A     -0.800841     9A     -0.712048
      10A     -0.614432    11A     -0.601872    12A     -0.554069
      13A     -0.538368    14A     -0.526569    15A     -0.507791
      16A     -0.466171    17A     -0.432983

  @DF-RHF Final Energy:  -193.19503834546202

   => Energetics <=

    Nuclear Repulsion Energy =            135.5943341643351800
    One-Electron Energy =                -530.9225706986408113
    Two-Electron Energy =                 202.1331981888438349
    DFT Exchange-Correlation Energy =       0.0000000000000000
    Empirical Dispersion Energy =           0.0000000000000000
    PCM Polarization Energy =               0.0000000000000000
    EFP Energy =                            0.0000000000000000
    Total Energy =                       -193.1950383454617963
    Molecular point group: c1
  Basis Set: CC-PVTZ
  Basis Set:

  -Total Gradient:
     Atom            X                  Y                   Z
    ------   -----------------  -----------------  -----------------
       1       -0.001503047255     0.000434673177     0.000775118587
       2        0.001622330946    -0.000658336977    -0.001277558698
       3        0.000451705985     0.000625942955     0.001348724997
       4       -0.000574455964    -0.000350623563    -0.000855181595
       5        0.000005524260    -0.000016455410     0.000010514330
       6       -0.000009813888    -0.000020619732    -0.000003806546
       7        0.000003869240     0.000001789897     0.000001371486
       8       -0.000022186768     0.000008357130     0.000002330068
       9        0.000007095254    -0.000027379628    -0.000004481208
      10        0.000005746204     0.000003589109    -0.000000805417
      11        0.000008093178     0.000003261378     0.000004359008
      12        0.000005138806    -0.000004198335    -0.000000585013

  **** Optimization is complete! (in 4 steps) ****
    Final optimized geometry and variables:
    Molecular point group: c1

    Geometry (in Angstrom), charge = 0, multiplicity = 1:

    H            0.571171589978     1.858812766696     0.408599526060
    O            0.098410815196     1.296983335813    -0.176014063531
    C            0.000433916554    -0.003277584906     0.362214009930
    C            1.185655339848    -0.848638992703    -0.079856554217
    C           -1.322387343383    -0.587052225912    -0.099744753360
    H           -0.007096423279     0.055562315026     1.448088282132
    H            1.211797668492    -0.917347423812    -1.161003636911
    H            2.118574911540    -0.406078225362     0.251441054520
    H            1.123830651751    -1.851106795594     0.329395864376
    H           -1.356949863958    -0.620156229877    -1.182639563184
    H           -2.146364299274     0.023883400489     0.245986251275
    H           -1.453937315767    -1.594081519825     0.279264977850

  Mulliken Charges: (a.u.)
   Center  Symbol    Alpha    Beta     Spin     Total
       1     H     0.39307  0.39307  0.00000  0.21387
       2     O     4.20856  4.20856  0.00000 -0.41713
       3     C     2.92516  2.92516  0.00000  0.14969
       4     C     3.13946  3.13946  0.00000 -0.27892
       5     C     3.13936  3.13936  0.00000 -0.27872
       6     H     0.46695  0.46695  0.00000  0.06609
       7     H     0.45218  0.45218  0.00000  0.09564
       8     H     0.45611  0.45611  0.00000  0.08778
       9     H     0.45852  0.45852  0.00000  0.08296
      10     H     0.45201  0.45201  0.00000  0.09599
      11     H     0.44925  0.44925  0.00000  0.10149
      12     H     0.45937  0.45937  0.00000  0.08125

   Total alpha = 17.00000, Total beta = 17.00000, Total charge = -0.00000

*** Psi4 exiting successfully. Buy a developer a beer!
