  ==> Input File <==

--------------------------------------------------------------------------
set {
	reference rhf
	basis 6-31G*
}

set_num_threads( 1 )
memory 2 gb

molecule MOL {
0 1

O	 -2.821601	 1.309235	 -0.001213
C	 -2.668563	 0.129746	 -0.000350
C	 -3.801572	 -0.864014	 -0.000442
O	 -1.481751	 -0.454642	 0.000584
H	 -4.417280	 -0.689587	 -0.874708
H	 -3.443784	 -1.883046	 -0.000565
H	 -4.417179	 -0.689832	 0.873954
C	 -0.334255	 0.388708	 0.000906
C	 0.891947	 -0.504646	 0.000751
H	 -0.365390	 1.025305	 -0.873475
H	 -0.365484	 1.024911	 0.875569
C	 2.191998	 0.301789	 0.000897
H	 0.855148	 -1.151283	 -0.871571
H	 0.855132	 -1.151660	 0.872805
C	 2.015770	 1.716485	 -0.553994
H	 2.582987	 0.361437	 1.015124
H	 2.944787	 -0.221551	 -0.586050
C	 3.314010	 2.522362	 -0.552579
H	 1.264094	 2.241002	 0.031616
H	 1.627294	 1.658706	 -1.568301
H	 3.709910	 2.626569	 0.453611
H	 3.157121	 3.519793	 -0.951015
H	 4.075711	 2.040095	 -1.158583

	symmetry c1
}
set optking {
	frozen_dihedral = ("
		13 9 8 10,
		2 4 8 10,
		19 15 12 16,
		1 2 4 8
	")
}

ee = energy('scf')
oeprop('DIPOLE', 'QUADRUPOLE', 'MULLIKEN_CHARGES')
f=open( 'psi4out.xyz', 'w' )
f.write( "23  " )
f.write( str(ee) + "\n" )
f.write( MOL.save_string_xyz() )
f.close()
--------------------------------------------------------------------------

    Molecular point group: c1

    Geometry (in Angstrom), charge = 0, multiplicity = 1:

       Center              X                  Y                   Z               Mass
    ------------   -----------------  -----------------  -----------------  -----------------
           O         -2.503432172760     0.796293862383     0.122161848998    15.994914619560
           C         -2.350394172760    -0.383195137617     0.123024848998    12.000000000000
           C         -3.483403172760    -1.376955137617     0.122932848998    12.000000000000
           O         -1.163582172760    -0.967583137617     0.123958848998    15.994914619560
           H         -4.099111172760    -1.202528137617    -0.751333151002     1.007825032070
           H         -3.125615172760    -2.395987137617     0.122809848998     1.007825032070
           H         -4.099010172760    -1.202773137617     0.997328848998     1.007825032070
           C         -0.016086172760    -0.124233137617     0.124280848998    12.000000000000
           C          1.210115827240    -1.017587137617     0.124125848998    12.000000000000
           H         -0.047221172760     0.512363862383    -0.750100151002     1.007825032070
           H         -0.047315172760     0.511969862383     0.998943848998     1.007825032070
           C          2.510166827240    -0.211152137617     0.124271848998    12.000000000000
           H          1.173316827240    -1.664224137617    -0.748196151002     1.007825032070
           H          1.173300827240    -1.664601137617     0.996179848998     1.007825032070
           C          2.333938827240     1.203543862383    -0.430619151002    12.000000000000
           H          2.901155827240    -0.151504137617     1.138498848998     1.007825032070
           H          3.262955827240    -0.734492137617    -0.462675151002     1.007825032070
           C          3.632178827240     2.009420862383    -0.429204151002    12.000000000000
           H          1.582262827240     1.728060862383     0.154990848998     1.007825032070
           H          1.945462827240     1.145764862383    -1.444926151002     1.007825032070
           H          4.028078827240     2.113627862383     0.576985848998     1.007825032070
           H          3.475289827240     3.006851862383    -0.827640151002     1.007825032070
           H          4.393879827240     1.527153862383    -1.035208151002     1.007825032070

  Charge       = 0
  Multiplicity = 1
  Basis Set: 6-31G*
  Basis Set:

    Orbital Energies (a.u.)
    -----------------------

    Doubly Occupied:

       1A    -20.601816     2A    -20.540090     3A    -11.373596
       4A    -11.279869     5A    -11.232050     6A    -11.223119
       7A    -11.222445     8A    -11.221235     9A    -11.212308
      10A     -1.467167    11A     -1.360138    12A     -1.098558
      13A     -1.037683    14A     -1.001511    15A     -0.930820
      16A     -0.856596    17A     -0.791022    18A     -0.773541
      19A     -0.691414    20A     -0.684785    21A     -0.667038
      22A     -0.643089    23A     -0.605440    24A     -0.588538
      25A     -0.578769    26A     -0.571605    27A     -0.567625
      28A     -0.526030    29A     -0.524238    30A     -0.517030
      31A     -0.499845    32A     -0.474218    33A     -0.463958
      34A     -0.458628    35A     -0.446136    36A     -0.435690

  @DF-RHF Final Energy:  -422.96932656644077

   => Energetics <=

    Nuclear Repulsion Energy =            461.4956891308598301
    One-Electron Energy =               -1490.5946423825027978
    Two-Electron Energy =                 606.1296266852031067
    DFT Exchange-Correlation Energy =       0.0000000000000000
    Empirical Dispersion Energy =           0.0000000000000000
    PCM Polarization Energy =               0.0000000000000000
    EFP Energy =                            0.0000000000000000
    Total Energy =                       -422.9693265664399178

  Mulliken Charges: (a.u.)
   Center  Symbol    Alpha    Beta     Spin     Total
       1     O     4.28433  4.28433  0.00000 -0.56866
       2     C     2.61567  2.61567  0.00000  0.76865
       3     C     3.28780  3.28780  0.00000 -0.57561
       4     O     4.31525  4.31525  0.00000 -0.63050
       5     H     0.39764  0.39764  0.00000  0.20471
       6     H     0.39984  0.39984  0.00000  0.20033
       7     H     0.39763  0.39763  0.00000  0.20475
       8     C     3.00047  3.00047  0.00000 -0.00094
       9     C     3.16547  3.16547  0.00000 -0.33094
      10     H     0.40654  0.40654  0.00000  0.18693
      11     H     0.41029  0.41029  0.00000  0.17942
      12     C     3.15831  3.15831  0.00000 -0.31663
      13     H     0.41315  0.41315  0.00000  0.17371
      14     H     0.41170  0.41170  0.00000  0.17659
      15     C     3.16703  3.16703  0.00000 -0.33407
      16     H     0.41909  0.41909  0.00000  0.16183
      17     H     0.41715  0.41715  0.00000  0.16570
      18     C     3.23731  3.23731  0.00000 -0.47462
      19     H     0.41598  0.41598  0.00000  0.16804
      20     H     0.41970  0.41970  0.00000  0.16060
      21     H     0.42102  0.42102  0.00000  0.15797
      22     H     0.41728  0.41728  0.00000  0.16544
      23     H     0.42135  0.42135  0.00000  0.15730

   Total alpha = 36.00000, Total beta = 36.00000, Total charge = -0.00000
