                              Psi4 1.0.54 Driver

  ==> Input File <==

--------------------------------------------------------------------------
set {
	reference rhf
	basis cc-pvtz
}

set_num_threads( 4 )
memory 2 gb

molecule MOL {
0 1

H	 -0.939693	 0.000281	 1.681345
O	 -0.046262	 -0.000157	 1.387678
C	 -0.000837	 0.000006	 -0.025491
C	 -0.234972	 -1.417260	 -0.544804
C	 -1.058106	 0.958008	 -0.570982
C	 1.398458	 0.480952	 -0.384451
H	 -0.169991	 -1.455362	 -1.626062
H	 -1.220139	 -1.773835	 -0.259547
H	 0.501366	 -2.094824	 -0.131069
H	 -1.023211	 1.006899	 -1.653192
H	 -2.054616	 0.634104	 -0.286154
H	 -0.901724	 1.953863	 -0.175657
H	 1.531475	 0.515240	 -1.459355
H	 2.142382	 -0.184750	 0.034631
H	 1.568189	 1.472262	 0.016436

	symmetry c1
}
set optking {
	frozen_dihedral = ("
		4 3 2 1
	")
}

ee,wfn = optimize('scf', return_wfn=True)
oeprop( wfn, 'DIPOLE', 'QUADRUPOLE', 'MULLIKEN_CHARGES')
f=open( 'psi4out.xyz', 'w' )
f.write( "15  " )
f.write( str(ee) + "\n" )
f.write( MOL.save_string_xyz() )
f.close()
--------------------------------------------------------------------------

    Molecular point group: c1
  Charge       = 0
  Multiplicity = 1
  Basis Set: CC-PVTZ
  Basis Set:
  @DF-RHF Final Energy:  -232.24630070031014
    Total Energy =                       -232.2463007003102575
    Molecular point group: c1
  Basis Set: CC-PVTZ
  Basis Set:
  Basis Set: CC-PVTZ
  Basis Set:
  @DF-RHF Final Energy:  -232.24632537436895
    Total Energy =                       -232.2463253743690075
  Basis Set: CC-PVTZ
  Basis Set:
  Basis Set: CC-PVTZ
  Basis Set:
  @DF-RHF Final Energy:  -232.24633418214728
    Total Energy =                       -232.2463341821471658
  Basis Set: CC-PVTZ
  Basis Set:
  Basis Set: CC-PVTZ
  Basis Set:
  @DF-RHF Final Energy:  -232.24633576568195
    Total Energy =                       -232.2463357656818062
  Basis Set: CC-PVTZ
  Basis Set:
  Charge       = 0
  Multiplicity = 1
  Basis Set: CC-PVTZ
  Basis Set:

    Orbital Energies (a.u.)
    -----------------------

    Doubly Occupied:

       1A    -20.541838     2A    -11.280839     3A    -11.212641
       4A    -11.206316     5A    -11.203596     6A     -1.364492
       7A     -1.065339     8A     -0.944035     9A     -0.938549
      10A     -0.778508    11A     -0.672532    12A     -0.624294
      13A     -0.622831    14A     -0.576068    15A     -0.557554
      16A     -0.533136    17A     -0.517028    18A     -0.511334
      19A     -0.504302    20A     -0.458545    21A     -0.428362

  @DF-RHF Final Energy:  -232.24633594152866

   => Energetics <=

    Nuclear Repulsion Energy =            200.6549010071244368
    One-Electron Energy =                -712.7181932452622277
    Two-Electron Energy =                 279.8169562966091917
    DFT Exchange-Correlation Energy =       0.0000000000000000
    Empirical Dispersion Energy =           0.0000000000000000
    PCM Polarization Energy =               0.0000000000000000
    EFP Energy =                            0.0000000000000000
    Total Energy =                       -232.2463359415286277
    Molecular point group: c1
  Basis Set: CC-PVTZ
  Basis Set:

  -Total Gradient:
     Atom            X                  Y                   Z
    ------   -----------------  -----------------  -----------------
       1       -0.000015344745     0.001555528563     0.000016629632
       2        0.000335475987    -0.001964066344     0.000002686630
       3       -0.001248730999     0.000578501680    -0.000009050343
       4        0.000939133605    -0.000145103573     0.000005615575
       5       -0.000018353808    -0.000008298705    -0.000001041953
       6        0.000003286523    -0.000005153684    -0.000008758499
       7       -0.000008341128    -0.000006135445     0.000006798301
       8        0.000001024851     0.000002104502    -0.000001958893
       9        0.000006050385     0.000004002675    -0.000002642586
      10       -0.000002823270    -0.000001253918    -0.000010445617
      11        0.000006994535     0.000010561093     0.000003249784
      12        0.000008274803    -0.000016210036    -0.000001951422
      13        0.000001603867     0.000005347722     0.000003815529
      14       -0.000001104436     0.000002561768     0.000000162256
      15       -0.000007146170    -0.000012386299    -0.000003108390

  **** Optimization is complete! (in 5 steps) ****
    Final optimized geometry and variables:
    Molecular point group: c1

    Geometry (in Angstrom), charge = 0, multiplicity = 1:

    H           -0.936763361728    -0.017874085161     1.686598260566
    O           -0.045316871168    -0.013271685117     1.388630907847
    C           -0.001966609828    -0.001635097529    -0.025435001073
    C           -0.233524358346    -1.418810215006    -0.546650773461
    C           -1.056903189680     0.958747462830    -0.568256828717
    C            1.398582343519     0.476366941432    -0.386627075615
    H           -0.167969190381    -1.456958469209    -1.628199527635
    H           -1.215894778592    -1.778085396912    -0.257707745592
    H            0.505251525981    -2.092754229968    -0.131973434476
    H           -1.018766695526     1.010625728320    -1.649753983250
    H           -2.055152820361     0.633431338835    -0.289596349575
    H           -0.901043324413     1.954529257966    -0.171443733672
    H            1.539861278667     0.486002697363    -1.461069423711
    H            2.140430234249    -0.179137876859     0.051929976006
    H            1.564894228244     1.476189947306    -0.005997879375

  Mulliken Charges: (a.u.)
   Center  Symbol    Alpha    Beta     Spin     Total
       1     H     0.39496  0.39496  0.00000  0.21008
       2     O     4.21200  4.21200  0.00000 -0.42400
       3     C     2.87831  2.87831  0.00000  0.24338
       4     C     3.14677  3.14677  0.00000 -0.29355
       5     C     3.15420  3.15420  0.00000 -0.30840
       6     C     3.14235  3.14235  0.00000 -0.28470
       7     H     0.45714  0.45714  0.00000  0.08573
       8     H     0.45516  0.45516  0.00000  0.08968
       9     H     0.44761  0.44761  0.00000  0.10479
      10     H     0.45357  0.45357  0.00000  0.09287
      11     H     0.45594  0.45594  0.00000  0.08812
      12     H     0.44558  0.44558  0.00000  0.10884
      13     H     0.45898  0.45898  0.00000  0.08204
      14     H     0.44739  0.44739  0.00000  0.10522
      15     H     0.45005  0.45005  0.00000  0.09990

   Total alpha = 21.00000, Total beta = 21.00000, Total charge = -0.00000

*** Psi4 exiting successfully. Buy a developer a beer!
