  ==> Input File <==

--------------------------------------------------------------------------
set {
	reference rhf
	basis 6-31G*
}

set_num_threads( 4 )
memory 2 gb

molecule MOL {
0 1

H	 -1.836216	 1.387520	 -0.000064
C	 -1.301823	 0.443321	 -0.000031
O	 -0.003969	 0.658512	 0.000451
O	 -1.829879	 -0.616434	 -0.000857
C	 0.850537	 -0.484732	 0.000380
C	 2.110825	 -0.109567	 0.749543
H	 1.059549	 -0.763621	 -1.023267
H	 0.332198	 -1.307962	 0.472516
H	 2.612339	 0.721542	 0.267077
H	 2.790756	 -0.954792	 0.772403
H	 1.881632	 0.174599	 1.770135

	symmetry c1
}
set optking {
	frozen_dihedral = ("
		7 5 3 2
	")
}

ee = optimize('scf')
oeprop('DIPOLE', 'QUADRUPOLE', 'MULLIKEN_CHARGES')
f=open( 'psi4out.xyz', 'w' )
f.write( "11  " )
f.write( str(ee) + "\n" )
f.write( MOL.save_string_xyz() )
f.close()
--------------------------------------------------------------------------

    Molecular point group: c1
  Charge       = 0
  Multiplicity = 1
  Basis Set: 6-31G*
  Basis Set:
  @DF-RHF Final Energy:  -266.82754433020500
    Total Energy =                       -266.8275443302050007
    Molecular point group: c1
  Basis Set: 6-31G*
  Basis Set:
  Basis Set: 6-31G*
  Basis Set:
  @DF-RHF Final Energy:  -266.82768665779338
    Total Energy =                       -266.8276866577932651
  Basis Set: 6-31G*
  Basis Set:
  Basis Set: 6-31G*
  Basis Set:
  @DF-RHF Final Energy:  -266.82769638015236
    Total Energy =                       -266.8276963801522470
  Basis Set: 6-31G*
  Basis Set:
  Basis Set: 6-31G*
  Basis Set:
  @DF-RHF Final Energy:  -266.82783591351034
    Total Energy =                       -266.8278359135101709
  Basis Set: 6-31G*
  Basis Set:
  Basis Set: 6-31G*
  Basis Set:
  @DF-RHF Final Energy:  -266.82784023901343
    Total Energy =                       -266.8278402390134829
  Basis Set: 6-31G*
  Basis Set:
  Charge       = 0
  Multiplicity = 1
  Basis Set: 6-31G*
  Basis Set:

    Orbital Energies (a.u.)
    -----------------------

    Doubly Occupied:

       1A    -20.612587     2A    -20.556467     3A    -11.379015
       4A    -11.291334     5A    -11.226723     6A     -1.474922
       7A     -1.374157     8A     -1.052681     9A     -0.904249
      10A     -0.803630    11A     -0.740702    12A     -0.686655
      13A     -0.675621    14A     -0.597128    15A     -0.572935
      16A     -0.556620    17A     -0.525625    18A     -0.508324
      19A     -0.459369    20A     -0.452753

  @DF-RHF Final Energy:  -266.82784119476099

   => Energetics <=

    Nuclear Repulsion Energy =            179.2050552175575717
    One-Electron Energy =                -719.1628021435899427
    Two-Electron Energy =                 273.1299057312714353
    DFT Exchange-Correlation Energy =       0.0000000000000000
    Empirical Dispersion Energy =           0.0000000000000000
    PCM Polarization Energy =               0.0000000000000000
    EFP Energy =                            0.0000000000000000
    Total Energy =                       -266.8278411947608788
    Molecular point group: c1
  Basis Set: 6-31G*
  Basis Set:

  -Total Gradient:
     Atom            X                  Y                   Z
    ------   -----------------  -----------------  -----------------
       1       -0.000005584038     0.000011419909    -0.000004710756
       2       -0.000064302415     0.000035209540     0.001412362492
       3        0.000305199841     0.000119510947    -0.002038196810
       4        0.000043427038     0.000009602140    -0.000010329862
       5       -0.001539198317    -0.001158819191     0.000645284838
       6        0.000024896722    -0.000005733900    -0.000001707864
       7        0.001235556697     0.000964790248    -0.000014543462
       8       -0.000007628291     0.000023990116     0.000004290989
       9        0.000000854547    -0.000001414418     0.000003274158
      10        0.000007005302     0.000002306233     0.000001177274
      11       -0.000000227086    -0.000000861622     0.000003099003

  **** Optimization is complete! (in 6 steps) ****
    Final optimized geometry and variables:
    Molecular point group: c1

    Geometry (in Angstrom), charge = 0, multiplicity = 1:

    H           -1.782268509977     1.429743524437    -0.135514701326
    C           -1.269730201806     0.473806281637    -0.156577610256
    O            0.032266940718     0.666154839040    -0.142836040412
    O           -1.824900633411    -0.571414969406    -0.188085296112
    C            0.894581863143    -0.472407310333    -0.125577105783
    C            2.163083103775    -0.080009907765     0.603635090775
    H            1.106778902215    -0.743570536227    -1.151872146440
    H            0.390340451092    -1.295931152239     0.354520462208
    H            2.640535985424     0.764109535001     0.119631988134
    H            2.858943109538    -0.912775530848     0.606431921881
    H            1.947434701155     0.190840630874     1.630952482731

  Mulliken Charges: (a.u.)
   Center  Symbol    Alpha    Beta     Spin     Total
       1     H     0.41141  0.41141  0.00000  0.17718
       2     C     2.72721  2.72721  0.00000  0.54559
       3     O     4.29182  4.29182  0.00000 -0.58363
       4     O     4.26311  4.26311  0.00000 -0.52622
       5     C     3.01031  3.01031  0.00000 -0.02061
       6     C     3.24816  3.24816  0.00000 -0.49631
       7     H     0.41190  0.41190  0.00000  0.17621
       8     H     0.39874  0.39874  0.00000  0.20251
       9     H     0.41017  0.41017  0.00000  0.17965
      10     H     0.41559  0.41559  0.00000  0.16883
      11     H     0.41160  0.41160  0.00000  0.17681

   Total alpha = 20.00000, Total beta = 20.00000, Total charge = -0.00000
