  ==> Input File <==

--------------------------------------------------------------------------
set {
	reference rhf
	basis cc-pvtz
}

set_num_threads( 4 )
memory 2 gb

molecule MOL {
0 1

O	 0.240334	 1.006699	 0.701753
C	 0.029490	 0.077183	 0.000078
C	 -1.232113	 -0.748027	 0.000015
O	 0.895500	 -0.367014	 -0.895437
C	 -2.501422	 0.088592	 -0.000052
H	 -1.188777	 -1.400384	 -0.865133
H	 -1.188857	 -1.400312	 0.865225
H	 -2.548170	 0.725504	 -0.873205
H	 -3.371613	 -0.556398	 -0.000040
H	 -2.548215	 0.725571	 0.873047
C	 2.127155	 0.317974	 -1.002483
H	 1.966697	 1.350324	 -1.275875
H	 2.683886	 -0.189084	 -1.773695
H	 2.666430	 0.280759	 -0.067580

	symmetry c1
}
set optking {
	frozen_dihedral = ("
		4 2 3 6
	")
}

ee = optimize('scf')
oeprop('DIPOLE', 'QUADRUPOLE', 'MULLIKEN_CHARGES')
f=open( 'psi4out.xyz', 'w' )
f.write( "14  " )
f.write( str(ee) + "\n" )
f.write( MOL.save_string_xyz() )
f.close()
--------------------------------------------------------------------------

    Molecular point group: c1
  Charge       = 0
  Multiplicity = 1
  Basis Set: CC-PVTZ
  Basis Set:
  @DF-RHF Final Energy:  -305.98586025533552
    Total Energy =                       -305.9858602553357514
    Molecular point group: c1
  Basis Set: CC-PVTZ
  Basis Set:
  Basis Set: CC-PVTZ
  Basis Set:
  @DF-RHF Final Energy:  -305.98629551332374
    Total Energy =                       -305.9862955133235687
  Basis Set: CC-PVTZ
  Basis Set:
  Basis Set: CC-PVTZ
  Basis Set:
  @DF-RHF Final Energy:  -305.98613816324064
    Total Energy =                       -305.9861381632406392
  Basis Set: CC-PVTZ
  Basis Set:
  Basis Set: CC-PVTZ
  Basis Set:
  @DF-RHF Final Energy:  -305.98632692510910
    Total Energy =                       -305.9863269251091538
  Basis Set: CC-PVTZ
  Basis Set:
  Basis Set: CC-PVTZ
  Basis Set:
  @DF-RHF Final Energy:  -305.98633033145586
    Total Energy =                       -305.9863303314560312
  Basis Set: CC-PVTZ
  Basis Set:
  Charge       = 0
  Multiplicity = 1
  Basis Set: CC-PVTZ
  Basis Set:

    Orbital Energies (a.u.)
    -----------------------

    Doubly Occupied:

       1A    -20.599505     2A    -20.532563     3A    -11.365161
       4A    -11.279297     5A    -11.236298     6A    -11.219198
       7A     -1.473667     8A     -1.365866     9A     -1.065371
      10A     -0.981230    11A     -0.880503    12A     -0.773646
      13A     -0.701648    14A     -0.684613    15A     -0.675675
      16A     -0.619464    17A     -0.603359    18A     -0.558130
      19A     -0.540015    20A     -0.519733    21A     -0.514234
      22A     -0.498376    23A     -0.460419    24A     -0.440515

  @DF-RHF Final Energy:  -305.98633060812421

   => Energetics <=

    Nuclear Repulsion Energy =            247.6241649515662289
    One-Electron Energy =                -908.0440218536358543
    Two-Electron Energy =                 354.4335262939451923
    DFT Exchange-Correlation Energy =       0.0000000000000000
    Empirical Dispersion Energy =           0.0000000000000000
    PCM Polarization Energy =               0.0000000000000000
    EFP Energy =                            0.0000000000000000
    Total Energy =                       -305.9863306081243763
    Molecular point group: c1
  Basis Set: CC-PVTZ
  Basis Set:

  -Total Gradient:
     Atom            X                  Y                   Z
    ------   -----------------  -----------------  -----------------
       1        0.000029226742    -0.000026344250    -0.000031059482
       2        0.000518300130    -0.000805724837     0.001000241167
       3       -0.000728419994     0.001065686764    -0.000953212823
       4       -0.000303336873     0.000506366271    -0.000594571195
       5        0.000022347227    -0.000004165104     0.000030424608
       6        0.000482604819    -0.000746766720     0.000556743046
       7       -0.000010071804     0.000012000636    -0.000007336987
       8        0.000015998378    -0.000016835048     0.000004997849
       9        0.000007862758    -0.000005085972    -0.000002956123
      10       -0.000012819714     0.000016944029     0.000008934168
      11       -0.000038121054     0.000003867598    -0.000016122591
      12        0.000012796106     0.000005485767    -0.000001629160
      13        0.000006009876    -0.000000478767     0.000001136141
      14       -0.000002376592    -0.000004950367     0.000004411382

  **** Optimization is complete! (in 6 steps) ****
    Final optimized geometry and variables:
    Molecular point group: c1

    Geometry (in Angstrom), charge = 0, multiplicity = 1:

    O            0.266070117122     0.919663177951     0.899344257205
    C            0.073995462951    -0.006253558126     0.186136604492
    C           -1.185576549368    -0.837327354946     0.192852341116
    O            0.955738646100    -0.431370081337    -0.701041656401
    C           -2.446119556257     0.020593918131     0.228953580683
    H           -1.178230635016    -1.506673309326    -0.655014510107
    H           -1.135275860686    -1.452409656998     1.085830963712
    H           -2.532575994413     0.625065866401    -0.666309763833
    H           -3.324207665250    -0.609633499018     0.293164611581
    H           -2.433482429045     0.683735066415     1.082202496690
    C            2.189481022131     0.256242698079    -0.767865620817
    H            2.033350126555     1.293719052021    -1.023019433094
    H            2.762298049405    -0.235167661021    -1.537389739790
    H            2.708289314824     0.199925602894     0.177506084517

  Mulliken Charges: (a.u.)
   Center  Symbol    Alpha    Beta     Spin     Total
       1     O     4.20266  4.20266  0.00000 -0.40531
       2     C     2.80598  2.80598  0.00000  0.38804
       3     C     3.08709  3.08709  0.00000 -0.17417
       4     O     4.14369  4.14369  0.00000 -0.28738
       5     C     3.14370  3.14370  0.00000 -0.28740
       6     H     0.43847  0.43847  0.00000  0.12306
       7     H     0.44648  0.44648  0.00000  0.10705
       8     H     0.45342  0.45342  0.00000  0.09317
       9     H     0.44962  0.44962  0.00000  0.10076
      10     H     0.44155  0.44155  0.00000  0.11690
      11     C     3.03386  3.03386  0.00000 -0.06772
      12     H     0.45399  0.45399  0.00000  0.09201
      13     H     0.44520  0.44520  0.00000  0.10960
      14     H     0.45430  0.45430  0.00000  0.09141

   Total alpha = 24.00000, Total beta = 24.00000, Total charge =  0.00000
