  ==> Input File <==

--------------------------------------------------------------------------
set {
	reference rhf
	basis 6-31G*
}

set_num_threads( 4 )
memory 2 gb

molecule MOL {
0 1

H	 0.604851	 0.933309	 2.340673
C	 1.288223	 0.615512	 1.543924
C	 0.692068	 0.589600	 0.160137
O	 2.410475	 0.322172	 1.802056
C	 -0.558097	 -0.297372	 0.091132
H	 1.454669	 0.252485	 -0.532160
H	 0.424151	 1.611695	 -0.105138
C	 -1.850991	 0.512573	 -0.019058
H	 -0.476753	 -0.965681	 -0.762987
H	 -0.604799	 -0.930658	 0.975228
C	 -3.096943	 -0.368295	 -0.099594
H	 -1.800724	 1.150330	 -0.898172
H	 -1.931651	 1.177355	 0.838044
H	 -3.060452	 -1.020287	 -0.967456
H	 -3.996858	 0.233488	 -0.175704
H	 -3.191959	 -0.995686	 0.782074

	symmetry c1
}
set optking {
	frozen_dihedral = ("
		6 3 5 9
	")
}

ee = optimize('scf')
oeprop('DIPOLE', 'QUADRUPOLE', 'MULLIKEN_CHARGES')
f=open( 'psi4out.xyz', 'w' )
f.write( "16  " )
f.write( str(ee) + "\n" )
f.write( MOL.save_string_xyz() )
f.close()
--------------------------------------------------------------------------

    Molecular point group: c1
  Charge       = 0
  Multiplicity = 1
  Basis Set: 6-31G*
  Basis Set:
  @DF-RHF Final Energy:  -270.01508159358656
    Total Energy =                       -270.0150815935865012
    Molecular point group: c1
  Basis Set: 6-31G*
  Basis Set:
  Basis Set: 6-31G*
  Basis Set:
  @DF-RHF Final Energy:  -270.01463778089544
    Total Energy =                       -270.0146377808951570
  Basis Set: 6-31G*
  Basis Set:
  Basis Set: 6-31G*
  Basis Set:
  @DF-RHF Final Energy:  -270.01313199613901
    Total Energy =                       -270.0131319961392364
  Basis Set: 6-31G*
  Basis Set:
  Basis Set: 6-31G*
  Basis Set:
  @DF-RHF Final Energy:  -270.01549059026621
    Total Energy =                       -270.0154905902663813
  Basis Set: 6-31G*
  Basis Set:
  @DF-RHF Final Energy:  -270.01548981358286
    Total Energy =                       -270.0154898135832013
  Basis Set: 6-31G*
  Basis Set:
  @DF-RHF Final Energy:  -270.01556393730948
    Total Energy =                       -270.0155639373095937
  Basis Set: 6-31G*
  Basis Set:
  Basis Set: 6-31G*
  Basis Set:
  @DF-RHF Final Energy:  -270.01557852392637
    Total Energy =                       -270.0155785239263651
  Basis Set: 6-31G*
  Basis Set:
  Basis Set: 6-31G*
  Basis Set:
  @DF-RHF Final Energy:  -270.01558424329880
    Total Energy =                       -270.0155842432986901
  Basis Set: 6-31G*
  Basis Set:
  Charge       = 0
  Multiplicity = 1
  Basis Set: 6-31G*
  Basis Set:

    Orbital Energies (a.u.)
    -----------------------

    Doubly Occupied:

       1A    -20.561944     2A    -11.327188     3A    -11.236251
       4A    -11.235180     5A    -11.231082     6A    -11.219506
       7A     -1.402376     8A     -1.095744     9A     -1.018211
      10A     -0.906348    11A     -0.819253    12A     -0.792982
      13A     -0.668029    14A     -0.656106    15A     -0.616097
      16A     -0.609765    17A     -0.582311    18A     -0.555886
      19A     -0.535965    20A     -0.506392    21A     -0.484374
      22A     -0.483021    23A     -0.474759    24A     -0.410018

  @DF-RHF Final Energy:  -270.01558511964436

   => Energetics <=

    Nuclear Repulsion Energy =            229.6744748232473796
    One-Electron Energy =                -820.5225440878498375
    Two-Electron Energy =                 320.8324841449582436
    DFT Exchange-Correlation Energy =       0.0000000000000000
    Empirical Dispersion Energy =           0.0000000000000000
    PCM Polarization Energy =               0.0000000000000000
    EFP Energy =                            0.0000000000000000
    Total Energy =                       -270.0155851196442427
    Molecular point group: c1
  Basis Set: 6-31G*
  Basis Set:

  -Total Gradient:
     Atom            X                  Y                   Z
    ------   -----------------  -----------------  -----------------
       1       -0.000029668515     0.000007305460    -0.000033193298
       2        0.000018879757    -0.000030003656     0.000007707122
       3        0.001131918246    -0.001894399709     0.002167655485
       4        0.000009902070     0.000008735501    -0.000024507819
       5       -0.001265516220     0.002061902027    -0.001819126249
       6       -0.000739054741     0.001252790728    -0.001457696990
       7        0.000007573288     0.000012301839    -0.000001092951
       8        0.000013457976    -0.000007232211    -0.000014981495
       9        0.000853388063    -0.001393336587     0.001167635078
      10       -0.000004894757    -0.000003597338     0.000000082374
      11       -0.000006027860    -0.000003532418     0.000001823963
      12       -0.000001918948     0.000003542693    -0.000000876697
      13        0.000015678394    -0.000017854473    -0.000000666112
      14        0.000009172795     0.000000862521     0.000010539164
      15       -0.000005546954    -0.000000486454    -0.000007389600
      16       -0.000007342596     0.000003002075     0.000004088026

  **** Optimization is complete! (in 9 steps) ****
    Final optimized geometry and variables:
    Molecular point group: c1

    Geometry (in Angstrom), charge = 0, multiplicity = 1:

    H            0.738780322277     0.503129290755     1.769709915444
    C            1.472671505177     0.360674659213     0.966925805953
    C            0.898917489462     0.305987870332    -0.425736417147
    O            2.628619917043     0.267584759806     1.224366875456
    C           -0.379583275276    -0.555779832780    -0.517700280281
    H            1.673886630493    -0.034783069470    -1.100907364268
    H            0.670345715879     1.331967543521    -0.712549405433
    C           -1.670784095579     0.259000500041    -0.613246993005
    H           -0.299558630075    -1.221609226762    -1.371091431002
    H           -0.440954525933    -1.212651476949     0.348934773812
    C           -2.921974332856    -0.614922452604    -0.673579664394
    H           -1.626816024487     0.893120339375    -1.495846748815
    H           -1.739020706832     0.930427528078     0.240693414390
    H           -2.895483019848    -1.276996854368    -1.534246709597
    H           -3.819352255110    -0.009380248228    -0.749356380886
    H           -3.013216176727    -1.232347705968     0.215412885845

  Mulliken Charges: (a.u.)
   Center  Symbol    Alpha    Beta     Spin     Total
       1     H     0.43179  0.43179  0.00000  0.13643
       2     C     2.83056  2.83056  0.00000  0.33887
       3     C     3.21174  3.21174  0.00000 -0.42348
       4     O     4.23896  4.23896  0.00000 -0.47792
       5     C     3.16729  3.16729  0.00000 -0.33457
       6     H     0.39599  0.39599  0.00000  0.20803
       7     H     0.40441  0.40441  0.00000  0.19118
       8     C     3.15425  3.15425  0.00000 -0.30850
       9     H     0.41053  0.41053  0.00000  0.17894
      10     H     0.41686  0.41686  0.00000  0.16628
      11     C     3.24093  3.24093  0.00000 -0.48185
      12     H     0.41906  0.41906  0.00000  0.16189
      13     H     0.42220  0.42220  0.00000  0.15560
      14     H     0.41939  0.41939  0.00000  0.16122
      15     H     0.41629  0.41629  0.00000  0.16743
      16     H     0.41976  0.41976  0.00000  0.16047

   Total alpha = 24.00000, Total beta = 24.00000, Total charge =  0.00000
