  ==> Input File <==

--------------------------------------------------------------------------
set {
	reference rhf
	basis 6-31G*
}

set_num_threads( 1 )
memory 2 gb

molecule MOL {
0 1

O	 -2.821601	 1.309235	 -0.001213
C	 -2.668563	 0.129746	 -0.000350
C	 -3.801572	 -0.864014	 -0.000442
O	 -1.481751	 -0.454642	 0.000584
H	 -4.417280	 -0.689587	 -0.874708
H	 -3.443784	 -1.883046	 -0.000565
H	 -4.417179	 -0.689832	 0.873954
C	 -0.334255	 0.388708	 0.000906
C	 0.891947	 -0.504646	 0.000751
H	 -0.365390	 1.025305	 -0.873475
H	 -0.365484	 1.024911	 0.875569
C	 2.191998	 0.301789	 0.000897
H	 0.855148	 -1.151283	 -0.871571
H	 0.855132	 -1.151660	 0.872805
C	 2.363578	 1.155913	 -1.256624
H	 2.220191	 0.946325	 0.877746
H	 3.039838	 -0.374904	 0.092211
C	 3.661447	 1.962387	 -1.255814
H	 1.517356	 1.832971	 -1.349228
H	 2.337958	 0.513149	 -2.133703
H	 3.701626	 2.640079	 -0.407797
H	 3.754344	 2.557230	 -2.159013
H	 4.528382	 1.310352	 -1.198514

	symmetry c1
}
set optking {
	frozen_dihedral = ("
		13 9 8 10,
		2 4 8 10,
		19 15 12 16,
		1 2 4 8
	")
}

ee = energy('scf')
oeprop('DIPOLE', 'QUADRUPOLE', 'MULLIKEN_CHARGES')
f=open( 'psi4out.xyz', 'w' )
f.write( "23  " )
f.write( str(ee) + "\n" )
f.write( MOL.save_string_xyz() )
f.close()
--------------------------------------------------------------------------

    Molecular point group: c1

    Geometry (in Angstrom), charge = 0, multiplicity = 1:

       Center              X                  Y                   Z               Mass
    ------------   -----------------  -----------------  -----------------  -----------------
           O         -2.581021545549     0.921346954659     0.279061771881    15.994914619560
           C         -2.427983545549    -0.258142045341     0.279924771881    12.000000000000
           C         -3.560992545549    -1.251902045341     0.279832771881    12.000000000000
           O         -1.241171545549    -0.842530045341     0.280858771881    15.994914619560
           H         -4.176700545549    -1.077475045341    -0.594433228119     1.007825032070
           H         -3.203204545549    -2.270934045341     0.279709771881     1.007825032070
           H         -4.176599545549    -1.077720045341     1.154228771881     1.007825032070
           C         -0.093675545549     0.000819954659     0.281180771881    12.000000000000
           C          1.132526454451    -0.892534045341     0.281025771881    12.000000000000
           H         -0.124810545549     0.637416954659    -0.593200228119     1.007825032070
           H         -0.124904545549     0.637022954659     1.155843771881     1.007825032070
           C          2.432577454451    -0.086099045341     0.281171771881    12.000000000000
           H          1.095727454451    -1.539171045341    -0.591296228119     1.007825032070
           H          1.095711454451    -1.539548045341     1.153079771881     1.007825032070
           C          2.604157454451     0.768024954659    -0.976349228119    12.000000000000
           H          2.460770454451     0.558436954659     1.158020771881     1.007825032070
           H          3.280417454451    -0.762792045341     0.372485771881     1.007825032070
           C          3.902026454451     1.574498954659    -0.975539228119    12.000000000000
           H          1.757935454451     1.445082954659    -1.068953228119     1.007825032070
           H          2.578537454451     0.125260954659    -1.853428228119     1.007825032070
           H          3.942205454451     2.252190954659    -0.127522228119     1.007825032070
           H          3.994923454451     2.169341954659    -1.878738228119     1.007825032070
           H          4.768961454451     0.922463954659    -0.918239228119     1.007825032070

  Charge       = 0
  Multiplicity = 1
  Basis Set: 6-31G*
  Basis Set:

    Orbital Energies (a.u.)
    -----------------------

    Doubly Occupied:

       1A    -20.602873     2A    -20.540532     3A    -11.374080
       4A    -11.280724     5A    -11.232375     6A    -11.224208
       7A    -11.223553     8A    -11.221154     9A    -11.212786
      10A     -1.467862    11A     -1.360692    12A     -1.096458
      13A     -1.039770    14A     -1.002509    15A     -0.931018
      16A     -0.850073    17A     -0.791583    18A     -0.780621
      19A     -0.688511    20A     -0.684692    21A     -0.672134
      22A     -0.635445    23A     -0.614466    24A     -0.587408
      25A     -0.577810    26A     -0.573089    27A     -0.563012
      28A     -0.528623    29A     -0.527102    30A     -0.511834
      31A     -0.494558    32A     -0.476697    33A     -0.469248
      34A     -0.461360    35A     -0.448072    36A     -0.435873

  @DF-RHF Final Energy:  -422.97697870896775

   => Energetics <=

    Nuclear Repulsion Energy =            457.6681611766266542
    One-Electron Energy =               -1482.9247449220908948
    Two-Electron Energy =                 602.2796050364947860
    DFT Exchange-Correlation Energy =       0.0000000000000000
    Empirical Dispersion Energy =           0.0000000000000000
    PCM Polarization Energy =               0.0000000000000000
    EFP Energy =                            0.0000000000000000
    Total Energy =                       -422.9769787089694546

  Mulliken Charges: (a.u.)
   Center  Symbol    Alpha    Beta     Spin     Total
       1     O     4.28411  4.28411  0.00000 -0.56822
       2     C     2.61535  2.61535  0.00000  0.76930
       3     C     3.28781  3.28781  0.00000 -0.57562
       4     O     4.31311  4.31311  0.00000 -0.62622
       5     H     0.39753  0.39753  0.00000  0.20494
       6     H     0.39982  0.39982  0.00000  0.20035
       7     H     0.39751  0.39751  0.00000  0.20498
       8     C     2.99778  2.99778  0.00000  0.00444
       9     C     3.16552  3.16552  0.00000 -0.33103
      10     H     0.40851  0.40851  0.00000  0.18298
      11     H     0.41096  0.41096  0.00000  0.17807
      12     C     3.16112  3.16112  0.00000 -0.32224
      13     H     0.41450  0.41450  0.00000  0.17099
      14     H     0.41213  0.41213  0.00000  0.17575
      15     C     3.15744  3.15744  0.00000 -0.31487
      16     H     0.42098  0.42098  0.00000  0.15803
      17     H     0.41676  0.41676  0.00000  0.16647
      18     C     3.23881  3.23881  0.00000 -0.47763
      19     H     0.41968  0.41968  0.00000  0.16065
      20     H     0.42109  0.42109  0.00000  0.15781
      21     H     0.42058  0.42058  0.00000  0.15884
      22     H     0.41764  0.41764  0.00000  0.16472
      23     H     0.42125  0.42125  0.00000  0.15750

   Total alpha = 36.00000, Total beta = 36.00000, Total charge = -0.00000
