  ==> Input File <==

--------------------------------------------------------------------------
set {
	reference rhf
	basis cc-pvtz
}

set_num_threads( 4 )
memory 2 gb

molecule MOL {
0 1

H	 2.530730	 -0.737254	 0.382000
O	 2.063695	 -0.083403	 -0.105237
C	 0.742924	 0.005675	 0.350750
H	 0.731380	 0.039219	 1.440080
C	 -0.064076	 -1.193495	 -0.124425
C	 -0.047832	 1.190568	 -0.194462
H	 0.194729	 -1.376165	 -1.161308
H	 0.163013	 -2.094508	 0.429933
C	 -1.533112	 -0.752002	 0.006102
H	 0.148003	 1.266545	 -1.259275
H	 0.226235	 2.136493	 0.259722
C	 -1.506634	 0.799189	 0.067162
H	 -2.124360	 -1.110499	 -0.826089
H	 -1.983103	 -1.158030	 0.903403
H	 -2.183808	 1.252169	 -0.644677
H	 -1.813926	 1.138698	 1.049457

	symmetry c1
}
set optking {
	frozen_dihedral = ("
		1 2 3 6
	")
}

ee = optimize('scf')
oeprop('DIPOLE', 'QUADRUPOLE', 'MULLIKEN_CHARGES')
f=open( 'psi4out.xyz', 'w' )
f.write( "16  " )
f.write( str(ee) + "\n" )
f.write( MOL.save_string_xyz() )
f.close()
--------------------------------------------------------------------------

    Molecular point group: c1
  Charge       = 0
  Multiplicity = 1
  Basis Set: CC-PVTZ
  Basis Set:
  @DF-RHF Final Energy:  -270.11517055132344
    Total Energy =                       -270.1151705513233878
    Molecular point group: c1
  Basis Set: CC-PVTZ
  Basis Set:
  Basis Set: CC-PVTZ
  Basis Set:
  @DF-RHF Final Energy:  -270.11667474291983
    Total Energy =                       -270.1166747429199404
  Basis Set: CC-PVTZ
  Basis Set:
  Basis Set: CC-PVTZ
  Basis Set:
  @DF-RHF Final Energy:  -270.11680755878058
    Total Energy =                       -270.1168075587805788
  Basis Set: CC-PVTZ
  Basis Set:
  Basis Set: CC-PVTZ
  Basis Set:
  @DF-RHF Final Energy:  -270.11681299594892
    Total Energy =                       -270.1168129959487487
  Basis Set: CC-PVTZ
  Basis Set:
  @DF-RHF Final Energy:  -270.11681542481170
    Total Energy =                       -270.1168154248118753
  @DF-RHF Final Energy:  -270.11682250006629
    Total Energy =                       -270.1168225000662346
  @DF-RHF Final Energy:  -270.11682982787408
    Total Energy =                       -270.1168298278739712
  Basis Set: CC-PVTZ
  Basis Set:
  @DF-RHF Final Energy:  -270.11683214595166
    Total Energy =                       -270.1168321459516619
  Basis Set: CC-PVTZ
  Basis Set:
  Basis Set: CC-PVTZ
  Basis Set:
  @DF-RHF Final Energy:  -270.11683382836219
    Total Energy =                       -270.1168338283621893
  Basis Set: CC-PVTZ
  Basis Set:
  Basis Set: CC-PVTZ
  Basis Set:
  @DF-RHF Final Energy:  -270.11683546408221
    Total Energy =                       -270.1168354640822145
  Basis Set: CC-PVTZ
  Basis Set:
  Charge       = 0
  Multiplicity = 1
  Basis Set: CC-PVTZ
  Basis Set:

    Orbital Energies (a.u.)
    -----------------------

    Doubly Occupied:

       1A    -20.545938     2A    -11.267391     3A    -11.214376
       4A    -11.213041     5A    -11.209152     6A    -11.206835
       7A     -1.365841     8A     -1.114472     9A     -0.966220
      10A     -0.949188    11A     -0.786995    12A     -0.778823
      13A     -0.708377    14A     -0.657302    15A     -0.621241
      16A     -0.586903    17A     -0.564940    18A     -0.525775
      19A     -0.511136    20A     -0.481045    21A     -0.470586
      22A     -0.455564    23A     -0.451616    24A     -0.420064

  @DF-RHF Final Energy:  -270.11683587071707

   => Energetics <=

    Nuclear Repulsion Energy =            255.5303318432030721
    One-Electron Energy =                -873.1486943234940554
    Two-Electron Energy =                 347.5015266095741140
    DFT Exchange-Correlation Energy =       0.0000000000000000
    Empirical Dispersion Energy =           0.0000000000000000
    PCM Polarization Energy =               0.0000000000000000
    EFP Energy =                            0.0000000000000000
    Total Energy =                       -270.1168358707168977
    Molecular point group: c1
  Basis Set: CC-PVTZ
  Basis Set:

  -Total Gradient:
     Atom            X                  Y                   Z
    ------   -----------------  -----------------  -----------------
       1        0.000136919900     0.000393333908     0.000419257441
       2       -0.000131135168    -0.000407227329    -0.000401898393
       3       -0.000102454119    -0.000167945329    -0.000315673508
       4       -0.000000457915    -0.000002906831     0.000000088118
       5       -0.000000835619     0.000005776233     0.000004063176
       6        0.000094231034     0.000195427578     0.000297635991
       7       -0.000000105511    -0.000015480176     0.000001974971
       8        0.000000576441     0.000005981798     0.000012116231
       9        0.000003586720    -0.000002991954     0.000007437630
      10        0.000000165394    -0.000016071866    -0.000001452877
      11       -0.000000726481     0.000008714813    -0.000014627118
      12        0.000000368389     0.000004386550    -0.000011223118
      13        0.000017233096     0.000009885130    -0.000018592550
      14       -0.000022137834    -0.000010313564    -0.000013964574
      15       -0.000016940209     0.000012406147     0.000021244441
      16        0.000021711886    -0.000012975109     0.000013614138

  **** Optimization is complete! (in 11 steps) ****
    Final optimized geometry and variables:
    Molecular point group: c1

    Geometry (in Angstrom), charge = 0, multiplicity = 1:

    H            2.572642948084    -0.645023276010     0.348457819332
    O            2.065849834891     0.007355321766    -0.099009517535
    C            0.740568791670    -0.015390114704     0.352802821451
    H            0.722923550813     0.003021738113     1.442293096341
    C           -0.083817627595    -1.198691905463    -0.147096779474
    C           -0.026560018105     1.185392753354    -0.176537511854
    H            0.150886936515    -1.348741954278    -1.195436850125
    H            0.136847153246    -2.123977807540     0.373169341886
    C           -1.541794664279    -0.744595304288     0.028220965872
    H            0.201994750807     1.288714037951    -1.231991416314
    H            0.253928222658     2.110125426293     0.310457794439
    C           -1.499698079419     0.808439902933     0.032433259248
    H           -2.174969471709    -1.132216960611    -0.758783387164
    H           -1.948408981796    -1.112071223095     0.962506006489
    H           -2.135596532121     1.236116493791    -0.731167496710
    H           -1.855829577638     1.188730717898     0.982343825974

  Mulliken Charges: (a.u.)
   Center  Symbol    Alpha    Beta     Spin     Total
       1     H     0.39567  0.39567  0.00000  0.20865
       2     O     4.19968  4.19968  0.00000 -0.39935
       3     C     2.92223  2.92223  0.00000  0.15553
       4     H     0.46729  0.46729  0.00000  0.06542
       5     C     3.10426  3.10426  0.00000 -0.20852
       6     C     3.09840  3.09840  0.00000 -0.19680
       7     H     0.45295  0.45295  0.00000  0.09410
       8     H     0.44966  0.44966  0.00000  0.10068
       9     C     3.11392  3.11392  0.00000 -0.22784
      10     H     0.45218  0.45218  0.00000  0.09565
      11     H     0.44475  0.44475  0.00000  0.11050
      12     C     3.11098  3.11098  0.00000 -0.22196
      13     H     0.44440  0.44440  0.00000  0.11121
      14     H     0.44929  0.44929  0.00000  0.10142
      15     H     0.44432  0.44432  0.00000  0.11136
      16     H     0.45002  0.45002  0.00000  0.09995

   Total alpha = 24.00000, Total beta = 24.00000, Total charge = -0.00000
