  ==> Input File <==

--------------------------------------------------------------------------
set {
	reference rhf
	basis 6-31G*
}

set_num_threads( 4 )
memory 2 gb

molecule MOL {
0 1

H	 -3.093235	 0.218134	 -0.205288
O	 -2.347518	 -0.290803	 0.079804
C	 -1.184022	 0.487508	 -0.006784
C	 0.062599	 -0.378592	 0.031606
H	 -1.176523	 1.099369	 -0.904519
H	 -1.187323	 1.153111	 0.844927
O	 1.171513	 0.459272	 -0.058250
H	 0.050699	 -1.089204	 -0.797170
H	 0.078739	 -0.954914	 0.954740
C	 2.397842	 -0.198080	 -0.002151
H	 2.508049	 -0.905315	 -0.822092
H	 3.173794	 0.550865	 -0.078850
H	 2.517602	 -0.735921	 0.936026

	symmetry c1
}
set optking {
	frozen_dihedral = ("
		1 2 3 5
	")
}

ee = optimize('scf')
oeprop('DIPOLE', 'QUADRUPOLE', 'MULLIKEN_CHARGES')
f=open( 'psi4out.xyz', 'w' )
f.write( "13  " )
f.write( str(ee) + "\n" )
f.write( MOL.save_string_xyz() )
f.close()
--------------------------------------------------------------------------

    Molecular point group: c1
  Charge       = 0
  Multiplicity = 1
  Basis Set: 6-31G*
  Basis Set:
  @DF-RHF Final Energy:  -267.94923672294885
    Total Energy =                       -267.9492367229485126
    Molecular point group: c1
  Basis Set: 6-31G*
  Basis Set:
  Basis Set: 6-31G*
  Basis Set:
  @DF-RHF Final Energy:  -267.95037296908095
    Total Energy =                       -267.9503729690809450
  Basis Set: 6-31G*
  Basis Set:
  Basis Set: 6-31G*
  Basis Set:
  @DF-RHF Final Energy:  -267.95068845582387
    Total Energy =                       -267.9506884558237516
  Basis Set: 6-31G*
  Basis Set:
  Basis Set: 6-31G*
  Basis Set:
  @DF-RHF Final Energy:  -267.95069824598960
    Total Energy =                       -267.9506982459897699
  Basis Set: 6-31G*
  Basis Set:
  Charge       = 0
  Multiplicity = 1
  Basis Set: 6-31G*
  Basis Set:

    Orbital Energies (a.u.)
    -----------------------

    Doubly Occupied:

       1A    -20.558720     2A    -20.558520     3A    -11.268811
       4A    -11.267142     5A    -11.266385     6A     -1.385174
       7A     -1.363583     8A     -1.018059     9A     -0.911020
      10A     -0.831310    11A     -0.709477    12A     -0.682626
      13A     -0.641712    14A     -0.635142    15A     -0.616534
      16A     -0.551172    17A     -0.539195    18A     -0.495342
      19A     -0.470901    20A     -0.440220    21A     -0.418193

  @DF-RHF Final Energy:  -267.95069926357871

   => Energetics <=

    Nuclear Repulsion Energy =            190.4353480514709815
    One-Electron Energy =                -743.5136240768341622
    Two-Electron Energy =                 285.1275767617845531
    DFT Exchange-Correlation Energy =       0.0000000000000000
    Empirical Dispersion Energy =           0.0000000000000000
    PCM Polarization Energy =               0.0000000000000000
    EFP Energy =                            0.0000000000000000
    Total Energy =                       -267.9506992635785991
    Molecular point group: c1
  Basis Set: 6-31G*
  Basis Set:

  -Total Gradient:
     Atom            X                  Y                   Z
    ------   -----------------  -----------------  -----------------
       1        0.000205900269    -0.000440248656    -0.001129477121
       2       -0.000398053766     0.000797366035     0.001522221452
       3        0.000726915813    -0.001174636221    -0.000863428017
       4       -0.000025355462    -0.000011123506    -0.000004666936
       5       -0.000526681536     0.000785319645     0.000498051805
       6        0.000004782009    -0.000014270993    -0.000007096347
       7        0.000039693594     0.000021309438    -0.000007700396
       8       -0.000010729275    -0.000005409006    -0.000008912932
       9       -0.000018609177     0.000029271286    -0.000005959938
      10        0.000004436988     0.000016749613     0.000012305710
      11       -0.000010968014     0.000003428223     0.000000649915
      12        0.000009213521    -0.000003334349    -0.000002659604
      13       -0.000000544962    -0.000004421510    -0.000003327591

  **** Optimization is complete! (in 5 steps) ****
    Final optimized geometry and variables:
    Molecular point group: c1

    Geometry (in Angstrom), charge = 0, multiplicity = 1:

    H           -3.068948800297     0.114581189493    -0.229463433929
    O           -2.298951582912    -0.334646696755     0.086137353397
    C           -1.178412408098     0.504251844892    -0.020763969636
    C            0.052831260030    -0.375266819752     0.013220270505
    H           -1.193076581792     1.074738965547    -0.945066352256
    H           -1.138460913910     1.211305316511     0.803107920598
    O            1.171728494382     0.454588931392    -0.048637653669
    H            0.032658847083    -1.067235864561    -0.826447595588
    H            0.053731862902    -0.964125947006     0.928451373045
    C            2.388631114653    -0.221189249723    -0.017363751830
    H            2.487403997099    -0.901520994353    -0.860988400106
    H            3.175151394453     0.518999175935    -0.069965485688
    H            2.502469043984    -0.792452239178     0.901793277913

  Mulliken Charges: (a.u.)
   Center  Symbol    Alpha    Beta     Spin     Total
       1     H     0.27790  0.27790  0.00000  0.44420
       2     O     4.37460  4.37460  0.00000 -0.74920
       3     C     3.00329  3.00329  0.00000 -0.00658
       4     C     2.99169  2.99169  0.00000  0.01663
       5     H     0.42451  0.42451  0.00000  0.15098
       6     H     0.42182  0.42182  0.00000  0.15637
       7     O     4.30955  4.30955  0.00000 -0.61909
       8     H     0.42524  0.42524  0.00000  0.14951
       9     H     0.42319  0.42319  0.00000  0.15363
      10     C     3.07958  3.07958  0.00000 -0.15916
      11     H     0.42870  0.42870  0.00000  0.14261
      12     H     0.41171  0.41171  0.00000  0.17659
      13     H     0.42824  0.42824  0.00000  0.14352

   Total alpha = 21.00000, Total beta = 21.00000, Total charge =  0.00000
