  ==> Input File <==

--------------------------------------------------------------------------
set {
	reference rhf
	basis cc-pvtz
}

set_num_threads( 4 )
memory 2 gb

molecule MOL {
0 1

H	 -1.504000	 -2.185000	 0.000000
C	 -1.058000	 -1.205000	 -0.000000
N	 0.261000	 -1.170000	 -0.000000
C	 -1.858000	 -0.075000	 0.000000
C	 0.866000	 0.009000	 -0.000000
H	 -2.929000	 -0.163000	 0.000000
C	 -1.230000	 1.156000	 -0.000000
C	 0.153000	 1.202000	 0.000000
C	 2.373000	 -0.015000	 0.000000
H	 -1.804000	 2.066000	 -0.000000
H	 0.672000	 2.143000	 0.000000
H	 2.737000	 -0.544000	 -0.874000
H	 2.790000	 0.985000	 -0.000000
H	 2.737000	 -0.543000	 0.875000

	symmetry c1
}
ee = optimize('scf')
oeprop('DIPOLE', 'QUADRUPOLE', 'MULLIKEN_CHARGES')
f=open( 'psi4out.xyz', 'w' )
f.write( "14  " )
f.write( str(ee) + "\n" )
f.write( MOL.save_string_xyz() )
f.close()
--------------------------------------------------------------------------

    Molecular point group: c1
  Charge       = 0
  Multiplicity = 1
  Basis Set: CC-PVTZ
  Basis Set:
  @DF-RHF Final Energy:  -285.83165558810941
    Total Energy =                       -285.8316555881093564
    Molecular point group: c1
  Basis Set: CC-PVTZ
  Basis Set:
  Basis Set: CC-PVTZ
  Basis Set:
  @DF-RHF Final Energy:  -285.83176695145642
    Total Energy =                       -285.8317669514566433
  Basis Set: CC-PVTZ
  Basis Set:
  Charge       = 0
  Multiplicity = 1
  Basis Set: CC-PVTZ
  Basis Set:

    Orbital Energies (a.u.)
    -----------------------

    Doubly Occupied:

       1A    -15.549257     2A    -11.272684     3A    -11.264165
       4A    -11.249451     5A    -11.228097     6A    -11.227882
       7A    -11.216473     8A     -1.265944     9A     -1.088531
      10A     -1.058258    11A     -0.953625    12A     -0.858969
      13A     -0.826073    14A     -0.704816    15A     -0.670650
      16A     -0.638896    17A     -0.588300    18A     -0.585270
      19A     -0.571134    20A     -0.538870    21A     -0.520939
      22A     -0.509837    23A     -0.407756    24A     -0.381463
      25A     -0.336967

  @DF-RHF Final Energy:  -285.83177060240854

   => Energetics <=

    Nuclear Repulsion Energy =            275.3541525926606823
    One-Electron Energy =                -931.3432257823941427
    Two-Electron Energy =                 370.1573025873246934
    DFT Exchange-Correlation Energy =       0.0000000000000000
    Empirical Dispersion Energy =           0.0000000000000000
    PCM Polarization Energy =               0.0000000000000000
    EFP Energy =                            0.0000000000000000
    Total Energy =                       -285.8317706024088238
    Molecular point group: c1
  Basis Set: CC-PVTZ
  Basis Set:

  -Total Gradient:
     Atom            X                  Y                   Z
    ------   -----------------  -----------------  -----------------
       1        0.000011380764     0.000005807985    -0.000000396899
       2       -0.000224730412     0.000047914764     0.000001029347
       3        0.000082041596    -0.000027585929     0.000001012247
       4        0.000046688811    -0.000064734867     0.000000062956
       5       -0.000013987849     0.000100295046    -0.000005290664
       6        0.000028917729    -0.000008689522     0.000000042828
       7       -0.000012093246     0.000022265089    -0.000000563214
       8        0.000001294950    -0.000017612338     0.000002103714
       9        0.000072878422    -0.000009961463    -0.000002786542
      10        0.000003663476    -0.000015957260     0.000000056240
      11       -0.000005371340    -0.000044391316     0.000000088436
      12       -0.000004833393     0.000016847087     0.000022827586
      13        0.000016591028    -0.000021685602     0.000001651524
      14       -0.000002440537     0.000017488326    -0.000019837561

  **** Optimization is complete! (in 3 steps) ****
    Final optimized geometry and variables:
    Molecular point group: c1

    Geometry (in Angstrom), charge = 0, multiplicity = 1:

    H           -1.474682884651    -2.161097075344    -0.000094327801
    C           -1.027638606447    -1.183462675983    -0.000059442658
    N            0.287278014053    -1.148184122595    -0.000028398742
    C           -1.825438163886    -0.055986944210    -0.000059801099
    C            0.893255335161     0.026891089653     0.000003851018
    H           -2.893698988892    -0.143230770685    -0.000089795014
    C           -1.197301353745     1.171449496094    -0.000025879387
    C            0.181763806108     1.216634691964     0.000011220809
    C            2.397142715965     0.005561374324     0.000130128751
    H           -1.769784639960     2.079802516788    -0.000026074637
    H            0.699872841642     2.155218188256     0.000039053954
    H            2.759875290792    -0.522985435298    -0.872542076932
    H            2.811856645441     1.004503093881    -0.000398336013
    H            2.759742415417    -0.521939094379     0.873505216511

  Mulliken Charges: (a.u.)
   Center  Symbol    Alpha    Beta     Spin     Total
       1     H     0.42063  0.42063  0.00000  0.15875
       2     C     3.05103  3.05103  0.00000 -0.10206
       3     N     3.60541  3.60541  0.00000 -0.21083
       4     C     3.07268  3.07268  0.00000 -0.14535
       5     C     2.93970  2.93970  0.00000  0.12060
       6     H     0.41277  0.41277  0.00000  0.17445
       7     C     3.08023  3.08023  0.00000 -0.16046
       8     C     3.10223  3.10223  0.00000 -0.20447
       9     C     3.13340  3.13340  0.00000 -0.26681
      10     H     0.42080  0.42080  0.00000  0.15839
      11     H     0.41543  0.41543  0.00000  0.16915
      12     H     0.44547  0.44547  0.00000  0.10906
      13     H     0.45474  0.45474  0.00000  0.09052
      14     H     0.44548  0.44548  0.00000  0.10904

   Total alpha = 25.00000, Total beta = 25.00000, Total charge =  0.00000
