                              Psi4 1.0.54 Driver

  ==> Input File <==

--------------------------------------------------------------------------
set {
	reference rhf
	basis cc-pvtz
}

set_num_threads( 4 )
memory 2 gb

molecule MOL {
0 1

H	 -1.329343	 -0.525827	 -1.058765
N	 -1.173824	 -0.310545	 -0.096857
C	 -0.022588	 0.563366	 0.065815
H	 -2.003944	 0.126785	 0.245567
C	 1.270420	 -0.230572	 -0.014245
H	 -0.045354	 1.293678	 -0.735129
H	 -0.043155	 1.123061	 1.001180
H	 1.336273	 -0.754933	 -0.959364
H	 2.130728	 0.422015	 0.082222
H	 1.323344	 -0.967006	 0.781773

	symmetry c1
}
set optking {
	frozen_dihedral = ("
		1 2 3 6
	")
}

ee,wfn = optimize('scf', return_wfn=True)
oeprop( wfn, 'DIPOLE', 'QUADRUPOLE', 'MULLIKEN_CHARGES')
f=open( 'psi4out.xyz', 'w' )
f.write( "10  " )
f.write( str(ee) + "\n" )
f.write( MOL.save_string_xyz() )
f.close()
--------------------------------------------------------------------------

    Molecular point group: c1
  Charge       = 0
  Multiplicity = 1
  Basis Set: CC-PVTZ
  Basis Set:
  @DF-RHF Final Energy:  -134.30226365991976
    Total Energy =                       -134.3022636599197881
    Molecular point group: c1
  Basis Set: CC-PVTZ
  Basis Set:
  Basis Set: CC-PVTZ
  Basis Set:
  @DF-RHF Final Energy:  -134.28396130595695
    Total Energy =                       -134.2839613059568649
  Basis Set: CC-PVTZ
  Basis Set:
  Basis Set: CC-PVTZ
  Basis Set:
  @DF-RHF Final Energy:  -134.30342900132044
    Total Energy =                       -134.3034290013204384
  Basis Set: CC-PVTZ
  Basis Set:
  Basis Set: CC-PVTZ
  Basis Set:
  @DF-RHF Final Energy:  -134.30400185735914
    Total Energy =                       -134.3040018573590828
  Basis Set: CC-PVTZ
  Basis Set:
  Charge       = 0
  Multiplicity = 1
  Basis Set: CC-PVTZ
  Basis Set:

    Orbital Energies (a.u.)
    -----------------------

    Doubly Occupied:

       1A    -15.527662     2A    -11.241553     3A    -11.202157
       4A     -1.177540     5A     -0.987810     6A     -0.822245
       7A     -0.667608     8A     -0.628900     9A     -0.577040
      10A     -0.517309    11A     -0.511870    12A     -0.483519
      13A     -0.386309

  @DF-RHF Final Energy:  -134.30401015967226

   => Energetics <=

    Nuclear Repulsion Energy =             83.3124181088264493
    One-Electron Energy =                -345.7698115428818255
    Two-Electron Energy =                 128.1533832743830601
    DFT Exchange-Correlation Energy =       0.0000000000000000
    Empirical Dispersion Energy =           0.0000000000000000
    PCM Polarization Energy =               0.0000000000000000
    EFP Energy =                            0.0000000000000000
    Total Energy =                       -134.3040101596722877
    Molecular point group: c1
  Basis Set: CC-PVTZ
  Basis Set:

  -Total Gradient:
     Atom            X                  Y                   Z
    ------   -----------------  -----------------  -----------------
       1       -0.000921485096     0.002189976082    -0.000261087206
       2        0.001120263396    -0.003490048699    -0.000172526830
       3       -0.000650689524     0.003008696272     0.001519428577
       4       -0.000095444673     0.000144195652     0.000087846438
       5        0.000008835006    -0.000169937872     0.000061880688
       6        0.000333796800    -0.001715192151    -0.001266758015
       7        0.000075650827     0.000086981478     0.000056330532
       8       -0.000000023850    -0.000041720755    -0.000030453832
       9        0.000119473695     0.000055246621    -0.000038682218
      10        0.000009623420    -0.000068196629     0.000044021867

  **** Optimization is complete! (in 5 steps) ****
    Final optimized geometry and variables:
    Molecular point group: c1

    Geometry (in Angstrom), charge = 0, multiplicity = 1:

    H           -1.651601736778    -0.220920794658    -0.608481457234
    N           -1.195231009785     0.057136307123     0.235134790140
    C            0.152697161001     0.540985386116    -0.037503357507
    H           -1.756325345835     0.781360857019     0.631472332978
    C            1.127340845352    -0.619240440690    -0.173082855206
    H            0.203652830755     1.147560166977    -0.941053884965
    H            0.458013006942     1.172266015022     0.788571104791
    H            0.838965621472    -1.270806999865    -0.991745266613
    H            2.131815458362    -0.260275766482    -0.371818377938
    H            1.141245216354    -1.211285813776     0.733424372427

  Mulliken Charges: (a.u.)
   Center  Symbol    Alpha    Beta     Spin     Total
       1     H     0.43076  0.43076  0.00000  0.13847
       2     N     3.68959  3.68959  0.00000 -0.37918
       3     C     3.02587  3.02587  0.00000 -0.05174
       4     H     0.42861  0.42861  0.00000  0.14278
       5     C     3.13179  3.13179  0.00000 -0.26358
       6     H     0.46701  0.46701  0.00000  0.06599
       7     H     0.45698  0.45698  0.00000  0.08603
       8     H     0.45943  0.45943  0.00000  0.08114
       9     H     0.45840  0.45840  0.00000  0.08320
      10     H     0.45155  0.45155  0.00000  0.09689

   Total alpha = 13.00000, Total beta = 13.00000, Total charge =  0.00000

*** Psi4 exiting successfully. Buy a developer a beer!
