  ==> Input File <==

--------------------------------------------------------------------------
set {
	reference rhf
	basis 6-31G*
}

set_num_threads( 4 )
memory 2 gb

molecule MOL {
0 1

H	 -2.698709	 -0.000305	 0.034435
C	 -1.693833	 0.000034	 0.434417
O	 -0.828952	 -0.000968	 -0.659236
H	 -1.574200	 0.882896	 1.055746
H	 -1.574147	 -0.881698	 1.057355
C	 0.559449	 -0.000018	 -0.420814
C	 1.241226	 -1.269196	 -0.928046
C	 1.240282	 1.268374	 -0.931310
H	 0.623589	 0.001400	 0.660812
H	 0.702517	 -2.147141	 -0.588113
H	 2.255903	 -1.323254	 -0.546283
H	 1.298503	 -1.300028	 -2.011528
H	 0.700537	 2.146748	 -0.594275
H	 2.254726	 1.324595	 -0.548941
H	 1.298320	 1.296124	 -2.014686

	symmetry c1
}
set optking {
	frozen_dihedral = ("
		9 6 3 2
	")
}

ee = optimize('scf')
oeprop('DIPOLE', 'QUADRUPOLE', 'MULLIKEN_CHARGES')
f=open( 'psi4out.xyz', 'w' )
f.write( "15  " )
f.write( str(ee) + "\n" )
f.write( MOL.save_string_xyz() )
f.close()
--------------------------------------------------------------------------

    Molecular point group: c1
  Charge       = 0
  Multiplicity = 1
  Basis Set: 6-31G*
  Basis Set:
  @DF-RHF Final Energy:  -232.13599371952725
    Total Energy =                       -232.1359937195272778
    Molecular point group: c1
  Basis Set: 6-31G*
  Basis Set:
  Basis Set: 6-31G*
  Basis Set:
  @DF-RHF Final Energy:  -232.13933794612566
    Total Energy =                       -232.1393379461259201
  Basis Set: 6-31G*
  Basis Set:
  Basis Set: 6-31G*
  Basis Set:
  @DF-RHF Final Energy:  -232.14005832980826
    Total Energy =                       -232.1400583298081983
  Basis Set: 6-31G*
  Basis Set:
  Basis Set: 6-31G*
  Basis Set:
  @DF-RHF Final Energy:  -232.14009365233210
    Total Energy =                       -232.1400936523319842
  Basis Set: 6-31G*
  Basis Set:
  Basis Set: 6-31G*
  Basis Set:
  @DF-RHF Final Energy:  -232.14009841053439
    Total Energy =                       -232.1400984105346765
  Basis Set: 6-31G*
  Basis Set:
  Charge       = 0
  Multiplicity = 1
  Basis Set: 6-31G*
  Basis Set:

    Orbital Energies (a.u.)
    -----------------------

    Doubly Occupied:

       1A    -20.548112     2A    -11.273935     3A    -11.264683
       4A    -11.206706     5A    -11.206687     6A     -1.372946
       7A     -1.052161     8A     -0.935546     9A     -0.918360
      10A     -0.795222    11A     -0.668269    12A     -0.641700
      13A     -0.635317    14A     -0.578799    15A     -0.554128
      16A     -0.538630    17A     -0.537496    18A     -0.496787
      19A     -0.486596    20A     -0.457609    21A     -0.403792

  @DF-RHF Final Energy:  -232.14009867950037

   => Energetics <=

    Nuclear Repulsion Energy =            196.7706728078515823
    One-Electron Energy =                -704.6745779444968321
    Two-Electron Energy =                 275.7638064571449377
    DFT Exchange-Correlation Energy =       0.0000000000000000
    Empirical Dispersion Energy =           0.0000000000000000
    PCM Polarization Energy =               0.0000000000000000
    EFP Energy =                            0.0000000000000000
    Total Energy =                       -232.1400986795002837
    Molecular point group: c1
  Basis Set: 6-31G*
  Basis Set:

  -Total Gradient:
     Atom            X                  Y                   Z
    ------   -----------------  -----------------  -----------------
       1        0.000007665409    -0.000000032276    -0.000006979842
       2       -0.000024493970     0.000000075455     0.000016907282
       3        0.000009742000    -0.000000207840     0.000034054938
       4        0.000006538321    -0.000004712711    -0.000009401613
       5        0.000006473969     0.000004690558    -0.000009362161
       6       -0.000033285931     0.000000223128    -0.000076098710
       7        0.000020666132    -0.000027589238     0.000027635168
       8        0.000020625252     0.000027738130     0.000027141871
       9        0.000017253905    -0.000000108148    -0.000009293640
      10        0.000001631384    -0.000020231083    -0.000004122310
      11       -0.000013013919    -0.000002734878    -0.000001163359
      12       -0.000004247926     0.000018665103     0.000008059935
      13        0.000001689416     0.000019904021    -0.000004023384
      14       -0.000013035289     0.000002527566    -0.000001343447
      15       -0.000004208750    -0.000018207787     0.000007989273

  **** Optimization is complete! (in 6 steps) ****
    Final optimized geometry and variables:
    Molecular point group: c1

    Geometry (in Angstrom), charge = 0, multiplicity = 1:

    H           -2.774345132523    -0.000561499046     0.426037259654
    C           -1.778711133877     0.000359261779     0.849063289962
    O           -0.875520730495    -0.000603436445    -0.209931094650
    H           -1.667244934094     0.884143693085     1.474272070164
    H           -1.666547658541    -0.881775583913     1.476473264749
    C            0.491037235937     0.000369568644     0.139236357060
    C            1.134448427578    -1.266931276481    -0.407418114349
    C            1.133456076348     1.266797958071    -0.410597930196
    H            0.585383658744     0.001765947447     1.223097414006
    H            0.649681652941    -2.146942287129     0.002022958030
    H            2.190148492838    -1.309259706501    -0.156559802381
    H            1.035265061973    -1.299902461147    -1.487325543524
    H            0.648027255824     2.147453063754    -0.003332531231
    H            2.189131679566     1.310561500376    -0.159883331946
    H            1.034211369980     1.297003647839    -1.490580624511

  Mulliken Charges: (a.u.)
   Center  Symbol    Alpha    Beta     Spin     Total
       1     H     0.41315  0.41315  0.00000  0.17369
       2     C     3.07867  3.07867  0.00000 -0.15734
       3     O     4.31047  4.31047  0.00000 -0.62095
       4     H     0.43062  0.43062  0.00000  0.13877
       5     H     0.43062  0.43062  0.00000  0.13877
       6     C     2.91719  2.91719  0.00000  0.16561
       7     C     3.23751  3.23751  0.00000 -0.47502
       8     C     3.23751  3.23751  0.00000 -0.47502
       9     H     0.42987  0.42987  0.00000  0.14026
      10     H     0.41786  0.41786  0.00000  0.16429
      11     H     0.42439  0.42439  0.00000  0.15123
      12     H     0.41495  0.41495  0.00000  0.17009
      13     H     0.41786  0.41786  0.00000  0.16429
      14     H     0.42439  0.42439  0.00000  0.15123
      15     H     0.41495  0.41495  0.00000  0.17009

   Total alpha = 21.00000, Total beta = 21.00000, Total charge =  0.00000
