  ==> Input File <==

--------------------------------------------------------------------------
set {
	reference rhf
	basis 6-31G*
}

set_num_threads( 4 )
memory 2 gb

molecule MOL {
0 1

O	 0.971784	 4.323827	 -0.745901
C	 -0.070399	 4.736905	 -1.153306
C	 -1.334679	 3.896430	 -1.141635
C	 -0.198968	 6.138799	 -1.713055
C	 -1.144447	 2.495077	 -0.568699
H	 -2.092324	 4.442079	 -0.580716
H	 -1.711528	 3.847140	 -2.162398
C	 -2.438342	 1.679247	 -0.573117
H	 -0.760971	 2.573704	 0.443672
H	 -0.379930	 1.977964	 -1.139887
C	 -2.259874	 0.272531	 0.000494
H	 -3.201666	 2.205213	 -0.001503
H	 -2.818290	 1.605704	 -1.591104
C	 -3.549786	 -0.549746	 -0.000374
H	 -1.880759	 0.344846	 1.018365
H	 -1.497652	 -0.254494	 -0.570697
C	 -4.809590	 0.315458	 -0.000369
H	 -3.560515	 -1.202009	 -0.871156
H	 -3.561123	 -1.202955	 0.869711
H	 -4.844746	 0.956611	 -0.876632
H	 -5.706986	 -0.295590	 -0.001609
H	 -4.845960	 0.954827	 0.877144
H	 -0.931459	 6.707102	 -1.147275
H	 0.758601	 6.638698	 -1.668381
H	 -0.542662	 6.105322	 -2.742807

	symmetry c1
}
set optking {
	frozen_dihedral = ("
		15 11 14 18
	")
}

ee = optimize('scf')
oeprop('DIPOLE', 'QUADRUPOLE', 'MULLIKEN_CHARGES')
f=open( 'psi4out.xyz', 'w' )
f.write( "25  " )
f.write( str(ee) + "\n" )
f.write( MOL.save_string_xyz() )
f.close()
--------------------------------------------------------------------------

    Molecular point group: c1
  Charge       = 0
  Multiplicity = 1
  Basis Set: 6-31G*
  Basis Set:
  @DF-RHF Final Energy:  -387.12657700951570
    Total Energy =                       -387.1265770095156995
    Molecular point group: c1
  Basis Set: 6-31G*
  Basis Set:
  Basis Set: 6-31G*
  Basis Set:
  @DF-RHF Final Energy:  -387.12769161285564
    Total Energy =                       -387.1276916128559833
  Basis Set: 6-31G*
  Basis Set:
  Basis Set: 6-31G*
  Basis Set:
  @DF-RHF Final Energy:  -387.12982734229450
    Total Energy =                       -387.1298273422942202
  Basis Set: 6-31G*
  Basis Set:
  Basis Set: 6-31G*
  Basis Set:
  @DF-RHF Final Energy:  -387.13004596697249
    Total Energy =                       -387.1300459669724887
  Basis Set: 6-31G*
  Basis Set:
  @DF-RHF Final Energy:  -387.13005925889092
    Total Energy =                       -387.1300592588909240
  @DF-RHF Final Energy:  -387.13007626847445
    Total Energy =                       -387.1300762684744541
  Basis Set: 6-31G*
  Basis Set:
  @DF-RHF Final Energy:  -387.13007898392357
    Total Energy =                       -387.1300789839236813
  Basis Set: 6-31G*
  Basis Set:
  Basis Set: 6-31G*
  Basis Set:
  @DF-RHF Final Energy:  -387.13008016740463
    Total Energy =                       -387.1300801674046852
  Basis Set: 6-31G*
  Basis Set:
  Basis Set: 6-31G*
  Basis Set:
  @DF-RHF Final Energy:  -387.13008167948919
    Total Energy =                       -387.1300816794895354
  Basis Set: 6-31G*
  Basis Set:
  Charge       = 0
  Multiplicity = 1
  Basis Set: 6-31G*
  Basis Set:

    Orbital Energies (a.u.)
    -----------------------

    Doubly Occupied:

       1A    -20.550436     2A    -11.326279     3A    -11.231829
       4A    -11.228324     5A    -11.216979     6A    -11.216387
       7A    -11.215734     8A    -11.213755     9A    -11.209426
      10A     -1.395740    11A     -1.092713    12A     -1.054145
      13A     -1.013259    14A     -0.967000    15A     -0.897809
      16A     -0.826818    17A     -0.773464    18A     -0.729257
      19A     -0.659297    20A     -0.652041    21A     -0.627266
      22A     -0.623579    23A     -0.600727    24A     -0.593027
      25A     -0.561473    26A     -0.556502    27A     -0.548785
      28A     -0.521526    29A     -0.511713    30A     -0.494925
      31A     -0.490035    32A     -0.477241    33A     -0.458652
      34A     -0.452481    35A     -0.449433    36A     -0.399540

  @DF-RHF Final Energy:  -387.13008168250281

   => Energetics <=

    Nuclear Repulsion Energy =            443.1517037947319295
    One-Electron Energy =               -1402.8883714758580936
    Two-Electron Energy =                 572.6065859986231317
    DFT Exchange-Correlation Energy =       0.0000000000000000
    Empirical Dispersion Energy =           0.0000000000000000
    PCM Polarization Energy =               0.0000000000000000
    EFP Energy =                            0.0000000000000000
    Total Energy =                       -387.1300816825030324
    Molecular point group: c1
  Basis Set: 6-31G*
  Basis Set:

  -Total Gradient:
     Atom            X                  Y                   Z
    ------   -----------------  -----------------  -----------------
       1       -0.000001886401     0.000002846285     0.000012150242
       2        0.000007221622    -0.000012195465    -0.000035915374
       3        0.000000776507     0.000008464219     0.000009755229
       4       -0.000004191119     0.000005706346     0.000015020326
       5       -0.000003976407     0.000009135853     0.000005142317
       6        0.000001925456    -0.000001895111    -0.000000897929
       7       -0.000000899355     0.000000258599    -0.000003043631
       8        0.000003227942    -0.000013769548    -0.000017848269
       9       -0.000000444884     0.000001505529     0.000002560555
      10       -0.000006515441    -0.000003022011     0.000002821088
      11       -0.003721323181     0.004968430467     0.001927993553
      12       -0.000009905499    -0.000003311277     0.000005184506
      13        0.000005646742     0.000009884624     0.000003096992
      14       -0.002877081850     0.004179712496    -0.004067621863
      15        0.003580903291    -0.004849366759    -0.000986305347
      16        0.000012454811    -0.000001178429     0.000009560942
      17       -0.000001291857     0.000000912722     0.000008160085
      18        0.003022465891    -0.004290461002     0.003122888153
      19       -0.000004480207    -0.000014717420    -0.000007132574
      20        0.000000963349    -0.000001101574     0.000000163918
      21       -0.000005427034     0.000003017248     0.000002688239
      22        0.000001351558     0.000002680805    -0.000004913949
      23       -0.000000163994     0.000000005503    -0.000001818145
      24       -0.000000037382    -0.000000616252    -0.000000072156
      25        0.000000687436    -0.000000925845    -0.000001616907

  **** Optimization is complete! (in 10 steps) ****
    Final optimized geometry and variables:
    Molecular point group: c1

    Geometry (in Angstrom), charge = 0, multiplicity = 1:

    O            2.663634965383     1.710151037600    -0.083386771126
    C            1.636783142082     2.146283744484    -0.505421284768
    C            0.351291008792     1.338525293761    -0.500778096210
    C            1.550092357825     3.546419725983    -1.077499168475
    C            0.499605328335    -0.062455480258     0.085354301486
    H           -0.397917957115     1.908136832915     0.047480153237
    H           -0.015750446790     1.290474588852    -1.525182947122
    C           -0.814840074513    -0.845346899316     0.071992170896
    H            0.872439263541     0.014857876859     1.101879370726
    H            1.258033442895    -0.602778850897    -0.472099858604
    C           -0.661604774321    -2.245946529287     0.667056851311
    H           -1.569788211321    -0.287459767959     0.620408207197
    H           -1.177562825473    -0.925006002323    -0.951879680482
    C           -1.907627920084    -3.157443178966     0.615557062483
    H           -0.297882951211    -2.183970054829     1.690237365306
    H            0.138615845609    -2.753262829049     0.131566706047
    C           -3.265326405473    -2.463308585131     0.721513250973
    H           -1.867298604129    -3.777096997525    -0.276657209858
    H           -1.828036358103    -3.867475893184     1.435709736460
    H           -3.454146809883    -1.803500757133    -0.118605555327
    H           -4.063760081720    -3.198496191502     0.745406278873
    H           -3.337217444341    -1.872194525459     1.630227796795
    H            0.826365575248     4.137761140690    -0.524194783632
    H            2.519586984495     4.022106248441    -1.026284799485
    H            1.216700016966     3.513407155696    -2.110656855132

  Mulliken Charges: (a.u.)
   Center  Symbol    Alpha    Beta     Spin     Total
       1     O     4.26116  4.26116  0.00000 -0.52233
       2     C     2.73570  2.73570  0.00000  0.52860
       3     C     3.21073  3.21073  0.00000 -0.42147
       4     C     3.28665  3.28665  0.00000 -0.57330
       5     C     3.14808  3.14808  0.00000 -0.29616
       6     H     0.41002  0.41002  0.00000  0.17996
       7     H     0.41010  0.41010  0.00000  0.17980
       8     C     3.15620  3.15620  0.00000 -0.31240
       9     H     0.41211  0.41211  0.00000  0.17578
      10     H     0.41213  0.41213  0.00000  0.17574
      11     C     3.15520  3.15520  0.00000 -0.31041
      12     H     0.42214  0.42214  0.00000  0.15572
      13     H     0.42468  0.42468  0.00000  0.15063
      14     C     3.15376  3.15376  0.00000 -0.30751
      15     H     0.42095  0.42095  0.00000  0.15809
      16     H     0.42081  0.42081  0.00000  0.15839
      17     C     3.24205  3.24205  0.00000 -0.48410
      18     H     0.42156  0.42156  0.00000  0.15689
      19     H     0.42083  0.42083  0.00000  0.15834
      20     H     0.42050  0.42050  0.00000  0.15901
      21     H     0.41894  0.41894  0.00000  0.16212
      22     H     0.42178  0.42178  0.00000  0.15643
      23     H     0.40874  0.40874  0.00000  0.18253
      24     H     0.39646  0.39646  0.00000  0.20708
      25     H     0.40871  0.40871  0.00000  0.18258

   Total alpha = 36.00000, Total beta = 36.00000, Total charge =  0.00000
