  ==> Input File <==

--------------------------------------------------------------------------
set {
	reference rhf
	basis 6-31G*
}

set_num_threads( 4 )
memory 2 gb

molecule MOL {
0 1

O	 0.625848	 1.349995	 -0.000749
C	 0.486307	 0.169203	 0.000779
C	 1.608116	 -0.841643	 0.000302
O	 -0.698257	 -0.426125	 0.001050
C	 2.990107	 -0.200498	 -0.000684
H	 1.468623	 -1.481519	 -0.865924
H	 1.469683	 -1.481289	 0.866878
H	 3.129736	 0.423364	 -0.875135
H	 3.757882	 -0.966877	 -0.001197
H	 3.130964	 0.423383	 0.873533
C	 -1.384887	 -0.525428	 -1.242364
C	 -2.695248	 -1.237641	 -0.981562
H	 -0.767020	 -1.069330	 -1.943788
H	 -1.541983	 0.468437	 -1.638778
H	 -2.520851	 -2.229267	 -0.579788
H	 -3.253232	 -1.335310	 -1.907176
H	 -3.300170	 -0.683127	 -0.273155

	symmetry c1
}
set optking {
	frozen_dihedral = ("
		11 4 2 3
	")
}

ee = optimize('scf')
oeprop('DIPOLE', 'QUADRUPOLE', 'MULLIKEN_CHARGES')
f=open( 'psi4out.xyz', 'w' )
f.write( "17  " )
f.write( str(ee) + "\n" )
f.write( MOL.save_string_xyz() )
f.close()
--------------------------------------------------------------------------

    Molecular point group: c1
  Charge       = 0
  Multiplicity = 1
  Basis Set: 6-31G*
  Basis Set:
  @DF-RHF Final Energy:  -344.89266929451020
    Total Energy =                       -344.8926692945102559
    Molecular point group: c1
  Basis Set: 6-31G*
  Basis Set:
  Basis Set: 6-31G*
  Basis Set:
  @DF-RHF Final Energy:  -344.89341833463635
    Total Energy =                       -344.8934183346364648
  Basis Set: 6-31G*
  Basis Set:
  Basis Set: 6-31G*
  Basis Set:
  @DF-RHF Final Energy:  -344.89281589175181
    Total Energy =                       -344.8928158917521500
  Basis Set: 6-31G*
  Basis Set:
  Basis Set: 6-31G*
  Basis Set:
  @DF-RHF Final Energy:  -344.89365712981100
    Total Energy =                       -344.8936571298109470
  Basis Set: 6-31G*
  Basis Set:
  Basis Set: 6-31G*
  Basis Set:
  @DF-RHF Final Energy:  -344.89366857923113
    Total Energy =                       -344.8936685792315302
  Basis Set: 6-31G*
  Basis Set:
  Charge       = 0
  Multiplicity = 1
  Basis Set: 6-31G*
  Basis Set:

    Orbital Energies (a.u.)
    -----------------------

    Doubly Occupied:

       1A    -20.582479     2A    -20.556180     3A    -11.374129
       4A    -11.294442     5A    -11.241478     6A    -11.224209
       7A    -11.218461     8A     -1.457887     9A     -1.365692
      10A     -1.065939    11A     -1.035838    12A     -0.905297
      13A     -0.861560    14A     -0.769636    15A     -0.700929
      16A     -0.683171    17A     -0.656800    18A     -0.634980
      19A     -0.602964    20A     -0.563540    21A     -0.556409
      22A     -0.529146    23A     -0.525836    24A     -0.520009
      25A     -0.505919    26A     -0.489504    27A     -0.450107
      28A     -0.434490

  @DF-RHF Final Energy:  -344.89366955425356

   => Energetics <=

    Nuclear Repulsion Energy =            314.3543164496194890
    One-Electron Energy =               -1092.8819129236244407
    Two-Electron Energy =                 433.6339269197515023
    DFT Exchange-Correlation Energy =       0.0000000000000000
    Empirical Dispersion Energy =           0.0000000000000000
    PCM Polarization Energy =               0.0000000000000000
    EFP Energy =                            0.0000000000000000
    Total Energy =                       -344.8936695542533926
    Molecular point group: c1
  Basis Set: 6-31G*
  Basis Set:

  -Total Gradient:
     Atom            X                  Y                   Z
    ------   -----------------  -----------------  -----------------
       1       -0.000002967105    -0.000015173868     0.000003278565
       2        0.000816002630    -0.001665871879     0.004902849400
       3       -0.000119690444     0.000043341940    -0.003661737838
       4       -0.002584199866     0.005231849418    -0.000516041324
       5        0.000038781181    -0.000004581653    -0.000004403642
       6       -0.000007958896    -0.000002450689     0.000008026433
       7        0.000007041873    -0.000013674534    -0.000003942445
       8       -0.000001594297    -0.000007340438     0.000013520337
       9        0.000030489523     0.000005742489     0.000000174110
      10       -0.000004161237    -0.000006247279    -0.000012420633
      11        0.001867588296    -0.003589695899    -0.000725246957
      12       -0.000019024798     0.000005937123     0.000011756663
      13       -0.000037440488     0.000025191955    -0.000035279855
      14        0.000025184234    -0.000015248833     0.000013402641
      15        0.000006580329     0.000004079175    -0.000001220728
      16       -0.000000684439     0.000008796467     0.000002032117
      17       -0.000013946494    -0.000004653501     0.000005253154

  **** Optimization is complete! (in 6 steps) ****
    Final optimized geometry and variables:
    Molecular point group: c1

    Geometry (in Angstrom), charge = 0, multiplicity = 1:

    O            0.486548598430     1.569513110269     0.309566897697
    C            0.375591869175     0.392500441424     0.323023982373
    C            1.526090200790    -0.584172520233     0.313650153079
    O           -0.832584328838    -0.213441928601     0.332320575357
    C            2.894828063455     0.083894502942     0.338533111573
    H            1.408378004360    -1.207471433762    -0.569608273232
    H            1.393946459931    -1.252011470044     1.160163448561
    H            3.028615848269     0.731168400314    -0.519729406913
    H            3.679384376523    -0.665185965390     0.327911590888
    H            3.014136929634     0.690043225953     1.228407128313
    C           -1.513140475959    -0.303113924938    -0.911046733556
    C           -2.855695427026    -0.955167321797    -0.659651113288
    H           -0.921881700429    -0.894061239174    -1.604747024123
    H           -1.631926677888     0.691265194027    -1.323941506217
    H           -2.725388016936    -1.945653918042    -0.239400364705
    H           -3.407285930380    -1.043262819541    -1.590125628319
    H           -3.438384933795    -0.361235331442     0.034254586943

  Mulliken Charges: (a.u.)
   Center  Symbol    Alpha    Beta     Spin     Total
       1     O     4.25545  4.25545  0.00000 -0.51091
       2     C     2.61173  2.61173  0.00000  0.77654
       3     C     3.20929  3.20929  0.00000 -0.41857
       4     O     4.32309  4.32309  0.00000 -0.64619
       5     C     3.23946  3.23946  0.00000 -0.47891
       6     H     0.40647  0.40647  0.00000  0.18705
       7     H     0.39874  0.39874  0.00000  0.20253
       8     H     0.41028  0.41028  0.00000  0.17944
       9     H     0.41785  0.41785  0.00000  0.16430
      10     H     0.40890  0.40890  0.00000  0.18220
      11     C     3.00303  3.00303  0.00000 -0.00606
      12     C     3.24662  3.24662  0.00000 -0.49325
      13     H     0.42451  0.42451  0.00000  0.15098
      14     H     0.40904  0.40904  0.00000  0.18191
      15     H     0.41134  0.41134  0.00000  0.17733
      16     H     0.41745  0.41745  0.00000  0.16510
      17     H     0.40675  0.40675  0.00000  0.18651

   Total alpha = 28.00000, Total beta = 28.00000, Total charge = -0.00000
