                              Psi4 1.0.54 Driver

  ==> Input File <==

--------------------------------------------------------------------------
set {
	reference rhf
	basis cc-pvtz
}

set_num_threads( 4 )
memory 2 gb

molecule MOL {
0 1

H	 0.027562	 4.094352	 0.860125
O	 -0.141020	 3.809030	 -0.019121
C	 -0.147365	 2.410378	 -0.081343
C	 1.254179	 1.842965	 0.025940
H	 -0.774487	 1.979349	 0.692647
H	 -0.573147	 2.139046	 -1.036733
O	 1.172093	 0.457955	 -0.054438
H	 1.706602	 2.145107	 0.971942
H	 1.871559	 2.245586	 -0.774256
C	 2.395478	 -0.199028	 -0.000366
H	 2.505946	 -0.901710	 -0.823354
H	 3.174616	 0.545641	 -0.071768
H	 2.513730	 -0.742241	 0.934223

	symmetry c1
}
set optking {
	frozen_dihedral = ("
		4 7 10 13
	")
}

ee,wfn = optimize('scf', return_wfn=True)
oeprop( wfn, 'DIPOLE', 'QUADRUPOLE', 'MULLIKEN_CHARGES')
f=open( 'psi4out.xyz', 'w' )
f.write( "13  " )
f.write( str(ee) + "\n" )
f.write( MOL.save_string_xyz() )
f.close()
--------------------------------------------------------------------------

    Molecular point group: c1
  Charge       = 0
  Multiplicity = 1
  Basis Set: CC-PVTZ
  Basis Set:
  @DF-RHF Final Energy:  -268.05787037727544
    Total Energy =                       -268.0578703772755489
    Molecular point group: c1
  Basis Set: CC-PVTZ
  Basis Set:
  Basis Set: CC-PVTZ
  Basis Set:
  @DF-RHF Final Energy:  -268.05869534405190
    Total Energy =                       -268.0586953440520119
  Basis Set: CC-PVTZ
  Basis Set:
  Basis Set: CC-PVTZ
  Basis Set:
  @DF-RHF Final Energy:  -268.05897666670768
    Total Energy =                       -268.0589766667075651
  Basis Set: CC-PVTZ
  Basis Set:
  Charge       = 0
  Multiplicity = 1
  Basis Set: CC-PVTZ
  Basis Set:

    Orbital Energies (a.u.)
    -----------------------

    Doubly Occupied:

       1A    -20.552737     2A    -20.552530     3A    -11.269713
       4A    -11.267315     5A    -11.266935     6A     -1.387926
       7A     -1.368419     8A     -1.019465     9A     -0.914213
      10A     -0.842396    11A     -0.711281    12A     -0.673548
      13A     -0.660571    14A     -0.638889    15A     -0.597471
      16A     -0.570929    17A     -0.549623    18A     -0.491646
      19A     -0.483080    20A     -0.441115    21A     -0.419258

  @DF-RHF Final Energy:  -268.05897920800624

   => Energetics <=

    Nuclear Repulsion Energy =            190.1853472111331484
    One-Electron Energy =                -743.1305285468778266
    Two-Electron Energy =                 284.8862021277384429
    DFT Exchange-Correlation Energy =       0.0000000000000000
    Empirical Dispersion Energy =           0.0000000000000000
    PCM Polarization Energy =               0.0000000000000000
    EFP Energy =                            0.0000000000000000
    Total Energy =                       -268.0589792080062352
    Molecular point group: c1
  Basis Set: CC-PVTZ
  Basis Set:

  -Total Gradient:
     Atom            X                  Y                   Z
    ------   -----------------  -----------------  -----------------
       1       -0.000002151251     0.000007101191    -0.000001987707
       2       -0.000006389393     0.000031470431     0.000001572732
       3        0.000004660589     0.000002385807     0.000005063097
       4        0.000061202858     0.000122400440    -0.001234484241
       5       -0.000001404529    -0.000005148796    -0.000005654918
       6       -0.000001748729    -0.000004993838     0.000005116567
       7       -0.000133720382    -0.000567088648     0.001700662624
       8       -0.000006421670    -0.000025204687    -0.000015547106
       9       -0.000001536213    -0.000032200396    -0.000000745299
      10        0.000734294268     0.001783661603     0.000163683781
      11        0.000028520968    -0.000054300857     0.000009094816
      12        0.000053491400    -0.000016067614     0.000005317112
      13       -0.000728797918    -0.001242014638    -0.000632091459

  **** Optimization is complete! (in 4 steps) ****
    Final optimized geometry and variables:
    Molecular point group: c1

    Geometry (in Angstrom), charge = 0, multiplicity = 1:

    H           -0.885655476274     2.419889638699     0.851564083227
    O           -1.050588520308     2.125104794401    -0.025249160295
    C           -1.052095499156     0.725676269440    -0.072955948831
    C            0.351123270108     0.164690606632     0.043899526895
    H           -1.680095785027     0.300530375223     0.703539615241
    H           -1.473942554297     0.442604419896    -1.026704108932
    O            0.269681504564    -1.221740794041    -0.028555897762
    H            0.796414659570     0.478160052668     0.989305857501
    H            0.968180338602     0.563685358080    -0.757387639377
    C            1.479026700959    -1.914994578720     0.027398230418
    H            1.508719629102    -2.639248801465    -0.777227415486
    H            2.332082303455    -1.253267923071    -0.077230766995
    H            1.563696611347    -2.449328840857     0.967809493884

  Mulliken Charges: (a.u.)
   Center  Symbol    Alpha    Beta     Spin     Total
       1     H     0.39419  0.39419  0.00000  0.21161
       2     O     4.20211  4.20211  0.00000 -0.40422
       3     C     2.97511  2.97511  0.00000  0.04979
       4     C     2.96499  2.96499  0.00000  0.07002
       5     H     0.46687  0.46687  0.00000  0.06625
       6     H     0.45295  0.45295  0.00000  0.09409
       7     O     4.18007  4.18007  0.00000 -0.36014
       8     H     0.48203  0.48203  0.00000  0.03593
       9     H     0.46914  0.46914  0.00000  0.06171
      10     C     3.02772  3.02772  0.00000 -0.05543
      11     H     0.45385  0.45385  0.00000  0.09230
      12     H     0.47118  0.47118  0.00000  0.05765
      13     H     0.45978  0.45978  0.00000  0.08043

   Total alpha = 21.00000, Total beta = 21.00000, Total charge =  0.00000

*** Psi4 exiting successfully. Buy a developer a beer!
