                              Psi4 1.0.54 Driver

  ==> Input File <==

--------------------------------------------------------------------------
set {
	reference rhf
	basis cc-pvtz
}

set_num_threads( 4 )
memory 2 gb

molecule MOL {
0 1

H	 -3.401682	 -1.036167	 0.000000
O	 -3.113760	 -0.140926	 0.000000
C	 -1.775087	 -0.058754	 0.000000
C	 -1.084806	 0.741718	 0.901771
C	 -1.087855	 -0.807533	 -0.940863
H	 -1.624990	 1.319733	 1.628770
C	 0.288338	 0.789257	 0.858058
H	 -1.639353	 -1.418264	 -1.627068
C	 0.287152	 -0.748793	 -0.971389
H	 0.832559	 1.402900	 1.548258
C	 0.991481	 0.044776	 -0.078855
H	 0.821337	 -1.329289	 -1.700901
C	 2.464567	 0.091658	 -0.130646
O	 3.150055	 0.738618	 0.588871
H	 2.915851	 -0.534221	 -0.908090

	symmetry c1
}
set optking {
	frozen_dihedral = ("
		5 3 2 1
	")
}

ee,wfn = optimize('scf', return_wfn=True)
oeprop( wfn, 'DIPOLE', 'QUADRUPOLE', 'MULLIKEN_CHARGES')
f=open( 'psi4out.xyz', 'w' )
f.write( "15  " )
f.write( str(ee) + "\n" )
f.write( MOL.save_string_xyz() )
f.close()
--------------------------------------------------------------------------

    Molecular point group: c1
  Charge       = 0
  Multiplicity = 1
  Basis Set: CC-PVTZ
  Basis Set:
  @DF-RHF Final Energy:  -418.43743261992364
    Total Energy =                       -418.4374326199236975
    Molecular point group: c1
  Basis Set: CC-PVTZ
  Basis Set:
  Basis Set: CC-PVTZ
  Basis Set:
  @DF-RHF Final Energy:  -418.17013094739195
    Total Energy =                       -418.1701309473918400
  Basis Set: CC-PVTZ
  Basis Set:
  Basis Set: CC-PVTZ
  Basis Set:
  @DF-RHF Final Energy:  -418.33549126126150
    Total Energy =                       -418.3354912612616090
  Basis Set: CC-PVTZ
  Basis Set:
  Basis Set: CC-PVTZ
  Basis Set:
  @DF-RHF Final Energy:  -418.43025025735454
    Total Energy =                       -418.4302502573543734
  Basis Set: CC-PVTZ
  Basis Set:
  @DF-RHF Final Energy:  -418.43567544319791
    Total Energy =                       -418.4356754431978516
  @DF-RHF Final Energy:  -418.43873500467748
    Total Energy =                       -418.4387350046772553
  @DF-RHF Final Energy:  -418.43838837139992
    Total Energy =                       -418.4383883713999239
  Basis Set: CC-PVTZ
  Basis Set:
  @DF-RHF Final Energy:  -418.43905170470919
    Total Energy =                       -418.4390517047097546
  Basis Set: CC-PVTZ
  Basis Set:
  Basis Set: CC-PVTZ
  Basis Set:
  @DF-RHF Final Energy:  -418.43910673811558
    Total Energy =                       -418.4391067381155835
  Basis Set: CC-PVTZ
  Basis Set:
  Basis Set: CC-PVTZ
  Basis Set:
  @DF-RHF Final Energy:  -418.43911220463696
    Total Energy =                       -418.4391122046371265
  Basis Set: CC-PVTZ
  Basis Set:
  Charge       = 0
  Multiplicity = 1
  Basis Set: CC-PVTZ
  Basis Set:

    Orbital Energies (a.u.)
    -----------------------

    Doubly Occupied:

       1A    -20.595017     2A    -20.548455     3A    -11.324747
       4A    -11.316866     5A    -11.259273     6A    -11.251608
       7A    -11.242326     8A    -11.240590     9A    -11.237905
      10A     -1.425805    11A     -1.404658    12A     -1.175488
      13A     -1.045921    14A     -1.040406    15A     -0.894007
      16A     -0.860328    17A     -0.803696    18A     -0.758940
      19A     -0.702946    20A     -0.686065    21A     -0.646091
      22A     -0.633163    23A     -0.623552    24A     -0.610042
      25A     -0.568098    26A     -0.558591    27A     -0.549969
      28A     -0.506306    29A     -0.489577    30A     -0.423577
      31A     -0.360580    32A     -0.339558

  @DF-RHF Final Energy:  -418.43911262438286

   => Energetics <=

    Nuclear Repulsion Energy =            401.9464393873273025
    One-Electron Energy =               -1366.5228008405888431
    Two-Electron Energy =                 546.1372488288787963
    DFT Exchange-Correlation Energy =       0.0000000000000000
    Empirical Dispersion Energy =           0.0000000000000000
    PCM Polarization Energy =               0.0000000000000000
    EFP Energy =                            0.0000000000000000
    Total Energy =                       -418.4391126243828012
    Molecular point group: c1
  Basis Set: CC-PVTZ
  Basis Set:

  -Total Gradient:
     Atom            X                  Y                   Z
    ------   -----------------  -----------------  -----------------
       1       -0.000051873674    -0.001854571316     0.002875498084
       2        0.000168978600     0.003640193987    -0.003753034777
       3       -0.000185490220    -0.004241161808     0.001264030394
       4       -0.000045144006    -0.000029075224    -0.000017975139
       5        0.000185090718     0.002501367822    -0.000350384111
       6        0.000003683432     0.000003923899     0.000012337585
       7        0.000005734796    -0.000026285088    -0.000027318163
       8        0.000005052026    -0.000000649799    -0.000003356145
       9       -0.000059560977    -0.000033421849    -0.000029010796
      10       -0.000008378091     0.000007685337     0.000010377573
      11       -0.000000473172     0.000043145552     0.000042750915
      12        0.000002312149     0.000003940191    -0.000006869881
      13        0.000005082340    -0.000050339307    -0.000036115614
      14       -0.000013365255     0.000019971462     0.000026780033
      15       -0.000011648669     0.000015276141    -0.000007709954

  **** Optimization is complete! (in 11 steps) ****
    Final optimized geometry and variables:
    Molecular point group: c1

    Geometry (in Angstrom), charge = 0, multiplicity = 1:

    H           -3.494259001574    -0.688760410680    -0.606853994343
    O           -3.118721323390     0.034990636247    -0.137097372265
    C           -1.766791350881    -0.024475948424    -0.146115866057
    C           -1.097750279323     0.179798486818     1.052804788127
    C           -1.061490941513    -0.208619737022    -1.320532115003
    H           -1.669795728194     0.334082841622     1.945914231644
    C            0.275556744522     0.181260665512     1.072863983227
    H           -1.588801568315    -0.336168792292    -2.246525343360
    C            0.318950348790    -0.216983528931    -1.285832964639
    H            0.807026568523     0.335000359596     1.990995238258
    C            0.998572614767    -0.022662289000    -0.097417438308
    H            0.868950839483    -0.365286411614    -2.196825991279
    C            2.475869688071    -0.028174228920    -0.084101054633
    O            3.146027136199     0.127465256744     0.880593985259
    H            2.941829680915    -0.191912161777    -1.061880156176

  Mulliken Charges: (a.u.)
   Center  Symbol    Alpha    Beta     Spin     Total
       1     H     0.38378  0.38378  0.00000  0.23244
       2     O     4.17882  4.17882  0.00000 -0.35764
       3     C     2.85930  2.85930  0.00000  0.28139
       4     C     3.10641  3.10641  0.00000 -0.21282
       5     C     3.12288  3.12288  0.00000 -0.24577
       6     H     0.41308  0.41308  0.00000  0.17384
       7     C     3.06422  3.06422  0.00000 -0.12845
       8     H     0.42182  0.42182  0.00000  0.15635
       9     C     3.07627  3.07627  0.00000 -0.15253
      10     H     0.40710  0.40710  0.00000  0.18579
      11     C     2.99805  2.99805  0.00000  0.00390
      12     H     0.42121  0.42121  0.00000  0.15759
      13     C     2.91072  2.91072  0.00000  0.17856
      14     O     4.17632  4.17632  0.00000 -0.35263
      15     H     0.46002  0.46002  0.00000  0.07997

   Total alpha = 32.00000, Total beta = 32.00000, Total charge =  0.00000

*** Psi4 exiting successfully. Buy a developer a beer!
