  ==> Input File <==

--------------------------------------------------------------------------
set {
	reference rhf
	basis 6-31G*
}

set_num_threads( 4 )
memory 2 gb

molecule MOL {
0 1

O	 2.862325	 1.357334	 0.000267
C	 2.843464	 0.164689	 -0.000222
C	 1.546494	 -0.624492	 -0.000609
C	 4.124123	 -0.644674	 -0.000428
C	 0.291004	 0.242674	 0.000989
H	 1.557904	 -1.283758	 -0.867573
H	 1.558622	 -1.285963	 0.864672
C	 -0.994322	 -0.586602	 0.000262
H	 0.309117	 0.896430	 -0.865270
H	 0.309661	 0.894078	 0.869017
C	 -2.259874	 0.272531	 0.000494
H	 -1.004862	 -1.240012	 -0.870939
H	 -1.005220	 -1.241071	 0.870675
C	 -3.222185	 -0.067478	 1.139952
H	 -2.774532	 0.154609	 -0.951473
H	 -1.981313	 1.322757	 0.067021
C	 -4.484019	 0.794737	 1.133356
H	 -3.502286	 -1.116759	 1.073804
H	 -2.709310	 0.051485	 2.092142
H	 -5.037777	 0.671972	 0.206841
H	 -5.146257	 0.529868	 1.951882
H	 -4.239283	 1.848401	 1.233563
H	 4.165367	 -1.288615	 -0.874074
H	 4.976217	 0.020734	 -0.001915
H	 4.166763	 -1.286207	 0.874930

	symmetry c1
}
set optking {
	frozen_dihedral = ("
		15 11 8 12
	")
}

ee = optimize('scf')
oeprop('DIPOLE', 'QUADRUPOLE', 'MULLIKEN_CHARGES')
f=open( 'psi4out.xyz', 'w' )
f.write( "25  " )
f.write( str(ee) + "\n" )
f.write( MOL.save_string_xyz() )
f.close()
--------------------------------------------------------------------------

    Molecular point group: c1
  Charge       = 0
  Multiplicity = 1
  Basis Set: 6-31G*
  Basis Set:
  @DF-RHF Final Energy:  -387.13107407827363
    Total Energy =                       -387.1310740782740822
    Molecular point group: c1
  Basis Set: 6-31G*
  Basis Set:
  Basis Set: 6-31G*
  Basis Set:
  @DF-RHF Final Energy:  -387.13128496075910
    Total Energy =                       -387.1312849607588760
  Basis Set: 6-31G*
  Basis Set:
  Basis Set: 6-31G*
  Basis Set:
  @DF-RHF Final Energy:  -387.13135180022908
    Total Energy =                       -387.1313518002289129
  Basis Set: 6-31G*
  Basis Set:
  Basis Set: 6-31G*
  Basis Set:
  @DF-RHF Final Energy:  -387.13092976666348
    Total Energy =                       -387.1309297666634848
  Basis Set: 6-31G*
  Basis Set:
  Basis Set: 6-31G*
  Basis Set:
  @DF-RHF Final Energy:  -387.13135808016176
    Total Energy =                       -387.1313580801613625
  Basis Set: 6-31G*
  Basis Set:
  Charge       = 0
  Multiplicity = 1
  Basis Set: 6-31G*
  Basis Set:

    Orbital Energies (a.u.)
    -----------------------

    Doubly Occupied:

       1A    -20.550445     2A    -11.326330     3A    -11.231649
       4A    -11.228332     5A    -11.217179     6A    -11.216407
       7A    -11.215398     8A    -11.213206     9A    -11.207838
      10A     -1.395757    11A     -1.092003    12A     -1.055658
      13A     -1.014078    14A     -0.967793    15A     -0.890759
      16A     -0.816589    17A     -0.789596    18A     -0.730301
      19A     -0.655052    20A     -0.651851    21A     -0.634114
      22A     -0.620922    23A     -0.600646    24A     -0.581806
      25A     -0.565177    26A     -0.563038    27A     -0.539190
      28A     -0.529441    29A     -0.509184    30A     -0.489405
      31A     -0.485686    32A     -0.479004    33A     -0.464450
      34A     -0.455068    35A     -0.448667    36A     -0.399366

  @DF-RHF Final Energy:  -387.13135747770150

   => Energetics <=

    Nuclear Repulsion Energy =            439.5339928158629164
    One-Electron Energy =               -1395.6679284227473090
    Two-Electron Energy =                 569.0025781291831208
    DFT Exchange-Correlation Energy =       0.0000000000000000
    Empirical Dispersion Energy =           0.0000000000000000
    PCM Polarization Energy =               0.0000000000000000
    EFP Energy =                            0.0000000000000000
    Total Energy =                       -387.1313574777012718
    Molecular point group: c1
  Basis Set: 6-31G*
  Basis Set:

  -Total Gradient:
     Atom            X                  Y                   Z
    ------   -----------------  -----------------  -----------------
       1       -0.000000778349    -0.000005722889    -0.000020553442
       2        0.000007152832    -0.000006324656     0.000055787302
       3       -0.000003411562    -0.000012194707    -0.000052150705
       4        0.000007854960     0.000004751778    -0.000030657975
       5       -0.000027700200     0.000004059046     0.000050805026
       6        0.000008320962    -0.000008594766     0.000002177602
       7        0.000005445597     0.000008346499    -0.000002647268
       8       -0.001024840240    -0.001525180379     0.001017170429
       9       -0.000019902929     0.000021717105     0.000012046460
      10        0.000005926602    -0.000010770010     0.000004873103
      11        0.001072542277     0.001581170867    -0.000866861698
      12        0.000698065126     0.000996086981    -0.000751260903
      13       -0.000025287532     0.000017330627     0.000006299441
      14        0.000047403594     0.000043644247     0.000024447219
      15       -0.000752881083    -0.001080828562     0.000540418562
      16        0.000028673978    -0.000016929241     0.000013813576
      17       -0.000039164798    -0.000022127730    -0.000032366050
      18        0.000029452469    -0.000009338118     0.000020933461
      19       -0.000004519100     0.000026579256     0.000003245259
      20       -0.000005477224     0.000017234773    -0.000002915532
      21       -0.000013268437    -0.000008969688    -0.000007523660
      22        0.000002680098    -0.000013040110     0.000007299668
      23        0.000001948920    -0.000001214424     0.000005067196
      24        0.000004876289    -0.000002047799    -0.000000778924
      25       -0.000003112260     0.000002361896     0.000003331853

  **** Optimization is complete! (in 6 steps) ****
    Final optimized geometry and variables:
    Molecular point group: c1

    Geometry (in Angstrom), charge = 0, multiplicity = 1:

    O            2.800031491840     1.244254088425    -0.257626200604
    C            2.778933764364     0.051662712762    -0.263322274703
    C            1.480432381861    -0.735118034855    -0.258212162190
    C            4.058056758603    -0.760008479865    -0.276426754663
    C            0.226819164447     0.134013082660    -0.246253526637
    H            1.485317064168    -1.391892389354    -1.127198186316
    H            1.496616522286    -1.399396154033     0.604967293885
    C           -1.061915998887    -0.692426076293    -0.239110171835
    H            0.238820161222     0.789691890598    -1.111272169627
    H            0.250920493864     0.783989030872     0.622956685819
    C           -2.339851500193     0.175349091547    -0.244159410302
    H           -1.060025779869    -1.349648833750    -1.105391796446
    H           -1.062117410854    -1.341941199676     0.633641856777
    C           -3.315743380783    -0.169628803084     0.884107197490
    H           -2.857683751373     0.063373638454    -1.193322467699
    H           -2.072168013095     1.226361455090    -0.166650561346
    C           -4.584604205239     0.680880672686     0.858246858355
    H           -3.584108591283    -1.222078522159     0.817577584979
    H           -2.814534067371    -0.043212168022     1.841743681620
    H           -5.125457770584     0.550049324566    -0.074904582103
    H           -5.255069150574     0.413051579255     1.669094656588
    H           -4.350477400455     1.737065098303     0.957741202854
    H            4.092045467045    -1.399571658079    -1.153585384944
    H            4.911395953994    -0.096211961447    -0.280452435989
    H            4.105516095431    -1.406080414371     0.595352012050

  Mulliken Charges: (a.u.)
   Center  Symbol    Alpha    Beta     Spin     Total
       1     O     4.26117  4.26117  0.00000 -0.52235
       2     C     2.73563  2.73563  0.00000  0.52873
       3     C     3.21142  3.21142  0.00000 -0.42284
       4     C     3.28667  3.28667  0.00000 -0.57333
       5     C     3.15029  3.15029  0.00000 -0.30058
       6     H     0.41008  0.41008  0.00000  0.17983
       7     H     0.40998  0.40998  0.00000  0.18003
       8     C     3.15669  3.15669  0.00000 -0.31339
       9     H     0.41168  0.41168  0.00000  0.17664
      10     H     0.41228  0.41228  0.00000  0.17545
      11     C     3.15410  3.15410  0.00000 -0.30820
      12     H     0.42245  0.42245  0.00000  0.15510
      13     H     0.42210  0.42210  0.00000  0.15581
      14     C     3.15338  3.15338  0.00000 -0.30675
      15     H     0.42123  0.42123  0.00000  0.15754
      16     H     0.41814  0.41814  0.00000  0.16373
      17     C     3.24019  3.24019  0.00000 -0.48037
      18     H     0.42328  0.42328  0.00000  0.15344
      19     H     0.42316  0.42316  0.00000  0.15369
      20     H     0.42187  0.42187  0.00000  0.15626
      21     H     0.41943  0.41943  0.00000  0.16114
      22     H     0.42087  0.42087  0.00000  0.15827
      23     H     0.40873  0.40873  0.00000  0.18253
      24     H     0.39647  0.39647  0.00000  0.20705
      25     H     0.40872  0.40872  0.00000  0.18256

   Total alpha = 36.00000, Total beta = 36.00000, Total charge = -0.00000
