  ==> Input File <==

--------------------------------------------------------------------------
set {
	reference rhf
	basis 6-31G*
}

set_num_threads( 4 )
memory 2 gb

molecule MOL {
0 1

H	 2.054974	 -0.996389	 0.872606
C	 1.961204	 -0.220919	 0.102765
C	 0.692068	 0.589600	 0.160137
O	 2.825289	 -0.067956	 -0.698540
C	 -0.558097	 -0.297372	 0.091132
H	 0.711480	 1.309159	 -0.650010
H	 0.692054	 1.140326	 1.100100
C	 -1.850991	 0.512573	 -0.019058
H	 -0.476753	 -0.965681	 -0.762987
H	 -0.604799	 -0.930658	 0.975228
C	 -3.096943	 -0.368295	 -0.099594
H	 -1.800724	 1.150330	 -0.898172
H	 -1.931651	 1.177355	 0.838044
H	 -3.060452	 -1.020287	 -0.967456
H	 -3.996858	 0.233488	 -0.175704
H	 -3.191959	 -0.995686	 0.782074

	symmetry c1
}
set optking {
	frozen_dihedral = ("
		6 3 5 9
	")
}

ee = optimize('scf')
oeprop('DIPOLE', 'QUADRUPOLE', 'MULLIKEN_CHARGES')
f=open( 'psi4out.xyz', 'w' )
f.write( "16  " )
f.write( str(ee) + "\n" )
f.write( MOL.save_string_xyz() )
f.close()
--------------------------------------------------------------------------

    Molecular point group: c1
  Charge       = 0
  Multiplicity = 1
  Basis Set: 6-31G*
  Basis Set:
  @DF-RHF Final Energy:  -270.01963779751441
    Total Energy =                       -270.0196377975145197
    Molecular point group: c1
  Basis Set: 6-31G*
  Basis Set:
  Basis Set: 6-31G*
  Basis Set:
  @DF-RHF Final Energy:  -270.01943266693638
    Total Energy =                       -270.0194326669364386
  Basis Set: 6-31G*
  Basis Set:
  Basis Set: 6-31G*
  Basis Set:
  @DF-RHF Final Energy:  -270.01948107631233
    Total Energy =                       -270.0194810763125020
  Basis Set: 6-31G*
  Basis Set:
  Basis Set: 6-31G*
  Basis Set:
  @DF-RHF Final Energy:  -270.01965849654971
    Total Energy =                       -270.0196584965497095
  Basis Set: 6-31G*
  Basis Set:
  Basis Set: 6-31G*
  Basis Set:
  @DF-RHF Final Energy:  -270.01965542974477
    Total Energy =                       -270.0196554297444891
  Basis Set: 6-31G*
  Basis Set:
  Basis Set: 6-31G*
  Basis Set:
  @DF-RHF Final Energy:  -270.01968075665536
    Total Energy =                       -270.0196807566557027
  Basis Set: 6-31G*
  Basis Set:
  Charge       = 0
  Multiplicity = 1
  Basis Set: 6-31G*
  Basis Set:

    Orbital Energies (a.u.)
    -----------------------

    Doubly Occupied:

       1A    -20.562369     2A    -11.326638     3A    -11.236694
       4A    -11.235220     5A    -11.229477     6A    -11.218502
       7A     -1.402168     8A     -1.096552     9A     -1.018992
      10A     -0.906080    11A     -0.812234    12A     -0.793834
      13A     -0.677916    14A     -0.646620    15A     -0.631113
      16A     -0.602820    17A     -0.583168    18A     -0.548856
      19A     -0.527495    20A     -0.509611    21A     -0.487984
      22A     -0.482353    23A     -0.477533    24A     -0.409261

  @DF-RHF Final Energy:  -270.01968155472480

   => Energetics <=

    Nuclear Repulsion Energy =            228.8285242195150602
    One-Electron Energy =                -818.8494317938632321
    Two-Electron Energy =                 320.0012260196235161
    DFT Exchange-Correlation Energy =       0.0000000000000000
    Empirical Dispersion Energy =           0.0000000000000000
    PCM Polarization Energy =               0.0000000000000000
    EFP Energy =                            0.0000000000000000
    Total Energy =                       -270.0196815547246274
    Molecular point group: c1
  Basis Set: 6-31G*
  Basis Set:

  -Total Gradient:
     Atom            X                  Y                   Z
    ------   -----------------  -----------------  -----------------
       1        0.000016821579     0.000025673958     0.000023612849
       2       -0.000069256530    -0.000035705365    -0.000062345119
       3        0.001248675072    -0.001513360704    -0.000924879414
       4        0.000014570028    -0.000006923171     0.000002031879
       5       -0.001097885000     0.001585708160    -0.000928334290
       6       -0.000802475615     0.001043853918     0.000918591549
       7       -0.000030392085    -0.000018586424     0.000013556209
       8        0.000006264473    -0.000001021596     0.000058559082
       9        0.000727471935    -0.001092527899     0.000905016895
      10       -0.000011748029     0.000015246834     0.000009087729
      11        0.000000305959    -0.000001733053    -0.000046449137
      12       -0.000011581421    -0.000003686643     0.000012193926
      13        0.000010211825     0.000000845820     0.000012676088
      14        0.000005306313    -0.000016938830     0.000013613389
      15        0.000000246349    -0.000000157640    -0.000017304773
      16       -0.000006534853     0.000019312633     0.000010373138

  **** Optimization is complete! (in 7 steps) ****
    Final optimized geometry and variables:
    Molecular point group: c1

    Geometry (in Angstrom), charge = 0, multiplicity = 1:

    H            2.038662497307    -1.033770984006     0.948298215220
    C            1.967364326334    -0.241492028310     0.193510623486
    C            0.696828136612     0.566261913014     0.229608191000
    O            2.854553954198    -0.071600130536    -0.578705349417
    C           -0.553954681441    -0.319765747500     0.147124732044
    H            0.723364747783     1.292549634098    -0.574408283967
    H            0.681317083193     1.118264728010     1.168916014823
    C           -1.846948308748     0.490684131282     0.053076616049
    H           -0.473228732071    -0.984481298699    -0.710389388291
    H           -0.596190968329    -0.963832255795     1.023562560898
    C           -3.094544990549    -0.389205026421    -0.008504353593
    H           -1.807753447594     1.126118736014    -0.828148877420
    H           -1.915147536680     1.157890761784     0.909513931661
    H           -3.066597366880    -1.049194354683    -0.870623913691
    H           -3.994134454659     0.213314097025    -0.082327580216
    H           -3.182860163831    -1.008390754169     0.879574662727

  Mulliken Charges: (a.u.)
   Center  Symbol    Alpha    Beta     Spin     Total
       1     H     0.43196  0.43196  0.00000  0.13607
       2     C     2.82941  2.82941  0.00000  0.34117
       3     C     3.20856  3.20856  0.00000 -0.41713
       4     O     4.23745  4.23745  0.00000 -0.47490
       5     C     3.16426  3.16426  0.00000 -0.32852
       6     H     0.39942  0.39942  0.00000  0.20115
       7     H     0.40929  0.40929  0.00000  0.18142
       8     C     3.15153  3.15153  0.00000 -0.30307
       9     H     0.41356  0.41356  0.00000  0.17289
      10     H     0.41922  0.41922  0.00000  0.16156
      11     C     3.24053  3.24053  0.00000 -0.48107
      12     H     0.41799  0.41799  0.00000  0.16401
      13     H     0.42065  0.42065  0.00000  0.15870
      14     H     0.41928  0.41928  0.00000  0.16145
      15     H     0.41634  0.41634  0.00000  0.16731
      16     H     0.42054  0.42054  0.00000  0.15893

   Total alpha = 24.00000, Total beta = 24.00000, Total charge = -0.00000
