                              Psi4 1.0.54 Driver

  ==> Input File <==

--------------------------------------------------------------------------
set {
	reference rhf
	basis cc-pvtz
}

set_num_threads( 4 )
memory 2 gb

molecule MOL {
0 1

O	 -1.391307	 -0.205586	 -0.968356
C	 -1.081510	 0.147522	 0.122720
C	 0.327029	 -0.064006	 0.641890
C	 -2.072028	 0.805208	 1.053629
C	 1.349460	 -0.017068	 -0.500215
H	 0.399029	 -1.014606	 1.159950
H	 0.538021	 0.726928	 1.350471
C	 2.779782	 -0.209014	 -0.009215
H	 1.115007	 -0.782959	 -1.233891
H	 1.259071	 0.936707	 -1.006644
H	 3.481860	 -0.160270	 -0.833072
H	 2.903471	 -1.171535	 0.475559
H	 3.052569	 0.559584	 0.705428
H	 -2.063401	 0.322558	 2.024572
H	 -3.063545	 0.765926	 0.629543
H	 -1.784322	 1.840243	 1.207839

	symmetry c1
}
set optking {
	frozen_dihedral = ("
		4 2 3 5
	")
}

ee,wfn = optimize('scf', return_wfn=True)
oeprop( wfn, 'DIPOLE', 'QUADRUPOLE', 'MULLIKEN_CHARGES')
f=open( 'psi4out.xyz', 'w' )
f.write( "16  " )
f.write( str(ee) + "\n" )
f.write( MOL.save_string_xyz() )
f.close()
--------------------------------------------------------------------------

    Molecular point group: c1
  Charge       = 0
  Multiplicity = 1
  Basis Set: CC-PVTZ
  Basis Set:
  @DF-RHF Final Energy:  -270.12933208073423
    Total Energy =                       -270.1293320807343434
    Molecular point group: c1
  Basis Set: CC-PVTZ
  Basis Set:
  Basis Set: CC-PVTZ
  Basis Set:
  @DF-RHF Final Energy:  -270.12961387956500
    Total Energy =                       -270.1296138795648858
  Basis Set: CC-PVTZ
  Basis Set:
  Basis Set: CC-PVTZ
  Basis Set:
  @DF-RHF Final Energy:  -270.13021244339905
    Total Energy =                       -270.1302124433987046
  Basis Set: CC-PVTZ
  Basis Set:
  Basis Set: CC-PVTZ
  Basis Set:
  @DF-RHF Final Energy:  -270.13038639195372
    Total Energy =                       -270.1303863919539481
  Basis Set: CC-PVTZ
  Basis Set:
  Basis Set: CC-PVTZ
  Basis Set:
  @DF-RHF Final Energy:  -270.13038418395348
    Total Energy =                       -270.1303841839533675
  Basis Set: CC-PVTZ
  Basis Set:
  Basis Set: CC-PVTZ
  Basis Set:
  @DF-RHF Final Energy:  -270.13039014134125
    Total Energy =                       -270.1303901413411381
  Basis Set: CC-PVTZ
  Basis Set:
  Charge       = 0
  Multiplicity = 1
  Basis Set: CC-PVTZ
  Basis Set:

    Orbital Energies (a.u.)
    -----------------------

    Doubly Occupied:

       1A    -20.538260     2A    -11.321114     3A    -11.230425
       4A    -11.227553     5A    -11.220232     6A    -11.212813
       7A     -1.398832     8A     -1.078911     9A     -1.016771
      10A     -0.948173    11A     -0.825680    12A     -0.733719
      13A     -0.658326    14A     -0.650899    15A     -0.624432
      16A     -0.601266    17A     -0.569506    18A     -0.561347
      19A     -0.546552    20A     -0.505755    21A     -0.495587
      22A     -0.482827    23A     -0.476675    24A     -0.402084

  @DF-RHF Final Energy:  -270.13039533980236

   => Energetics <=

    Nuclear Repulsion Energy =            237.2083419853338171
    One-Electron Energy =                -836.0219956025691772
    Two-Electron Energy =                 328.6832582774330831
    DFT Exchange-Correlation Energy =       0.0000000000000000
    Empirical Dispersion Energy =           0.0000000000000000
    PCM Polarization Energy =               0.0000000000000000
    EFP Energy =                            0.0000000000000000
    Total Energy =                       -270.1303953398022486
    Molecular point group: c1
  Basis Set: CC-PVTZ
  Basis Set:

  -Total Gradient:
     Atom            X                  Y                   Z
    ------   -----------------  -----------------  -----------------
       1       -0.000013931968    -0.000008862224    -0.000007485616
       2       -0.000326818183    -0.001038357302     0.000752229627
       3       -0.000037874152    -0.001114182026    -0.000433962123
       4        0.000270828441     0.001076874248    -0.000473797047
       5        0.000100497720     0.001123969886     0.000152269423
       6       -0.000007138560    -0.000006440842     0.000012646582
       7        0.000002589404    -0.000002044131    -0.000008177856
       8       -0.000000748204     0.000004862323    -0.000012875112
       9        0.000006217291     0.000011931679     0.000018767277
      10        0.000010437670    -0.000007391193    -0.000001101760
      11        0.000002355019    -0.000002495788     0.000002849850
      12       -0.000010165384     0.000006353194    -0.000003634224
      13       -0.000007741062    -0.000003837346    -0.000005582765
      14        0.000005105913    -0.000008090622    -0.000006160883
      15        0.000010663183    -0.000001113765     0.000008485774
      16       -0.000004277130    -0.000031176093     0.000005528854

  **** Optimization is complete! (in 7 steps) ****
    Final optimized geometry and variables:
    Molecular point group: c1

    Geometry (in Angstrom), charge = 0, multiplicity = 1:

    O           -1.426104643982    -0.273194936111    -1.024003693527
    C           -1.083497397106     0.071918595393     0.059412801247
    C            0.340129519880    -0.120238381016     0.547706113002
    C           -2.046618411880     0.724982000556     1.021603406021
    C            1.384965551002    -0.079715066933    -0.562087110771
    H            0.362919150289    -1.084008307943     1.053531330441
    H            0.561644983639     0.621429515689     1.308706133114
    C            2.796643670675    -0.326979009128    -0.041955700608
    H            1.130895744534    -0.815056250532    -1.313615804285
    H            1.341331690918     0.886236541011    -1.054838160751
    H            3.519135333720    -0.284938855952    -0.848280007096
    H            2.877818197180    -1.303820472958     0.423356088274
    H            3.083016681526     0.414779064506     0.696555135740
    H           -1.996255735256     0.250650359014     1.995564547130
    H           -3.052520979457     0.671772253560     0.634468359967
    H           -1.764485318881     1.764293662762     1.155550726845

  Mulliken Charges: (a.u.)
   Center  Symbol    Alpha    Beta     Spin     Total
       1     O     4.17302  4.17302  0.00000 -0.34604
       2     C     2.86034  2.86034  0.00000  0.27932
       3     C     3.10589  3.10589  0.00000 -0.21179
       4     C     3.15264  3.15264  0.00000 -0.30527
       5     C     3.08168  3.08168  0.00000 -0.16335
       6     H     0.44467  0.44467  0.00000  0.11067
       7     H     0.44653  0.44653  0.00000  0.10694
       8     C     3.14975  3.14975  0.00000 -0.29949
       9     H     0.44005  0.44005  0.00000  0.11989
      10     H     0.45207  0.45207  0.00000  0.09586
      11     H     0.44591  0.44591  0.00000  0.10817
      12     H     0.45498  0.45498  0.00000  0.09004
      13     H     0.45677  0.45677  0.00000  0.08646
      14     H     0.45028  0.45028  0.00000  0.09943
      15     H     0.43618  0.43618  0.00000  0.12764
      16     H     0.44923  0.44923  0.00000  0.10153

   Total alpha = 24.00000, Total beta = 24.00000, Total charge = -0.00000

*** Psi4 exiting successfully. Buy a developer a beer!
