  ==> Input File <==

--------------------------------------------------------------------------
set {
	reference rhf
	basis 6-31G*
}

set_num_threads( 4 )
memory 2 gb

molecule MOL {
0 1

H	 2.556795	 0.233191	 -1.081261
O	 1.703527	 -0.185944	 -1.136454
C	 1.050492	 0.053836	 0.000068
C	 -0.318135	 -0.576402	 0.000164
O	 1.527515	 0.692347	 0.880833
C	 -1.454360	 0.441875	 -0.000474
H	 -0.374042	 -1.230163	 -0.866135
H	 -0.374274	 -1.229227	 0.867154
C	 -2.826123	 -0.230780	 0.000056
H	 -1.357605	 1.085198	 -0.868380
H	 -1.357504	 1.086451	 0.866496
H	 -2.959731	 -0.858053	 -0.876869
H	 -3.619374	 0.509403	 -0.000080
H	 -2.959371	 -0.857318	 0.877556

	symmetry c1
}
set optking {
	frozen_dihedral = ("
		2 3 4 7
	")
}

ee = optimize('scf')
oeprop('DIPOLE', 'QUADRUPOLE', 'MULLIKEN_CHARGES')
f=open( 'psi4out.xyz', 'w' )
f.write( "14  " )
f.write( str(ee) + "\n" )
f.write( MOL.save_string_xyz() )
f.close()
--------------------------------------------------------------------------

    Molecular point group: c1
  Charge       = 0
  Multiplicity = 1
  Basis Set: 6-31G*
  Basis Set:
  @DF-RHF Final Energy:  -305.87837004048595
    Total Energy =                       -305.8783700404859474
    Molecular point group: c1
  Basis Set: 6-31G*
  Basis Set:
  Basis Set: 6-31G*
  Basis Set:
  @DF-RHF Final Energy:  -305.87877000564185
    Total Energy =                       -305.8787700056418544
  Basis Set: 6-31G*
  Basis Set:
  Basis Set: 6-31G*
  Basis Set:
  @DF-RHF Final Energy:  -305.87778085027668
    Total Energy =                       -305.8777808502764515
  Basis Set: 6-31G*
  Basis Set:
  Basis Set: 6-31G*
  Basis Set:
  @DF-RHF Final Energy:  -305.87908687517074
    Total Energy =                       -305.8790868751706284
  Basis Set: 6-31G*
  Basis Set:
  Basis Set: 6-31G*
  Basis Set:
  @DF-RHF Final Energy:  -305.87909221611437
    Total Energy =                       -305.8790922161147137
  Basis Set: 6-31G*
  Basis Set:
  Charge       = 0
  Multiplicity = 1
  Basis Set: 6-31G*
  Basis Set:

    Orbital Energies (a.u.)
    -----------------------

    Doubly Occupied:

       1A    -20.615018     2A    -20.548693     3A    -11.380789
       4A    -11.239564     5A    -11.233851     6A    -11.220157
       7A     -1.475125     8A     -1.364756     9A     -1.085184
      10A     -0.979322    11A     -0.854610    12A     -0.803361
      13A     -0.702155    14A     -0.687052    15A     -0.648313
      16A     -0.629905    17A     -0.593671    18A     -0.570159
      19A     -0.551408    20A     -0.513520    21A     -0.496320
      22A     -0.487996    23A     -0.470572    24A     -0.440396

  @DF-RHF Final Energy:  -305.87909287013520

   => Energetics <=

    Nuclear Repulsion Energy =            240.1212698878783840
    One-Electron Energy =                -892.8169299682635938
    Two-Electron Energy =                 346.8165672102500139
    DFT Exchange-Correlation Energy =       0.0000000000000000
    Empirical Dispersion Energy =           0.0000000000000000
    PCM Polarization Energy =               0.0000000000000000
    EFP Energy =                            0.0000000000000000
    Total Energy =                       -305.8790928701351959
    Molecular point group: c1
  Basis Set: 6-31G*
  Basis Set:

  -Total Gradient:
     Atom            X                  Y                   Z
    ------   -----------------  -----------------  -----------------
       1        0.000016390732     0.000006209893    -0.000009531730
       2       -0.000110350699     0.000158103486    -0.000045323760
       3        0.000067576562    -0.000241641411     0.000199089972
       4       -0.000117021394     0.000271735570    -0.000169649635
       5        0.000002388589    -0.000016245981    -0.000043387985
       6        0.000028008075     0.000054719018    -0.000040005634
       7        0.000096594049    -0.000203317136     0.000132770828
       8        0.000001887000    -0.000013589802    -0.000051266372
       9        0.000006107021    -0.000031810466     0.000034601748
      10        0.000003753691    -0.000008788851     0.000014353434
      11       -0.000001282089     0.000020914654    -0.000023776102
      12        0.000001334119     0.000012436938    -0.000004280095
      13        0.000008177505     0.000008098843     0.000012361855
      14       -0.000003563170    -0.000016824755    -0.000005956526

  **** Optimization is complete! (in 6 steps) ****
    Final optimized geometry and variables:
    Molecular point group: c1

    Geometry (in Angstrom), charge = 0, multiplicity = 1:

    H            2.581805248108     0.273019901224    -0.985149530463
    O            1.749290928669    -0.182213061835    -1.069833563984
    C            1.060761436069     0.006006800765     0.053133555218
    C           -0.295365419612    -0.652028601495     0.033420036392
    O            1.488135114768     0.648971376183     0.957224237363
    C           -1.417880292016     0.395364494555     0.038521840316
    H           -0.375311639096    -1.300564018820    -0.829666963330
    H           -0.365627408298    -1.263789926680     0.926674679116
    C           -2.802143175271    -0.248675175337     0.074155373491
    H           -1.329874203110     1.020851376842    -0.845921504258
    H           -1.286387187150     1.044048089688     0.897349382126
    H           -2.964137023754    -0.884015632120    -0.791615010076
    H           -3.579831834117     0.507879286211     0.080087429946
    H           -2.927279381090    -0.859755929647     0.963226180358

  Mulliken Charges: (a.u.)
   Center  Symbol    Alpha    Beta     Spin     Total
       1     H     0.26826  0.26826  0.00000  0.46348
       2     O     4.34710  4.34710  0.00000 -0.69420
       3     C     2.62903  2.62903  0.00000  0.74194
       4     C     3.20198  3.20198  0.00000 -0.40396
       5     O     4.28022  4.28022  0.00000 -0.56044
       6     C     3.16351  3.16351  0.00000 -0.32702
       7     H     0.40009  0.40009  0.00000  0.19982
       8     H     0.39921  0.39921  0.00000  0.20159
       9     C     3.24148  3.24148  0.00000 -0.48296
      10     H     0.41405  0.41405  0.00000  0.17190
      11     H     0.40312  0.40312  0.00000  0.19377
      12     H     0.41922  0.41922  0.00000  0.16156
      13     H     0.41434  0.41434  0.00000  0.17133
      14     H     0.41840  0.41840  0.00000  0.16320

   Total alpha = 24.00000, Total beta = 24.00000, Total charge = -0.00000
