  ==> Input File <==

--------------------------------------------------------------------------
set {
	reference rhf
	basis 6-31G*
}

set_num_threads( 4 )
memory 2 gb

molecule MOL {
0 1

H	 3.888596	 0.345930	 0.190926
N	 3.080032	 -0.244647	 0.222374
C	 1.865559	 0.531981	 0.018834
H	 3.072669	 -0.677287	 1.126585
C	 0.645745	 -0.382037	 -0.029944
H	 1.961989	 1.052082	 -0.929351
H	 1.713546	 1.298893	 0.782468
C	 -0.679275	 0.379305	 0.025956
H	 0.698998	 -0.976915	 -0.937203
H	 0.693479	 -1.083846	 0.802235
C	 -1.903357	 -0.536963	 -0.023547
H	 -0.726309	 1.082987	 -0.803784
H	 -0.717680	 0.977832	 0.934877
C	 -3.225172	 0.228290	 0.028445
H	 -1.867824	 -1.134999	 -0.931459
H	 -1.860449	 -1.239604	 0.805977
H	 -3.313397	 0.915643	 -0.808262
H	 -4.073500	 -0.448134	 -0.008893
H	 -3.306061	 0.809945	 0.942516

	symmetry c1
}
set optking {
	frozen_dihedral = ("
		6 3 5 9
	")
}

ee = optimize('scf')
oeprop('DIPOLE', 'QUADRUPOLE', 'MULLIKEN_CHARGES')
f=open( 'psi4out.xyz', 'w' )
f.write( "19  " )
f.write( str(ee) + "\n" )
f.write( MOL.save_string_xyz() )
f.close()
--------------------------------------------------------------------------

    Molecular point group: c1
  Charge       = 0
  Multiplicity = 1
  Basis Set: 6-31G*
  Basis Set:
  @DF-RHF Final Energy:  -251.35111674874165
    Total Energy =                       -251.3511167487415605
    Molecular point group: c1
  Basis Set: 6-31G*
  Basis Set:
  Basis Set: 6-31G*
  Basis Set:
  @DF-RHF Final Energy:  -251.35117446114702
    Total Energy =                       -251.3511744611470249
  Basis Set: 6-31G*
  Basis Set:
  Basis Set: 6-31G*
  Basis Set:
  @DF-RHF Final Energy:  -251.35121131059768
    Total Energy =                       -251.3512113105975914
  Basis Set: 6-31G*
  Basis Set:
  Charge       = 0
  Multiplicity = 1
  Basis Set: 6-31G*
  Basis Set:

    Orbital Energies (a.u.)
    -----------------------

    Doubly Occupied:

       1A    -15.532226     2A    -11.239885     3A    -11.213885
       4A    -11.212552     5A    -11.209585     6A    -11.207515
       7A     -1.176203     8A     -1.072825     9A     -0.998163
      10A     -0.899995    11A     -0.813083    12A     -0.788891
      13A     -0.666940    14A     -0.639210    15A     -0.617839
      16A     -0.586505    17A     -0.566999    18A     -0.548081
      19A     -0.528232    20A     -0.500709    21A     -0.481099
      22A     -0.464897    23A     -0.461193    24A     -0.448595
      25A     -0.380827

  @DF-RHF Final Energy:  -251.35121079103425

   => Energetics <=

    Nuclear Repulsion Energy =            245.6552361280915875
    One-Electron Energy =                -825.5010238901390949
    Two-Electron Energy =                 328.4945769710133163
    DFT Exchange-Correlation Energy =       0.0000000000000000
    Empirical Dispersion Energy =           0.0000000000000000
    PCM Polarization Energy =               0.0000000000000000
    EFP Energy =                            0.0000000000000000
    Total Energy =                       -251.3512107910341911
    Molecular point group: c1
  Basis Set: 6-31G*
  Basis Set:

  -Total Gradient:
     Atom            X                  Y                   Z
    ------   -----------------  -----------------  -----------------
       1        0.000002554485    -0.000019810303     0.000000674651
       2       -0.000008931396     0.000013951478     0.000054281972
       3       -0.002070900017     0.002768144293     0.000723264118
       4        0.000033960780    -0.000014327369    -0.000007114877
       5        0.001981719008    -0.002654325415     0.001257869859
       6        0.001414371565    -0.001872145648    -0.000904328448
       7       -0.000003310276    -0.000055854804     0.000016804006
       8       -0.000005250009    -0.000010326441     0.000082129357
       9       -0.001279915719     0.001752141038    -0.001250430709
      10       -0.000032882784     0.000068513411    -0.000006454028
      11       -0.000009487067     0.000009128298     0.000024691205
      12       -0.000014606797     0.000011720809     0.000026484364
      13       -0.000008770257     0.000010105393     0.000028618880
      14        0.000002570948     0.000000320823    -0.000059226776
      15        0.000015314291    -0.000028059792     0.000015802498
      16       -0.000016047691     0.000020372927     0.000019150664
      17       -0.000009010653     0.000017490432    -0.000001088997
      18       -0.000002156584     0.000000946735    -0.000017442133
      19        0.000010778176    -0.000017985863    -0.000003685605

  **** Optimization is complete! (in 4 steps) ****
    Final optimized geometry and variables:
    Molecular point group: c1

    Geometry (in Angstrom), charge = 0, multiplicity = 1:

    H            3.895640544047     0.342681003854     0.069531620971
    N            3.087256959943    -0.244681088976     0.140546106598
    C            1.866315829811     0.532583011446    -0.025405659657
    H            3.114888655339    -0.667849445302     1.048737902359
    C            0.648828997660    -0.387996597769    -0.047922233405
    H            1.943968646068     1.044485232020    -0.979460593709
    H            1.736929078093     1.297543338526     0.743493274901
    C           -0.676846929988     0.374907234624    -0.003323461813
    H            0.688672542444    -0.990783359336    -0.950510499856
    H            0.699680313793    -1.074619231978     0.795345663035
    C           -1.901500793282    -0.538585360761    -0.080315371435
    H           -0.711315381519     1.087618508468    -0.826310791229
    H           -0.727299588395     0.964542925647     0.910757468396
    C           -3.222774505756     0.228549858783    -0.045305837780
    H           -1.851848964085    -1.130282329730    -0.991695441751
    H           -1.873780397302    -1.247404692263     0.744660330352
    H           -3.295056613242     0.923014942778    -0.877663950440
    H           -4.071499872290    -0.445985862239    -0.103257002471
    H           -3.318838553939     0.802741459146     0.871999953560

  Mulliken Charges: (a.u.)
   Center  Symbol    Alpha    Beta     Spin     Total
       1     H     0.33267  0.33267  0.00000  0.33466
       2     N     3.92239  3.92239  0.00000 -0.84478
       3     C     3.06081  3.06081  0.00000 -0.12161
       4     H     0.33547  0.33547  0.00000  0.32905
       5     C     3.14970  3.14970  0.00000 -0.29939
       6     H     0.42028  0.42028  0.00000  0.15943
       7     H     0.43412  0.43412  0.00000  0.13177
       8     C     3.15564  3.15564  0.00000 -0.31128
       9     H     0.41458  0.41458  0.00000  0.17084
      10     H     0.42640  0.42640  0.00000  0.14721
      11     C     3.15080  3.15080  0.00000 -0.30160
      12     H     0.42423  0.42423  0.00000  0.15154
      13     H     0.42484  0.42484  0.00000  0.15032
      14     C     3.23923  3.23923  0.00000 -0.47846
      15     H     0.42210  0.42210  0.00000  0.15581
      16     H     0.42321  0.42321  0.00000  0.15358
      17     H     0.42188  0.42188  0.00000  0.15624
      18     H     0.41938  0.41938  0.00000  0.16125
      19     H     0.42229  0.42229  0.00000  0.15543

   Total alpha = 25.00000, Total beta = 25.00000, Total charge = -0.00000
