                              Psi4 1.0.54 Driver

  ==> Input File <==

--------------------------------------------------------------------------
set {
	reference rhf
	basis cc-pvtz
}

set_num_threads( 4 )
memory 2 gb

molecule MOL {
0 1

O	 -1.510770	 1.240811	 -0.054933
C	 -1.081510	 0.147522	 0.122720
C	 0.327029	 -0.064006	 0.641890
C	 -1.903028	 -1.084121	 -0.174656
C	 1.349460	 -0.017068	 -0.500215
H	 0.399029	 -1.014606	 1.159950
H	 0.538021	 0.726928	 1.350471
C	 2.784765	 0.065681	 0.006536
H	 1.239382	 -0.897158	 -1.127242
H	 1.130135	 0.839998	 -1.126044
H	 3.485070	 0.108995	 -0.819132
H	 3.038633	 -0.797928	 0.611913
H	 2.932674	 0.951532	 0.614204
H	 -1.341891	 -1.779207	 -0.789259
H	 -2.820449	 -0.808163	 -0.671328
H	 -2.133314	 -1.593056	 0.755831

	symmetry c1
}
set optking {
	frozen_dihedral = ("
		9 5 3 2
	")
}

ee,wfn = optimize('scf', return_wfn=True)
oeprop( wfn, 'DIPOLE', 'QUADRUPOLE', 'MULLIKEN_CHARGES')
f=open( 'psi4out.xyz', 'w' )
f.write( "16  " )
f.write( str(ee) + "\n" )
f.write( MOL.save_string_xyz() )
f.close()
--------------------------------------------------------------------------

    Molecular point group: c1
  Charge       = 0
  Multiplicity = 1
  Basis Set: CC-PVTZ
  Basis Set:
  @DF-RHF Final Energy:  -270.12895502166231
    Total Energy =                       -270.1289550216621933
    Molecular point group: c1
  Basis Set: CC-PVTZ
  Basis Set:
  Basis Set: CC-PVTZ
  Basis Set:
  @DF-RHF Final Energy:  -270.12901592408491
    Total Energy =                       -270.1290159240846833
  Basis Set: CC-PVTZ
  Basis Set:
  Basis Set: CC-PVTZ
  Basis Set:
  @DF-RHF Final Energy:  -270.12902344492920
    Total Energy =                       -270.1290234449290892
  Basis Set: CC-PVTZ
  Basis Set:
  Basis Set: CC-PVTZ
  Basis Set:
  @DF-RHF Final Energy:  -270.12898758564938
    Total Energy =                       -270.1289875856494973
  Basis Set: CC-PVTZ
  Basis Set:
  Basis Set: CC-PVTZ
  Basis Set:
  @DF-RHF Final Energy:  -270.12903582414049
    Total Energy =                       -270.1290358241404874
  Basis Set: CC-PVTZ
  Basis Set:
  Charge       = 0
  Multiplicity = 1
  Basis Set: CC-PVTZ
  Basis Set:

    Orbital Energies (a.u.)
    -----------------------

    Doubly Occupied:

       1A    -20.537361     2A    -11.319862     3A    -11.231532
       4A    -11.228358     5A    -11.227289     6A    -11.217157
       7A     -1.397620     8A     -1.083458     9A     -1.014115
      10A     -0.950155    11A     -0.829490    12A     -0.736452
      13A     -0.662420    14A     -0.649700    15A     -0.614159
      16A     -0.610263    17A     -0.576058    18A     -0.558303
      19A     -0.540594    20A     -0.518096    21A     -0.503683
      22A     -0.485572    23A     -0.474366    24A     -0.400569

  @DF-RHF Final Energy:  -270.12903631537483

   => Energetics <=

    Nuclear Repulsion Energy =            237.4941040590794898
    One-Electron Energy =                -836.5130163085564163
    Two-Electron Energy =                 328.8898759341022355
    DFT Exchange-Correlation Energy =       0.0000000000000000
    Empirical Dispersion Energy =           0.0000000000000000
    PCM Polarization Energy =               0.0000000000000000
    EFP Energy =                            0.0000000000000000
    Total Energy =                       -270.1290363153746625
    Molecular point group: c1
  Basis Set: CC-PVTZ
  Basis Set:

  -Total Gradient:
     Atom            X                  Y                   Z
    ------   -----------------  -----------------  -----------------
       1        0.000036837253    -0.000010562932    -0.000022129855
       2        0.000094808644     0.001535627294     0.000210935254
       3        0.000153376964    -0.002375820572     0.000016128573
       4       -0.000015251059     0.000016957197    -0.000008527368
       5       -0.001731021764     0.001875495304    -0.001493983308
       6        0.000012657279     0.000019480017    -0.000015934486
       7       -0.000003816267     0.000010530294     0.000020398857
       8        0.000009770840    -0.000000603398     0.000006277117
       9        0.001429285145    -0.001051864954     0.001236973923
      10       -0.000002914119    -0.000017571325     0.000036960887
      11       -0.000006830323    -0.000002016404     0.000005775552
      12        0.000000375417     0.000007077547    -0.000002743977
      13        0.000007422693    -0.000003269532     0.000000159056
      14        0.000012453719    -0.000000051598    -0.000001604623
      15       -0.000001582465    -0.000002051174     0.000003124451
      16        0.000004428042    -0.000001355769     0.000008189947

  **** Optimization is complete! (in 6 steps) ****
    Final optimized geometry and variables:
    Molecular point group: c1

    Geometry (in Angstrom), charge = 0, multiplicity = 1:

    O           -1.527215822291     1.190414133152    -0.031577201735
    C           -1.084375503770     0.099444611575     0.125202150686
    C            0.329494792809    -0.101576924296     0.634799599416
    C           -1.892311344483    -1.136590748517    -0.190236980725
    C            1.348715492941    -0.057256841350    -0.511931530676
    H            0.415085569193    -1.042120459031     1.168205982506
    H            0.534093851692     0.703778609368     1.328954084386
    C            2.785143159489     0.007786858413    -0.002623760771
    H            1.239530052326    -0.942146875265    -1.131688701365
    H            1.142927349180     0.803719671631    -1.136482255595
    H            3.488091041664     0.017730313466    -0.827174744460
    H            3.019408448131    -0.847583233238     0.622242643968
    H            2.949508504754     0.903436951254     0.585726197214
    H           -1.326709068371    -1.810903982667    -0.823676254033
    H           -2.817573790327    -0.863346312972    -0.673720679797
    H           -2.107823065352    -1.667689817786     0.731397038304

  Mulliken Charges: (a.u.)
   Center  Symbol    Alpha    Beta     Spin     Total
       1     O     4.17690  4.17690  0.00000 -0.35379
       2     C     2.85760  2.85760  0.00000  0.28480
       3     C     3.09845  3.09845  0.00000 -0.19690
       4     C     3.15478  3.15478  0.00000 -0.30956
       5     C     3.09200  3.09200  0.00000 -0.18401
       6     H     0.44898  0.44898  0.00000  0.10204
       7     H     0.44024  0.44024  0.00000  0.11952
       8     C     3.14802  3.14802  0.00000 -0.29604
       9     H     0.45301  0.45301  0.00000  0.09398
      10     H     0.44149  0.44149  0.00000  0.11702
      11     H     0.44650  0.44650  0.00000  0.10701
      12     H     0.45515  0.45515  0.00000  0.08969
      13     H     0.45123  0.45123  0.00000  0.09754
      14     H     0.45102  0.45102  0.00000  0.09796
      15     H     0.43605  0.43605  0.00000  0.12789
      16     H     0.44857  0.44857  0.00000  0.10285

   Total alpha = 24.00000, Total beta = 24.00000, Total charge = -0.00000

*** Psi4 exiting successfully. Buy a developer a beer!
