  ==> Input File <==

--------------------------------------------------------------------------
set {
	reference rhf
	basis 6-31G*
}

set_num_threads( 4 )
memory 2 gb

molecule MOL {
0 1

H	 2.591676	 2.013956	 0.335017
O	 3.341076	 1.666752	 -0.126416
C	 3.569581	 0.339145	 0.272707
C	 2.539767	 -0.640285	 -0.279495
H	 4.553106	 0.084646	 -0.100901
H	 3.608576	 0.269204	 1.359154
C	 1.115811	 -0.397273	 0.226630
H	 2.556196	 -0.582511	 -1.364741
H	 2.852081	 -1.648031	 -0.010655
C	 0.958836	 -0.701192	 1.719216
H	 0.424511	 -1.011700	 -0.343413
H	 0.838247	 0.640682	 0.042382
C	 -0.427486	 -0.393135	 2.296756
H	 1.199007	 -1.747595	 1.898673
H	 1.697472	 -0.122413	 2.269791
C	 -1.559558	 -1.272952	 1.759344
H	 -0.381043	 -0.509803	 3.377519
H	 -0.667462	 0.653632	 2.116406
C	 -2.901896	 -0.999639	 2.441155
H	 -1.295408	 -2.320724	 1.895397
H	 -1.673109	 -1.123974	 0.688263
C	 -4.035012	 -1.872059	 1.902087
H	 -2.800969	 -1.161013	 3.512258
H	 -3.162791	 0.049075	 2.314592
H	 -3.818702	 -2.927238	 2.043611
H	 -4.972020	 -1.656299	 2.406171
H	 -4.186033	 -1.706571	 0.838992

	symmetry c1
}
set optking {
	frozen_dihedral = ("
		10 7 4 8
	")
}

ee = optimize('scf')
oeprop('DIPOLE', 'QUADRUPOLE', 'MULLIKEN_CHARGES')
f=open( 'psi4out.xyz', 'w' )
f.write( "27  " )
f.write( str(ee) + "\n" )
f.write( MOL.save_string_xyz() )
f.close()
--------------------------------------------------------------------------

    Molecular point group: c1
  Charge       = 0
  Multiplicity = 1
  Basis Set: 6-31G*
  Basis Set:
  @DF-RHF Final Energy:  -388.27927145422950
    Total Energy =                       -388.2792714542305248
    Molecular point group: c1
  Basis Set: 6-31G*
  Basis Set:
  Basis Set: 6-31G*
  Basis Set:
  @DF-RHF Final Energy:  -388.27968413496581
    Total Energy =                       -388.2796841349666011
  Basis Set: 6-31G*
  Basis Set:
  Basis Set: 6-31G*
  Basis Set:
  @DF-RHF Final Energy:  -388.27987823794859
    Total Energy =                       -388.2798782379492195
  Basis Set: 6-31G*
  Basis Set:
  Basis Set: 6-31G*
  Basis Set:
  @DF-RHF Final Energy:  -388.27987493838401
    Total Energy =                       -388.2798749383846371
  Basis Set: 6-31G*
  Basis Set:
  Basis Set: 6-31G*
  Basis Set:
  @DF-RHF Final Energy:  -388.27988798497449
    Total Energy =                       -388.2798879849743798
  Basis Set: 6-31G*
  Basis Set:
  Basis Set: 6-31G*
  Basis Set:
  @DF-RHF Final Energy:  -388.27989154701697
    Total Energy =                       -388.2798915470169732
  Basis Set: 6-31G*
  Basis Set:
  Charge       = 0
  Multiplicity = 1
  Basis Set: 6-31G*
  Basis Set:

    Orbital Energies (a.u.)
    -----------------------

    Doubly Occupied:

       1A    -20.552124     2A    -11.266277     3A    -11.219927
       4A    -11.219315     5A    -11.217820     6A    -11.216795
       7A    -11.215619     8A    -11.215161     9A    -11.209867
      10A     -1.358748    11A     -1.096017    12A     -1.061271
      13A     -1.011113    14A     -0.947497    15A     -0.893207
      16A     -0.826527    17A     -0.798814    18A     -0.773877
      19A     -0.694711    20A     -0.647628    21A     -0.644098
      22A     -0.609398    23A     -0.603015    24A     -0.586668
      25A     -0.572798    26A     -0.564099    27A     -0.543857
      28A     -0.525874    29A     -0.509351    30A     -0.496984
      31A     -0.487649    32A     -0.472783    33A     -0.467893
      34A     -0.461808    35A     -0.451124    36A     -0.440671
      37A     -0.423821

  @DF-RHF Final Energy:  -388.27989143608892

   => Energetics <=

    Nuclear Repulsion Energy =            462.2176496779188142
    One-Electron Energy =               -1442.3866662544830888
    Two-Electron Energy =                 591.8891251404760396
    DFT Exchange-Correlation Energy =       0.0000000000000000
    Empirical Dispersion Energy =           0.0000000000000000
    PCM Polarization Energy =               0.0000000000000000
    EFP Energy =                            0.0000000000000000
    Total Energy =                       -388.2798914360881781
    Molecular point group: c1
  Basis Set: 6-31G*
  Basis Set:

  -Total Gradient:
     Atom            X                  Y                   Z
    ------   -----------------  -----------------  -----------------
       1        0.000001414395     0.000022148766    -0.000005383356
       2       -0.000031067590    -0.000031971330     0.000005337912
       3        0.000050447236    -0.000003617931     0.000057252267
       4        0.000082288539     0.000517686585    -0.000055200351
       5       -0.000007681484    -0.000011150907    -0.000001129250
       6        0.000033380119     0.000020733540    -0.000007488605
       7        0.000132300107     0.000456442356     0.000090234755
       8       -0.000134556825    -0.000562144530    -0.000045607353
       9       -0.000003942348     0.000028208657    -0.000000957962
      10       -0.000121930367    -0.000450794316    -0.000030835927
      11        0.000061890483     0.000033452584     0.000012995493
      12       -0.000011929479    -0.000013095057    -0.000041709784
      13        0.000017211469     0.000072592984    -0.000050968092
      14        0.000004952037    -0.000016181306     0.000019506977
      15       -0.000031938802    -0.000015041590     0.000002583975
      16       -0.000017545140    -0.000035293406     0.000030934366
      17        0.000030988905    -0.000010541195    -0.000026125914
      18       -0.000020076853     0.000023265594     0.000030025860
      19       -0.000005629144    -0.000005227721    -0.000019800940
      20       -0.000013232025    -0.000018981395     0.000011735364
      21       -0.000011781500    -0.000008551222     0.000033980014
      22       -0.000006668742     0.000010806612    -0.000007226229
      23        0.000000864998    -0.000010176664    -0.000007307035
      24        0.000003647854     0.000005582997     0.000007245278
      25        0.000002574851     0.000002862731     0.000001509051
      26       -0.000002147270     0.000000447220    -0.000002079730
      27       -0.000001833420    -0.000001462056    -0.000001520779

  **** Optimization is complete! (in 7 steps) ****
    Final optimized geometry and variables:
    Molecular point group: c1

    Geometry (in Angstrom), charge = 0, multiplicity = 1:

    H            2.367954152656     2.448698484586    -0.729969132513
    O            3.073551162715     2.091889709183    -1.249537879820
    C            3.291636542624     0.749608222239    -0.895773496076
    C            2.197420304764    -0.186521444984    -1.402008692602
    H            4.234113847148     0.475050005332    -1.351875123739
    H            3.420443729266     0.655591621178     0.180026766219
    C            0.789099480260     0.081886314614    -0.854647709456
    H            2.171936993822    -0.114712041679    -2.485607274941
    H            2.486292461845    -1.209044604673    -1.163754284035
    C            0.619539517874    -0.221374245355     0.638286171870
    H            0.090869904336    -0.521855576653    -1.425596552991
    H            0.511145243134     1.115764452686    -1.053121185769
    C           -0.780690653939     0.070139262301     1.192935858831
    H            0.868002931465    -1.265574655157     0.820968277557
    H            1.335895860548     0.361474211321     1.212628277766
    C           -1.891516230881    -0.833580780746     0.650766738565
    H           -0.747639842861    -0.033762607018     2.275437919747
    H           -1.035666854047     1.110794017505     0.997638385290
    C           -3.247108789539    -0.571251894519     1.310439194548
    H           -1.613754289832    -1.875342706354     0.805305672848
    H           -1.992426638870    -0.700442438825    -0.423291325383
    C           -4.359734121635    -1.466491340396     0.766185128751
    H           -3.159327016287    -0.717952154007     2.384828995225
    H           -3.521172674473     0.471863593632     1.166839322959
    H           -4.130538478710    -2.516623213663     0.924173862039
    H           -5.306836617165    -1.257991228194     1.254149398482
    H           -4.497577878184    -1.316234818140    -0.300891472710

  Mulliken Charges: (a.u.)
   Center  Symbol    Alpha    Beta     Spin     Total
       1     H     0.28024  0.28024  0.00000  0.43953
       2     O     4.37087  4.37087  0.00000 -0.74174
       3     C     2.99924  2.99924  0.00000  0.00152
       4     C     3.16286  3.16286  0.00000 -0.32572
       5     H     0.41428  0.41428  0.00000  0.17143
       6     H     0.42971  0.42971  0.00000  0.14059
       7     C     3.16509  3.16509  0.00000 -0.33018
       8     H     0.41341  0.41341  0.00000  0.17318
       9     H     0.42453  0.42453  0.00000  0.15095
      10     C     3.15600  3.15600  0.00000 -0.31201
      11     H     0.41486  0.41486  0.00000  0.17029
      12     H     0.42636  0.42636  0.00000  0.14728
      13     C     3.15250  3.15250  0.00000 -0.30499
      14     H     0.42215  0.42215  0.00000  0.15570
      15     H     0.42385  0.42385  0.00000  0.15229
      16     C     3.15286  3.15286  0.00000 -0.30571
      17     H     0.42118  0.42118  0.00000  0.15764
      18     H     0.42499  0.42499  0.00000  0.15002
      19     C     3.15130  3.15130  0.00000 -0.30260
      20     H     0.42422  0.42422  0.00000  0.15156
      21     H     0.42166  0.42166  0.00000  0.15667
      22     C     3.23927  3.23927  0.00000 -0.47854
      23     H     0.42304  0.42304  0.00000  0.15393
      24     H     0.42299  0.42299  0.00000  0.15403
      25     H     0.42174  0.42174  0.00000  0.15652
      26     H     0.41910  0.41910  0.00000  0.16179
      27     H     0.42171  0.42171  0.00000  0.15659

   Total alpha = 37.00000, Total beta = 37.00000, Total charge =  0.00000
