  ==> Input File <==

--------------------------------------------------------------------------
set {
	reference rhf
	basis 6-31G*
}

set_num_threads( 4 )
memory 2 gb

molecule MOL {
0 1

H	 -3.420663	 1.227371	 -1.044276
O	 -3.452007	 0.283848	 -0.965577
C	 -3.181085	 -0.079926	 0.364119
C	 -1.765924	 0.277073	 0.805136
H	 -3.327791	 -1.152017	 0.410903
H	 -3.905698	 0.375695	 1.036898
C	 -0.677594	 -0.417312	 -0.014550
H	 -1.637766	 1.358238	 0.744969
H	 -1.659588	 0.017670	 1.857098
C	 0.738335	 -0.034840	 0.421385
H	 -0.814977	 -0.178223	 -1.064632
H	 -0.802730	 -1.495410	 0.071702
C	 1.822265	 -0.738362	 -0.399735
H	 0.853533	 1.043532	 0.342250
H	 0.871597	 -0.279636	 1.474438
C	 2.229217	 -2.120090	 0.125025
H	 2.703714	 -0.101217	 -0.452537
H	 1.467277	 -0.848729	 -1.422290
C	 2.920372	 -2.103763	 1.489739
H	 2.898321	 -2.579648	 -0.598437
H	 1.350145	 -2.759718	 0.173085
H	 3.796926	 -1.461436	 1.475281
H	 3.247342	 -3.100952	 1.768205
H	 2.261771	 -1.747128	 2.274735

	symmetry c1
}
set optking {
	frozen_dihedral = ("
		17 13 10 7
	")
}

ee = optimize('scf')
oeprop('DIPOLE', 'QUADRUPOLE', 'MULLIKEN_CHARGES')
f=open( 'psi4out.xyz', 'w' )
f.write( "24  " )
f.write( str(ee) + "\n" )
f.write( MOL.save_string_xyz() )
f.close()
--------------------------------------------------------------------------

    Molecular point group: c1
  Charge       = 0
  Multiplicity = 1
  Basis Set: 6-31G*
  Basis Set:
  @DF-RHF Final Energy:  -349.24421465537290
    Total Energy =                       -349.2442146553727866
    Molecular point group: c1
  Basis Set: 6-31G*
  Basis Set:
  Basis Set: 6-31G*
  Basis Set:
  @DF-RHF Final Energy:  -349.24442896858824
    Total Energy =                       -349.2444289685882381
  Basis Set: 6-31G*
  Basis Set:
  Basis Set: 6-31G*
  Basis Set:
  @DF-RHF Final Energy:  -349.24469747022283
    Total Energy =                       -349.2446974702229454
  Basis Set: 6-31G*
  Basis Set:
  Basis Set: 6-31G*
  Basis Set:
  @DF-RHF Final Energy:  -349.24471104425697
    Total Energy =                       -349.2447110442573717
  Basis Set: 6-31G*
  Basis Set:
  Basis Set: 6-31G*
  Basis Set:
  @DF-RHF Final Energy:  -349.24472232978371
    Total Energy =                       -349.2447223297838832
  Basis Set: 6-31G*
  Basis Set:
  Basis Set: 6-31G*
  Basis Set:
  @DF-RHF Final Energy:  -349.24472509037486
    Total Energy =                       -349.2447250903750273
  Basis Set: 6-31G*
  Basis Set:
  Charge       = 0
  Multiplicity = 1
  Basis Set: 6-31G*
  Basis Set:

    Orbital Energies (a.u.)
    -----------------------

    Doubly Occupied:

       1A    -20.553647     2A    -11.267793     3A    -11.217459
       4A    -11.213952     5A    -11.212496     6A    -11.211536
       7A    -11.211034     8A    -11.207257     9A     -1.360240
      10A     -1.088025    11A     -1.047123    12A     -0.984948
      13A     -0.914752    14A     -0.851663    15A     -0.806791
      16A     -0.769477    17A     -0.680054    18A     -0.651627
      19A     -0.624289    20A     -0.615554    21A     -0.606660
      22A     -0.578168    23A     -0.557179    24A     -0.543242
      25A     -0.520892    26A     -0.506902    27A     -0.495257
      28A     -0.477409    29A     -0.467295    30A     -0.460757
      31A     -0.451773    32A     -0.445945    33A     -0.420109

  @DF-RHF Final Energy:  -349.24472499047516

   => Energetics <=

    Nuclear Repulsion Energy =            387.6078389551250325
    One-Electron Energy =               -1241.6625142914999742
    Two-Electron Energy =                 504.8099503458996651
    DFT Exchange-Correlation Energy =       0.0000000000000000
    Empirical Dispersion Energy =           0.0000000000000000
    PCM Polarization Energy =               0.0000000000000000
    EFP Energy =                            0.0000000000000000
    Total Energy =                       -349.2447249904752198
    Molecular point group: c1
  Basis Set: 6-31G*
  Basis Set:

  -Total Gradient:
     Atom            X                  Y                   Z
    ------   -----------------  -----------------  -----------------
       1       -0.000001381198     0.000006151373    -0.000004585446
       2       -0.000018666856     0.000018537671     0.000014662084
       3        0.000014588947    -0.000051711605    -0.000011052502
       4        0.000013567566     0.000027862533     0.000005193434
       5       -0.000003519935    -0.000004076182     0.000000303334
       6        0.000007135955     0.000000207172    -0.000002051207
       7        0.000026966631     0.001489362450    -0.001336960418
       8        0.000004809402     0.000003729235    -0.000003250181
       9       -0.000004078033     0.000008436326     0.000001497227
      10       -0.000240382212    -0.001822611794     0.001281580446
      11       -0.000009973146     0.000006857465     0.000011815218
      12        0.000001549280    -0.000005398440    -0.000011219484
      13        0.001110788324    -0.000837053557     0.002349900958
      14        0.000012508277    -0.000002749055    -0.000014662241
      15        0.000001540226     0.000005660174     0.000011435297
      16        0.000027485734     0.000015844590    -0.000001460682
      17       -0.000928411418     0.001142659572    -0.002283790562
      18        0.000006120779    -0.000011196446    -0.000005619716
      19       -0.000019801965    -0.000000333059     0.000012133132
      20       -0.000006776363     0.000002363830    -0.000022683617
      21        0.000003950283     0.000013437314     0.000012654796
      22       -0.000002213812    -0.000001129338    -0.000008746388
      23       -0.000001203249    -0.000000681732    -0.000004772423
      24        0.000005396797    -0.000004168496     0.000009678942

  **** Optimization is complete! (in 7 steps) ****
    Final optimized geometry and variables:
    Molecular point group: c1

    Geometry (in Angstrom), charge = 0, multiplicity = 1:

    H           -3.187537762274     1.880490431290    -1.251275062068
    O           -3.225570108015     0.935035150657    -1.206320725225
    C           -2.977282673771     0.523170879476     0.113766041819
    C           -1.566824119820     0.855069451459     0.588355003452
    H           -3.131279669030    -0.548819923696     0.120641860208
    H           -3.709296998875     0.959733049393     0.791058241241
    C           -0.470316324131     0.181736878266    -0.237778093427
    H           -1.430654319059     1.936812973312     0.566909955430
    H           -1.478615139980     0.559672330361     1.632461088881
    C            0.941149738163     0.562010737970     0.218419519925
    H           -0.595422255859     0.448717946546    -1.282267566431
    H           -0.600260665291    -0.897680691230    -0.181335941486
    C            2.051736934128    -0.146760566546    -0.575909334210
    H            1.056891957308     1.637897977594     0.105092466800
    H            1.050473450261     0.362778988583     1.281541500358
    C            2.444698907303    -1.534471904223    -0.053314807922
    H            2.934889941127     0.486989433986    -0.615845487593
    H            1.723253065382    -0.244105059706    -1.608609865122
    C            3.240153612265    -1.509531021582     1.253203628095
    H            3.041541587291    -2.034630526250    -0.811963891221
    H            1.552754285467    -2.143312046005     0.076441917026
    H            4.158621315639    -0.940753182005     1.137063386889
    H            3.511399821974    -2.515125401614     1.560109154089
    H            2.676902829689    -1.062625361993     2.066010933180

  Mulliken Charges: (a.u.)
   Center  Symbol    Alpha    Beta     Spin     Total
       1     H     0.28336  0.28336  0.00000  0.43328
       2     O     4.36828  4.36828  0.00000 -0.73657
       3     C     2.99608  2.99608  0.00000  0.00783
       4     C     3.16904  3.16904  0.00000 -0.33808
       5     H     0.41640  0.41640  0.00000  0.16720
       6     H     0.42820  0.42820  0.00000  0.14361
       7     C     3.15326  3.15326  0.00000 -0.30652
       8     H     0.42828  0.42828  0.00000  0.14344
       9     H     0.42242  0.42242  0.00000  0.15515
      10     C     3.15546  3.15546  0.00000 -0.31091
      11     H     0.41165  0.41165  0.00000  0.17670
      12     H     0.42305  0.42305  0.00000  0.15391
      13     C     3.15631  3.15631  0.00000 -0.31263
      14     H     0.42291  0.42291  0.00000  0.15418
      15     H     0.42282  0.42282  0.00000  0.15437
      16     C     3.15365  3.15365  0.00000 -0.30731
      17     H     0.42209  0.42209  0.00000  0.15582
      18     H     0.42045  0.42045  0.00000  0.15909
      19     C     3.23993  3.23993  0.00000 -0.47986
      20     H     0.42080  0.42080  0.00000  0.15840
      21     H     0.42246  0.42246  0.00000  0.15509
      22     H     0.42211  0.42211  0.00000  0.15578
      23     H     0.41964  0.41964  0.00000  0.16071
      24     H     0.42134  0.42134  0.00000  0.15732

   Total alpha = 33.00000, Total beta = 33.00000, Total charge =  0.00000
