  ==> Input File <==

--------------------------------------------------------------------------
set {
	reference rhf
	basis cc-pvtz
}

set_num_threads( 4 )
memory 2 gb

molecule MOL {
0 1

O	 -0.097838	 0.827489	 -1.433471
C	 -0.343924	 -0.115873	 -0.763107
C	 -1.689271	 -0.776423	 -0.666295
O	 0.550743	 -0.719877	 0.000412
H	 -1.607049	 -1.813081	 -0.966270
H	 -2.391588	 -0.260348	 -1.300291
H	 -2.029654	 -0.757479	 0.360942
C	 1.863204	 -0.194033	 0.000410
H	 2.031502	 0.409177	 -0.879273
H	 2.524488	 -1.045142	 0.000793
H	 2.031291	 0.409823	 0.879686

	symmetry c1
}
set optking {
	frozen_dihedral = ("
		2 4 8 9
	")
}

ee = optimize('scf')
oeprop('DIPOLE', 'QUADRUPOLE', 'MULLIKEN_CHARGES')
f=open( 'psi4out.xyz', 'w' )
f.write( "11  " )
f.write( str(ee) + "\n" )
f.write( MOL.save_string_xyz() )
f.close()
--------------------------------------------------------------------------

    Molecular point group: c1
  Charge       = 0
  Multiplicity = 1
  Basis Set: CC-PVTZ
  Basis Set:
  @DF-RHF Final Energy:  -266.93714869810486
    Total Energy =                       -266.9371486981048065
    Molecular point group: c1
  Basis Set: CC-PVTZ
  Basis Set:
  Basis Set: CC-PVTZ
  Basis Set:
  @DF-RHF Final Energy:  -266.93734036352532
    Total Energy =                       -266.9373403635251520
  Basis Set: CC-PVTZ
  Basis Set:
  Basis Set: CC-PVTZ
  Basis Set:
  @DF-RHF Final Energy:  -266.93758265075735
    Total Energy =                       -266.9375826507574061
  Basis Set: CC-PVTZ
  Basis Set:
  Basis Set: CC-PVTZ
  Basis Set:
  @DF-RHF Final Energy:  -266.93737915033626
    Total Energy =                       -266.9373791503358007
  Basis Set: CC-PVTZ
  Basis Set:
  Basis Set: CC-PVTZ
  Basis Set:
  @DF-RHF Final Energy:  -266.93763917974263
    Total Energy =                       -266.9376391797425185
  Basis Set: CC-PVTZ
  Basis Set:
  Charge       = 0
  Multiplicity = 1
  Basis Set: CC-PVTZ
  Basis Set:

    Orbital Energies (a.u.)
    -----------------------

    Doubly Occupied:

       1A    -20.597917     2A    -20.534724     3A    -11.369895
       4A    -11.278834     5A    -11.232726     6A     -1.472198
       7A     -1.368148     8A     -1.037011     9A     -0.954045
      10A     -0.779399    11A     -0.699216    12A     -0.682532
      13A     -0.681031    14A     -0.597754    15A     -0.592724
      16A     -0.561750    17A     -0.530086    18A     -0.521545
      19A     -0.459392    20A     -0.445933

  @DF-RHF Final Energy:  -266.93763968862265

   => Energetics <=

    Nuclear Repulsion Energy =            183.3363534809921020
    One-Electron Energy =                -727.7542655026995817
    Two-Electron Energy =                 277.4802723330847130
    DFT Exchange-Correlation Energy =       0.0000000000000000
    Empirical Dispersion Energy =           0.0000000000000000
    PCM Polarization Energy =               0.0000000000000000
    EFP Energy =                            0.0000000000000000
    Total Energy =                       -266.9376396886227667
    Molecular point group: c1
  Basis Set: CC-PVTZ
  Basis Set:

  -Total Gradient:
     Atom            X                  Y                   Z
    ------   -----------------  -----------------  -----------------
       1       -0.000012970362    -0.000018787667     0.000017047138
       2        0.000280180209    -0.000650196655    -0.000885071323
       3        0.000023488107    -0.000010827004    -0.000000511306
       4       -0.000475078893     0.001295923992     0.001459027021
       5        0.000002522925     0.000003873050     0.000004387564
       6       -0.000000958671     0.000004554319    -0.000003592390
       7        0.000003988062     0.000007288127    -0.000000228131
       8        0.000597218229    -0.001712456125    -0.001198012594
       9       -0.000404291134     0.001075121497     0.000619589704
      10        0.000013010991     0.000009019691    -0.000006781320
      11       -0.000027109461    -0.000003513224    -0.000005854362

  **** Optimization is complete! (in 6 steps) ****
    Final optimized geometry and variables:
    Molecular point group: c1

    Geometry (in Angstrom), charge = 0, multiplicity = 1:

    O           -0.205756936668     1.035773535431    -0.869104373288
    C           -0.425479580884     0.086731913472    -0.198196783028
    C           -1.759342607977    -0.596121827969    -0.092222343022
    O            0.478370574890    -0.510767729789     0.561353936068
    H           -1.662748770178    -1.630403985700    -0.395891227288
    H           -2.475405520470    -0.089334279320    -0.718291107788
    H           -2.090594235334    -0.585607692461     0.938092689811
    C            1.805753596658    -0.020424235256     0.568545757219
    H            2.001791242031     0.573492812616    -0.307677762087
    H            2.459129492528    -0.877961703622     0.605071283725
    H            1.954756308711     0.585998040944     1.451312741589

  Mulliken Charges: (a.u.)
   Center  Symbol    Alpha    Beta     Spin     Total
       1     O     4.19710  4.19710  0.00000 -0.39420
       2     C     2.79870  2.79870  0.00000  0.40261
       3     C     3.13934  3.13934  0.00000 -0.27867
       4     O     4.14952  4.14952  0.00000 -0.29904
       5     H     0.44580  0.44580  0.00000  0.10840
       6     H     0.43796  0.43796  0.00000  0.12408
       7     H     0.44539  0.44539  0.00000  0.10923
       8     C     3.03583  3.03583  0.00000 -0.07165
       9     H     0.44511  0.44511  0.00000  0.10978
      10     H     0.44944  0.44944  0.00000  0.10112
      11     H     0.45582  0.45582  0.00000  0.08835

   Total alpha = 20.00000, Total beta = 20.00000, Total charge =  0.00000
