  ==> Input File <==

--------------------------------------------------------------------------
set {
	reference rhf
	basis 6-31G*
}

set_num_threads( 4 )
memory 2 gb

molecule MOL {
0 1

H	 -3.420663	 1.227371	 -1.044276
O	 -3.452007	 0.283848	 -0.965577
C	 -3.181085	 -0.079926	 0.364119
C	 -1.765924	 0.277073	 0.805136
H	 -3.327791	 -1.152017	 0.410903
H	 -3.905698	 0.375695	 1.036898
C	 -1.651217	 1.673921	 1.416835
H	 -1.419356	 -0.467694	 1.522196
H	 -1.107609	 0.195539	 -0.058110
C	 -0.231818	 2.013324	 1.876499
H	 -2.336787	 1.753522	 2.254909
H	 -1.978639	 2.409547	 0.684002
C	 -0.123694	 3.415278	 2.482239
H	 0.092709	 1.269745	 2.600509
H	 0.451008	 1.934911	 1.031393
C	 1.296688	 3.835860	 2.876929
H	 -0.772323	 3.481173	 3.354382
H	 -0.509335	 4.135383	 1.763528
C	 1.906468	 3.021917	 4.019764
H	 1.277199	 4.883439	 3.167598
H	 1.944899	 3.775806	 2.004909
H	 1.272899	 3.053347	 4.902227
H	 2.878804	 3.416738	 4.298181
H	 2.044588	 1.980508	 3.748555

	symmetry c1
}
set optking {
	frozen_dihedral = ("
		7 4 3 2
	")
}

ee = optimize('scf')
oeprop('DIPOLE', 'QUADRUPOLE', 'MULLIKEN_CHARGES')
f=open( 'psi4out.xyz', 'w' )
f.write( "24  " )
f.write( str(ee) + "\n" )
f.write( MOL.save_string_xyz() )
f.close()
--------------------------------------------------------------------------

    Molecular point group: c1
  Charge       = 0
  Multiplicity = 1
  Basis Set: 6-31G*
  Basis Set:
  @DF-RHF Final Energy:  -349.24437301162487
    Total Energy =                       -349.2443730116249299
    Molecular point group: c1
  Basis Set: 6-31G*
  Basis Set:
  Basis Set: 6-31G*
  Basis Set:
  @DF-RHF Final Energy:  -349.24462171248297
    Total Energy =                       -349.2446217124828536
  Basis Set: 6-31G*
  Basis Set:
  Basis Set: 6-31G*
  Basis Set:
  @DF-RHF Final Energy:  -349.24467220069869
    Total Energy =                       -349.2446722006985738
  Basis Set: 6-31G*
  Basis Set:
  Basis Set: 6-31G*
  Basis Set:
  @DF-RHF Final Energy:  -349.24467088257376
    Total Energy =                       -349.2446708825735300
  Basis Set: 6-31G*
  Basis Set:
  Basis Set: 6-31G*
  Basis Set:
  @DF-RHF Final Energy:  -349.24467481734291
    Total Energy =                       -349.2446748173429114
  Basis Set: 6-31G*
  Basis Set:
  Basis Set: 6-31G*
  Basis Set:
  @DF-RHF Final Energy:  -349.24468063377441
    Total Energy =                       -349.2446806337742942
  Basis Set: 6-31G*
  Basis Set:
  Charge       = 0
  Multiplicity = 1
  Basis Set: 6-31G*
  Basis Set:

    Orbital Energies (a.u.)
    -----------------------

    Doubly Occupied:

       1A    -20.551689     2A    -11.266634     3A    -11.221368
       4A    -11.217243     5A    -11.216984     6A    -11.216064
       7A    -11.215322     8A    -11.209709     9A     -1.357734
      10A     -1.093047    11A     -1.050737    12A     -0.987196
      13A     -0.917803    14A     -0.852916    15A     -0.801017
      16A     -0.780608    17A     -0.689771    18A     -0.656236
      19A     -0.622662    20A     -0.615854    21A     -0.595912
      22A     -0.586752    23A     -0.561637    24A     -0.535530
      25A     -0.532334    26A     -0.507464    27A     -0.492793
      28A     -0.486140    29A     -0.475870    30A     -0.462973
      31A     -0.458012    32A     -0.443642    33A     -0.422402

  @DF-RHF Final Energy:  -349.24468061300712

   => Energetics <=

    Nuclear Repulsion Energy =            382.3978588608779887
    One-Electron Energy =               -1231.0809710164667194
    Two-Electron Energy =                 499.4384315425816112
    DFT Exchange-Correlation Energy =       0.0000000000000000
    Empirical Dispersion Energy =           0.0000000000000000
    PCM Polarization Energy =               0.0000000000000000
    EFP Energy =                            0.0000000000000000
    Total Energy =                       -349.2446806130071764
    Molecular point group: c1
  Basis Set: 6-31G*
  Basis Set:

  -Total Gradient:
     Atom            X                  Y                   Z
    ------   -----------------  -----------------  -----------------
       1       -0.000002917446     0.000005573230    -0.000024064686
       2        0.001214922928    -0.003459447842    -0.001094056884
       3       -0.002043772423     0.004158801606     0.002797386171
       4        0.001634257302     0.000515668836    -0.004892506882
       5       -0.000028012178     0.000025297680    -0.000035672550
       6       -0.000046651233    -0.000036594318     0.000018325917
       7       -0.000733283067    -0.001299342669     0.003185964195
       8        0.000023566920     0.000044979061    -0.000021265543
       9        0.000025002762    -0.000029855084     0.000001098760
      10       -0.000047510903     0.000018189480     0.000064074070
      11        0.000028973202     0.000045268837     0.000014172191
      12        0.000002423653     0.000013997023    -0.000016327769
      13        0.000009339054     0.000004432979     0.000005042946
      14       -0.000025683739    -0.000011406832    -0.000013051707
      15       -0.000024328642     0.000002812857     0.000013624430
      16        0.000004876434     0.000013339815    -0.000018718662
      17        0.000011721991     0.000000194016     0.000011881081
      18       -0.000018441119    -0.000012605477    -0.000004149111
      19        0.000000050304    -0.000007474175     0.000001928895
      20       -0.000002764360    -0.000005587987    -0.000000238859
      21        0.000010498023     0.000011808019    -0.000001146497
      22        0.000004810598     0.000004195516     0.000002150656
      23       -0.000000635325    -0.000004546038    -0.000005552040
      24        0.000003557273     0.000002301465     0.000011101880

  **** Optimization is complete! (in 7 steps) ****
    Final optimized geometry and variables:
    Molecular point group: c1

    Geometry (in Angstrom), charge = 0, multiplicity = 1:

    H           -2.469241687174    -0.567599933586    -2.663939705272
    O           -2.466364066207    -1.510392261634    -2.574304811777
    C           -2.250542904248    -1.858373054623    -1.229189725252
    C           -0.843394536287    -1.510922337165    -0.737113004744
    H           -2.398218012740    -2.929679020092    -1.192848519501
    H           -3.004984096457    -1.407716711670    -0.586595094712
    C           -0.722935134159    -0.106610575417    -0.137907173589
    H           -0.552027877626    -2.231993824047     0.024164461370
    H           -0.154724626504    -1.638702623476    -1.567001220452
    C            0.697571670965     0.238857475892     0.312343244817
    H           -1.400759296751    -0.023559758920     0.709607259308
    H           -1.054091513459     0.635675072734    -0.864824362186
    C            0.805073528127     1.635324341636     0.930647686577
    H            1.031640810400    -0.511176278319     1.024784313471
    H            1.370007727002     0.170867556369    -0.541241828037
    C            2.228739904998     2.060978317025     1.307719623548
    H            0.169999002742     1.688291290651     1.813707952604
    H            0.404031345077     2.360474751500     0.225277569416
    C            2.861394501327     1.238319753491     2.431664339446
    H            2.206681119623     3.105061098885     1.610167445998
    H            2.863194825572     2.014841008877     0.424920395333
    H            2.242335034215     1.256790656643     3.324710238924
    H            3.835789218806     1.635977598201     2.698225964668
    H            3.001106097598     0.200748519676     2.147153150041

  Mulliken Charges: (a.u.)
   Center  Symbol    Alpha    Beta     Spin     Total
       1     H     0.28261  0.28261  0.00000  0.43478
       2     O     4.37026  4.37026  0.00000 -0.74052
       3     C     2.99601  2.99601  0.00000  0.00798
       4     C     3.16974  3.16974  0.00000 -0.33948
       5     H     0.41437  0.41437  0.00000  0.17127
       6     H     0.43040  0.43040  0.00000  0.13919
       7     C     3.15635  3.15635  0.00000 -0.31271
       8     H     0.42216  0.42216  0.00000  0.15569
       9     H     0.41117  0.41117  0.00000  0.17765
      10     C     3.15319  3.15319  0.00000 -0.30638
      11     H     0.42198  0.42198  0.00000  0.15604
      12     H     0.43056  0.43056  0.00000  0.13888
      13     C     3.15260  3.15260  0.00000 -0.30520
      14     H     0.42063  0.42063  0.00000  0.15874
      15     H     0.42244  0.42244  0.00000  0.15512
      16     C     3.15249  3.15249  0.00000 -0.30498
      17     H     0.42418  0.42418  0.00000  0.15164
      18     H     0.42277  0.42277  0.00000  0.15447
      19     C     3.24135  3.24135  0.00000 -0.48271
      20     H     0.42076  0.42076  0.00000  0.15848
      21     H     0.42295  0.42295  0.00000  0.15410
      22     H     0.42231  0.42231  0.00000  0.15538
      23     H     0.41886  0.41886  0.00000  0.16229
      24     H     0.41987  0.41987  0.00000  0.16027

   Total alpha = 33.00000, Total beta = 33.00000, Total charge = -0.00000
