                              Psi4 1.0.54 Driver

  ==> Input File <==

--------------------------------------------------------------------------
set {
	reference rhf
	basis cc-pvtz
}

set_num_threads( 4 )
memory 2 gb

molecule MOL {
0 1

O	 3.219313	 0.959291	 -0.614106
C	 2.698710	 0.058177	 -0.050237
C	 1.246364	 -0.005813	 0.348416
O	 3.344101	 -1.038700	 0.312317
C	 0.453207	 1.232821	 -0.049003
H	 0.839270	 -0.907818	 -0.092281
H	 1.216683	 -0.160521	 1.422434
C	 -0.998367	 1.217982	 0.432195
H	 0.481498	 1.345443	 -1.127236
H	 0.951413	 2.105557	 0.354893
C	 -1.882951	 0.151251	 -0.211235
H	 -1.429490	 2.193659	 0.228843
H	 -1.019755	 1.099323	 1.513279
C	 -3.342450	 0.243269	 0.226009
H	 -1.826223	 0.246578	 -1.293162
H	 -1.508033	 -0.839650	 0.027695
C	 -4.324297	 -0.276100	 -0.820416
H	 -3.582610	 1.277778	 0.459363
H	 -3.476446	 -0.314761	 1.149866
C	 -5.780257	 -0.179193	 -0.377059
H	 -4.191737	 0.280684	 -1.744072
H	 -4.087362	 -1.310871	 -1.052726
H	 -6.449955	 -0.555804	 -1.141685
H	 -6.058883	 0.848895	 -0.170872
H	 -5.953376	 -0.754413	 0.526467
C	 4.720529	 -1.114346	 0.001449
H	 4.874321	 -1.055557	 -1.065852
H	 5.057824	 -2.067950	 0.373977
H	 5.264321	 -0.313596	 0.480350

	symmetry c1
}
set optking {
	frozen_dihedral = ("
		17 14 11 15
	")
}

ee,wfn = optimize('scf', return_wfn=True)
oeprop( wfn, 'DIPOLE', 'QUADRUPOLE', 'MULLIKEN_CHARGES')
f=open( 'psi4out.xyz', 'w' )
f.write( "29  " )
f.write( str(ee) + "\n" )
f.write( MOL.save_string_xyz() )
f.close()
--------------------------------------------------------------------------

    Molecular point group: c1
  Charge       = 0
  Multiplicity = 1
  Basis Set: CC-PVTZ
  Basis Set:
  @DF-RHF Final Energy:  -501.22240235821812
    Total Energy =                       -501.2224023582186874
    Molecular point group: c1
  Basis Set: CC-PVTZ
  Basis Set:
  Basis Set: CC-PVTZ
  Basis Set:
  @DF-RHF Final Energy:  -501.22237848600776
    Total Energy =                       -501.2223784860079832
  Basis Set: CC-PVTZ
  Basis Set:
  Basis Set: CC-PVTZ
  Basis Set:
  @DF-RHF Final Energy:  -501.22266822195627
    Total Energy =                       -501.2226682219563827
  Basis Set: CC-PVTZ
  Basis Set:
  Basis Set: CC-PVTZ
  Basis Set:
  @DF-RHF Final Energy:  -501.22249057840997
    Total Energy =                       -501.2224905784102020
  Basis Set: CC-PVTZ
  Basis Set:
  Basis Set: CC-PVTZ
  Basis Set:
  @DF-RHF Final Energy:  -501.22268261746785
    Total Energy =                       -501.2226826174685357
  Basis Set: CC-PVTZ
  Basis Set:
  Charge       = 0
  Multiplicity = 1
  Basis Set: CC-PVTZ
  Basis Set:

    Orbital Energies (a.u.)
    -----------------------

    Doubly Occupied:

       1A    -20.596033     2A    -20.533882     3A    -11.364303
       4A    -11.278281     5A    -11.232998     6A    -11.217113
       7A    -11.215951     8A    -11.214120     9A    -11.213458
      10A    -11.212151    11A    -11.206999    12A     -1.471902
      13A     -1.365515    14A     -1.098832    15A     -1.067707
      16A     -1.020528    17A     -0.977846    18A     -0.929206
      19A     -0.862397    20A     -0.800675    21A     -0.791003
      22A     -0.765898    23A     -0.703279    24A     -0.685462
      25A     -0.675955    26A     -0.648682    27A     -0.628730
      28A     -0.605924    29A     -0.598305    30A     -0.581361
      31A     -0.566496    32A     -0.551873    33A     -0.533670
      34A     -0.531088    35A     -0.517418    36A     -0.512008
      37A     -0.498133    38A     -0.477487    39A     -0.471385
      40A     -0.462955    41A     -0.459533    42A     -0.455275
      43A     -0.444180    44A     -0.437558

  @DF-RHF Final Energy:  -501.22268344657630

   => Energetics <=

    Nuclear Repulsion Energy =            610.5754293637279488
    One-Electron Energy =               -1892.6291097363020981
    Two-Electron Energy =                 780.8309969259983063
    DFT Exchange-Correlation Energy =       0.0000000000000000
    Empirical Dispersion Energy =           0.0000000000000000
    PCM Polarization Energy =               0.0000000000000000
    EFP Energy =                            0.0000000000000000
    Total Energy =                       -501.2226834465757292
    Molecular point group: c1
  Basis Set: CC-PVTZ
  Basis Set:

  -Total Gradient:
     Atom            X                  Y                   Z
    ------   -----------------  -----------------  -----------------
       1       -0.000031314036     0.000040007689    -0.000068629488
       2        0.000042452700     0.000053595040     0.000132057283
       3        0.000006241206    -0.000018300635    -0.000030492343
       4       -0.000024344861    -0.000069647083    -0.000005454742
       5       -0.000015158002    -0.000014458674    -0.000046702278
       6        0.000003543999     0.000007343888     0.000002890376
       7        0.000012537776    -0.000003600528     0.000000598999
       8       -0.000013931240     0.000005353140     0.000027123834
       9        0.000003992535    -0.000001693135    -0.000003396106
      10        0.000002468439     0.000007406626    -0.000001035409
      11        0.000238639794     0.005993205132     0.000245689936
      12        0.000006689962     0.000006906892     0.000010753953
      13       -0.000004089446    -0.000014124666    -0.000001589714
      14        0.000322579868    -0.004742849013     0.001309921659
      15       -0.000310645389    -0.003983445703    -0.000517585104
      16        0.000003844536    -0.000036270648     0.000014865714
      17       -0.000237489221     0.002763316645    -0.001095775215
      18       -0.000000062937     0.000032674057     0.000008367846
      19        0.000028237599    -0.000010409436    -0.000000998612
      20       -0.000032645592    -0.000025177172     0.000030115089
      21        0.000028009070     0.000041997467    -0.000041270135
      22        0.000027039304    -0.000041840041    -0.000024527030
      23        0.000007071178    -0.000007322022     0.000001443376
      24       -0.000030088711     0.000045114833     0.000002399073
      25       -0.000034214225    -0.000032603733     0.000057885596
      26        0.000001044920     0.000015430754    -0.000012184985
      27        0.000005771003    -0.000002917653     0.000000490863
      28       -0.000008124399    -0.000005268392     0.000004332444
      29        0.000001944170    -0.000002423626     0.000000705121

  **** Optimization is complete! (in 6 steps) ****
    Final optimized geometry and variables:
    Molecular point group: c1

    Geometry (in Angstrom), charge = 0, multiplicity = 1:

    O            3.253523851083     0.836551830708    -0.531984269250
    C            2.716922271016    -0.059217381413     0.025405468822
    C            1.261161697689    -0.104719274769     0.414115042730
    O            3.344556736665    -1.166531619123     0.387515436289
    C            0.488251822444     1.146817022921     0.016955693808
    H            0.844856706526    -0.999326366708    -0.032866178281
    H            1.222254176294    -0.263285805884     1.487248033073
    C           -0.967311679048     1.151138637966     0.486063450682
    H            0.526987305792     1.265473654581    -1.060340929415
    H            0.995606003714     2.009924863343     0.430102528367
    C           -1.869987182205     0.124555495578    -0.193273074491
    H           -1.376189943351     2.140805397876     0.306733461069
    H           -1.001551904753     1.003009888919     1.563489653958
    C           -3.321739534765     0.167548619506     0.295973139351
    H           -1.844111338216     0.259973005669    -1.271580682574
    H           -1.482481884269    -0.876727757112    -0.027466015242
    C           -4.327493792625    -0.335360397893    -0.736216743713
    H           -3.583644607108     1.191148959379     0.553836838481
    H           -3.415798620629    -0.405824462312     1.213897649897
    C           -5.763665753259    -0.337695209408    -0.223453941131
    H           -4.261426388173     0.287123334891    -1.623942570838
    H           -4.055777883074    -1.340591672086    -1.049180771083
    H           -6.451969093611    -0.687953652569    -0.984087582937
    H           -6.075496009488     0.659182006544     0.070701584125
    H           -5.869970877255    -0.984137793525     0.641468289169
    C            4.721726666808    -1.260323169516     0.084910380393
    H            4.883064668050    -1.199422657836    -0.981159896433
    H            5.043216215721    -2.220095077373     0.455607723044
    H            5.273743785543    -0.469279639830     0.570494877384

  Mulliken Charges: (a.u.)
   Center  Symbol    Alpha    Beta     Spin     Total
       1     O     4.19699  4.19699  0.00000 -0.39397
       2     C     2.80465  2.80465  0.00000  0.39070
       3     C     3.10164  3.10164  0.00000 -0.20328
       4     O     4.14725  4.14725  0.00000 -0.29450
       5     C     3.09262  3.09262  0.00000 -0.18524
       6     H     0.43916  0.43916  0.00000  0.12167
       7     H     0.43997  0.43997  0.00000  0.12006
       8     C     3.10311  3.10311  0.00000 -0.20622
       9     H     0.44617  0.44617  0.00000  0.10766
      10     H     0.43954  0.43954  0.00000  0.12091
      11     C     3.09541  3.09541  0.00000 -0.19083
      12     H     0.44524  0.44524  0.00000  0.10951
      13     H     0.45315  0.45315  0.00000  0.09370
      14     C     3.08696  3.08696  0.00000 -0.17393
      15     H     0.45274  0.45274  0.00000  0.09453
      16     H     0.45335  0.45335  0.00000  0.09331
      17     C     3.08309  3.08309  0.00000 -0.16619
      18     H     0.45594  0.45594  0.00000  0.08812
      19     H     0.45314  0.45314  0.00000  0.09372
      20     C     3.15060  3.15060  0.00000 -0.30119
      21     H     0.45408  0.45408  0.00000  0.09185
      22     H     0.45473  0.45473  0.00000  0.09055
      23     H     0.44838  0.44838  0.00000  0.10325
      24     H     0.45496  0.45496  0.00000  0.09008
      25     H     0.45518  0.45518  0.00000  0.08963
      26     C     3.03811  3.03811  0.00000 -0.07621
      27     H     0.45434  0.45434  0.00000  0.09132
      28     H     0.44528  0.44528  0.00000  0.10944
      29     H     0.45423  0.45423  0.00000  0.09154

   Total alpha = 44.00000, Total beta = 44.00000, Total charge =  0.00000

*** Psi4 exiting successfully. Buy a developer a beer!
