  ==> Input File <==

--------------------------------------------------------------------------
set {
	reference rhf
	basis 6-31G*
}

set_num_threads( 4 )
memory 2 gb

molecule MOL {
0 1

H	 3.276176	 0.174363	 -0.109463
N	 2.434251	 -0.367735	 -0.081097
C	 1.267428	 0.496480	 0.024474
H	 2.501951	 -0.965776	 0.720575
C	 -0.016086	 -0.325158	 -0.029487
H	 1.288818	 1.183521	 -0.816092
H	 1.267576	 1.109062	 0.929528
C	 -1.282277	 0.529072	 0.046735
H	 -0.012495	 -0.908639	 -0.945788
H	 -0.015903	 -1.041248	 0.791956
C	 -1.695696	 1.101392	 -1.308712
H	 -1.124340	 1.345657	 0.748328
H	 -2.099187	 -0.065831	 0.450101
H	 -0.913052	 1.730320	 -1.723003
H	 -2.594752	 1.703922	 -1.223990
H	 -1.894835	 0.308699	 -2.024396

	symmetry c1
}
set optking {
	frozen_dihedral = ("
		12 8 5 9
	")
}

ee = optimize('scf')
oeprop('DIPOLE', 'QUADRUPOLE', 'MULLIKEN_CHARGES')
f=open( 'psi4out.xyz', 'w' )
f.write( "16  " )
f.write( str(ee) + "\n" )
f.write( MOL.save_string_xyz() )
f.close()
--------------------------------------------------------------------------

    Molecular point group: c1
  Charge       = 0
  Multiplicity = 1
  Basis Set: 6-31G*
  Basis Set:
  @DF-RHF Final Energy:  -212.31442311578047
    Total Energy =                       -212.3144231157804143
    Molecular point group: c1
  Basis Set: 6-31G*
  Basis Set:
  Basis Set: 6-31G*
  Basis Set:
  @DF-RHF Final Energy:  -212.31456168410503
    Total Energy =                       -212.3145616841048877
  Basis Set: 6-31G*
  Basis Set:
  Basis Set: 6-31G*
  Basis Set:
  @DF-RHF Final Energy:  -212.31459666520865
    Total Energy =                       -212.3145966652085690
  Basis Set: 6-31G*
  Basis Set:
  Charge       = 0
  Multiplicity = 1
  Basis Set: 6-31G*
  Basis Set:

    Orbital Energies (a.u.)
    -----------------------

    Doubly Occupied:

       1A    -15.532635     2A    -11.239778     3A    -11.215119
       4A    -11.209706     5A    -11.207312     6A     -1.176807
       7A     -1.058062     8A     -0.955333     9A     -0.853036
      10A     -0.784292    11A     -0.663089    12A     -0.626297
      13A     -0.614510    14A     -0.591711    15A     -0.546695
      16A     -0.521149    17A     -0.514114    18A     -0.468580
      19A     -0.464640    20A     -0.455030    21A     -0.381328

  @DF-RHF Final Energy:  -212.31459726337269

   => Energetics <=

    Nuclear Repulsion Energy =            188.2134561731948281
    One-Electron Energy =                -658.8976570469662875
    Two-Electron Energy =                 258.3696036103987694
    DFT Exchange-Correlation Energy =       0.0000000000000000
    Empirical Dispersion Energy =           0.0000000000000000
    PCM Polarization Energy =               0.0000000000000000
    EFP Energy =                            0.0000000000000000
    Total Energy =                       -212.3145972633727183
    Molecular point group: c1
  Basis Set: 6-31G*
  Basis Set:

  -Total Gradient:
     Atom            X                  Y                   Z
    ------   -----------------  -----------------  -----------------
       1        0.000005222948    -0.000005753166    -0.000003393103
       2        0.000013161577    -0.000015572321    -0.000029479245
       3       -0.000011495941     0.000004287938     0.000051388414
       4       -0.000003352205     0.000007583959    -0.000003631251
       5       -0.001209107973    -0.001892886037     0.000999729541
       6       -0.000002706589    -0.000007041980    -0.000006195142
       7       -0.000012108154     0.000032494089     0.000008047739
       8       -0.000836715138    -0.001314702104     0.001909272591
       9        0.001114707690     0.001815240341    -0.001149018651
      10       -0.000013163203     0.000038397328     0.000005750518
      11        0.000065284893    -0.000014891720     0.000013054243
      12        0.000874889193     0.001363498815    -0.001805700278
      13        0.000008748005    -0.000023534928    -0.000010854177
      14        0.000013569194     0.000002311971    -0.000017161373
      15        0.000008650257     0.000015631947     0.000031353808
      16       -0.000015584550    -0.000005064131     0.000006836364

  **** Optimization is complete! (in 4 steps) ****
    Final optimized geometry and variables:
    Molecular point group: c1

    Geometry (in Angstrom), charge = 0, multiplicity = 1:

    H            3.099607923839    -0.114730280293     0.143323143271
    N            2.256388336878    -0.654868893428     0.170228969175
    C            1.092719869193     0.209435937541     0.303242036248
    H            2.330373183482    -1.268491422664     0.959480709071
    C           -0.192399663686    -0.614898799526     0.256739657859
    H            1.110078969687     0.910312232379    -0.525040312150
    H            1.103250737033     0.806027383049     1.218871871190
    C           -1.468198074378     0.238042876076     0.310817329597
    H           -0.173466895924    -1.204318805680    -0.655202668838
    H           -0.183899394544    -1.315933417808     1.088998004350
    C           -1.874316265237     0.814185428947    -1.048054306241
    H           -1.325576865610     1.060667183961     1.008728859407
    H           -2.288889510748    -0.359001100656     0.697626171545
    H           -1.091976326746     1.436621808983    -1.471602876410
    H           -2.767081955559     1.426036150304    -0.960463935232
    H           -2.084682591723     0.020862724765    -1.759391607286

  Mulliken Charges: (a.u.)
   Center  Symbol    Alpha    Beta     Spin     Total
       1     H     0.33246  0.33246  0.00000  0.33508
       2     N     3.92178  3.92178  0.00000 -0.84355
       3     C     3.06158  3.06158  0.00000 -0.12316
       4     H     0.33538  0.33538  0.00000  0.32924
       5     C     3.15349  3.15349  0.00000 -0.30699
       6     H     0.42018  0.42018  0.00000  0.15964
       7     H     0.43470  0.43470  0.00000  0.13061
       8     C     3.15816  3.15816  0.00000 -0.31632
       9     H     0.41246  0.41246  0.00000  0.17507
      10     H     0.42550  0.42550  0.00000  0.14900
      11     C     3.23975  3.23975  0.00000 -0.47950
      12     H     0.42362  0.42362  0.00000  0.15276
      13     H     0.41930  0.41930  0.00000  0.16140
      14     H     0.42137  0.42137  0.00000  0.15726
      15     H     0.42005  0.42005  0.00000  0.15990
      16     H     0.42023  0.42023  0.00000  0.15955

   Total alpha = 21.00000, Total beta = 21.00000, Total charge =  0.00000
