  ==> Input File <==

--------------------------------------------------------------------------
set {
	reference rhf
	basis 6-31G*
}

set_num_threads( 4 )
memory 2 gb

molecule MOL {
0 1

H	 -3.135461	 -1.215070	 0.001379
O	 -2.310168	 -0.871793	 -0.309793
C	 -2.026376	 0.340750	 0.341611
C	 -0.673256	 0.843270	 -0.132153
H	 -2.792215	 1.080697	 0.115987
H	 -2.013526	 0.200402	 1.421792
C	 0.486613	 -0.083066	 0.235839
H	 -0.715586	 0.970948	 -1.210718
H	 -0.508072	 1.829858	 0.297090
C	 1.239314	 0.372624	 1.487079
H	 1.173820	 -0.142477	 -0.601855
H	 0.104017	 -1.090629	 0.394825
C	 2.394755	 -0.556301	 1.858197
H	 1.622689	 1.378537	 1.329345
H	 0.546741	 0.438251	 2.324026
H	 3.122557	 -0.615518	 1.054028
H	 2.911300	 -0.207396	 2.747237
H	 2.039756	 -1.563945	 2.056036

	symmetry c1
}
set optking {
	frozen_dihedral = ("
		10 7 4 8
	")
}

ee = optimize('scf')
oeprop('DIPOLE', 'QUADRUPOLE', 'MULLIKEN_CHARGES')
f=open( 'psi4out.xyz', 'w' )
f.write( "18  " )
f.write( str(ee) + "\n" )
f.write( MOL.save_string_xyz() )
f.close()
--------------------------------------------------------------------------

    Molecular point group: c1
  Charge       = 0
  Multiplicity = 1
  Basis Set: 6-31G*
  Basis Set:
  @DF-RHF Final Energy:  -271.17591282089126
    Total Energy =                       -271.1759128208910852
    Molecular point group: c1
  Basis Set: 6-31G*
  Basis Set:
  Basis Set: 6-31G*
  Basis Set:
  @DF-RHF Final Energy:  -271.17616326699715
    Total Energy =                       -271.1761632669971505
  Basis Set: 6-31G*
  Basis Set:
  Basis Set: 6-31G*
  Basis Set:
  @DF-RHF Final Energy:  -271.17623354818852
    Total Energy =                       -271.1762335481887476
  Basis Set: 6-31G*
  Basis Set:
  Charge       = 0
  Multiplicity = 1
  Basis Set: 6-31G*
  Basis Set:

    Orbital Energies (a.u.)
    -----------------------

    Doubly Occupied:

       1A    -20.553209     2A    -11.268320     3A    -11.212414
       4A    -11.211702     5A    -11.206423     6A    -11.205510
       7A     -1.359950     8A     -1.074281     9A     -1.007860
      10A     -0.913136    11A     -0.824781    12A     -0.779456
      13A     -0.702364    14A     -0.650855    15A     -0.617811
      16A     -0.581143    17A     -0.568158    18A     -0.557551
      19A     -0.527147    20A     -0.505177    21A     -0.484584
      22A     -0.469002    23A     -0.454088    24A     -0.449611
      25A     -0.428281

  @DF-RHF Final Energy:  -271.17623345100333

   => Energetics <=

    Nuclear Repulsion Energy =            250.7260899631230302
    One-Electron Energy =                -864.5790187494446855
    Two-Electron Energy =                 342.6766953353182998
    DFT Exchange-Correlation Energy =       0.0000000000000000
    Empirical Dispersion Energy =           0.0000000000000000
    PCM Polarization Energy =               0.0000000000000000
    EFP Energy =                            0.0000000000000000
    Total Energy =                       -271.1762334510033270
    Molecular point group: c1
  Basis Set: 6-31G*
  Basis Set:

  -Total Gradient:
     Atom            X                  Y                   Z
    ------   -----------------  -----------------  -----------------
       1       -0.000015769078    -0.000039172645    -0.000005087413
       2        0.000049004603    -0.000052426675     0.000038814375
       3        0.000026201209    -0.000078547496    -0.000065233429
       4       -0.002023353293    -0.002778520782    -0.000694855807
       5        0.000071379737     0.000058630281    -0.000000981208
       6       -0.000005153339    -0.000006000538     0.000001755880
       7       -0.001522774349    -0.001249647110     0.002008042872
       8        0.001966942572     0.002506709337     0.000343586235
       9        0.000148121048     0.000060732119    -0.000040188606
      10        0.001405537687     0.001448316259    -0.001247320913
      11        0.000053293011     0.000107914775    -0.000188827093
      12       -0.000023520434     0.000086285914    -0.000119531851
      13       -0.000185775677    -0.000128047156    -0.000015155031
      14        0.000035027008    -0.000067876078    -0.000093233567
      15        0.000034015418     0.000119721265     0.000108851473
      16        0.000022646194     0.000033230086    -0.000001169949
      17       -0.000080921666     0.000015705459    -0.000007619705
      18        0.000045099348    -0.000037007015    -0.000021846262

  **** Optimization is complete! (in 4 steps) ****
    Final optimized geometry and variables:
    Molecular point group: c1

    Geometry (in Angstrom), charge = 0, multiplicity = 1:

    H           -2.933264818869    -1.207313489478    -0.554927606346
    O           -2.123378034656    -0.848691164016    -0.888611515637
    C           -1.826722864429     0.352092924349    -0.221369552277
    C           -0.483482990043     0.861408486562    -0.714389686061
    H           -2.596406220244     1.096112263064    -0.418089319937
    H           -1.793618142688     0.191671338072     0.855689557291
    C            0.701539435181    -0.049687564775    -0.346554544705
    H           -0.536830766191     1.000002376635    -1.789305059236
    H           -0.325461993044     1.853879651969    -0.295916799600
    C            1.453365117820     0.404368069127     0.907448066348
    H            1.405473583288    -0.074638286812    -1.174979307262
    H            0.348309140898    -1.068421067059    -0.224418068581
    C            2.582137996440    -0.547185180054     1.300888584546
    H            1.860931007757     1.398523305544     0.737189884316
    H            0.758486661254     0.499791286661     1.740457991348
    H            3.314347057502    -0.636303376431     0.503133627803
    H            3.101032140957    -0.198165915982     2.188483147255
    H            2.200623886537    -1.542626646003     1.509595910915

  Mulliken Charges: (a.u.)
   Center  Symbol    Alpha    Beta     Spin     Total
       1     H     0.28075  0.28075  0.00000  0.43849
       2     O     4.36916  4.36916  0.00000 -0.73833
       3     C     2.99865  2.99865  0.00000  0.00269
       4     C     3.16245  3.16245  0.00000 -0.32490
       5     H     0.42921  0.42921  0.00000  0.14158
       6     H     0.43263  0.43263  0.00000  0.13474
       7     C     3.15710  3.15710  0.00000 -0.31420
       8     H     0.41193  0.41193  0.00000  0.17614
       9     H     0.42288  0.42288  0.00000  0.15425
      10     C     3.15334  3.15334  0.00000 -0.30668
      11     H     0.42130  0.42130  0.00000  0.15741
      12     H     0.40823  0.40823  0.00000  0.18354
      13     C     3.23917  3.23917  0.00000 -0.47835
      14     H     0.42382  0.42382  0.00000  0.15235
      15     H     0.42597  0.42597  0.00000  0.14807
      16     H     0.42159  0.42159  0.00000  0.15681
      17     H     0.42051  0.42051  0.00000  0.15898
      18     H     0.42130  0.42130  0.00000  0.15740

   Total alpha = 25.00000, Total beta = 25.00000, Total charge =  0.00000
