                              Psi4 1.0.54 Driver

  ==> Input File <==

--------------------------------------------------------------------------
set {
	reference rhf
	basis cc-pvtz
}

set_num_threads( 4 )
memory 2 gb

molecule MOL {
0 1

H	 -1.158361	 2.627386	 3.678787
O	 -0.471247	 2.054505	 3.392643
C	 -0.739376	 1.588520	 2.096733
C	 0.388410	 0.670122	 1.671570
H	 -1.684460	 1.049945	 2.073797
H	 -0.820435	 2.421746	 1.401755
C	 0.196029	 0.106276	 0.266738
H	 0.462107	 -0.139412	 2.390905
H	 1.321066	 1.222330	 1.727561
C	 1.330220	 -0.826136	 -0.155230
H	 -0.751988	 -0.420906	 0.221383
H	 0.125636	 0.925169	 -0.446032
C	 2.719700	 -0.407669	 0.328325
H	 1.339388	 -0.911200	 -1.239363
H	 1.119001	 -1.821953	 0.224128
C	 3.241564	 0.893452	 -0.276737
H	 3.418299	 -1.204729	 0.093035
H	 2.711776	 -0.323368	 1.411960
H	 3.254204	 0.841071	 -1.360784
H	 2.634460	 1.745075	 0.005842
H	 4.254264	 1.092401	 0.054971

	symmetry c1
}
set optking {
	frozen_dihedral = ("
		4 7 10 14
	")
}

ee,wfn = optimize('scf', return_wfn=True)
oeprop( wfn, 'DIPOLE', 'QUADRUPOLE', 'MULLIKEN_CHARGES')
f=open( 'psi4out.xyz', 'w' )
f.write( "21  " )
f.write( str(ee) + "\n" )
f.write( MOL.save_string_xyz() )
f.close()
--------------------------------------------------------------------------

    Molecular point group: c1
  Charge       = 0
  Multiplicity = 1
  Basis Set: CC-PVTZ
  Basis Set:
  @DF-RHF Final Energy:  -310.32676050791338
    Total Energy =                       -310.3267605079133773
    Molecular point group: c1
  Basis Set: CC-PVTZ
  Basis Set:
  Basis Set: CC-PVTZ
  Basis Set:
  @DF-RHF Final Energy:  -310.29340014126007
    Total Energy =                       -310.2934001412600651
  Basis Set: CC-PVTZ
  Basis Set:
  Basis Set: CC-PVTZ
  Basis Set:
  @DF-RHF Final Energy:  -310.32675781019282
    Total Energy =                       -310.3267578101925892
  Basis Set: CC-PVTZ
  Basis Set:
  Basis Set: CC-PVTZ
  Basis Set:
  @DF-RHF Final Energy:  -310.32871179177840
    Total Energy =                       -310.3287117917786304
  Basis Set: CC-PVTZ
  Basis Set:
  Basis Set: CC-PVTZ
  Basis Set:
  @DF-RHF Final Energy:  -310.32883239171360
    Total Energy =                       -310.3288323917135472
  Basis Set: CC-PVTZ
  Basis Set:
  Basis Set: CC-PVTZ
  Basis Set:
  @DF-RHF Final Energy:  -310.32887921117424
    Total Energy =                       -310.3288792111741259
  Basis Set: CC-PVTZ
  Basis Set:
  Basis Set: CC-PVTZ
  Basis Set:
  @DF-RHF Final Energy:  -310.32888389888319
    Total Energy =                       -310.3288838988831344
  Basis Set: CC-PVTZ
  Basis Set:
  Charge       = 0
  Multiplicity = 1
  Basis Set: CC-PVTZ
  Basis Set:

    Orbital Energies (a.u.)
    -----------------------

    Doubly Occupied:

       1A    -20.545537     2A    -11.265116     3A    -11.213934
       4A    -11.211987     5A    -11.210666     6A    -11.208796
       7A    -11.204880     8A     -1.363404     9A     -1.086593
      10A     -1.030490    11A     -0.956632    12A     -0.875596
      13A     -0.820917    14A     -0.763490    15A     -0.692812
      16A     -0.662281    17A     -0.628539    18A     -0.618372
      19A     -0.573286    20A     -0.563597    21A     -0.549611
      22A     -0.527554    23A     -0.503103    24A     -0.494188
      25A     -0.479216    26A     -0.454112    27A     -0.448947
      28A     -0.447062    29A     -0.437793

  @DF-RHF Final Energy:  -310.32888476066745

   => Energetics <=

    Nuclear Repulsion Energy =            320.4733377507361070
    One-Electron Energy =               -1055.9274251327933598
    Two-Electron Energy =                 425.1252026213898034
    DFT Exchange-Correlation Energy =       0.0000000000000000
    Empirical Dispersion Energy =           0.0000000000000000
    PCM Polarization Energy =               0.0000000000000000
    EFP Energy =                            0.0000000000000000
    Total Energy =                       -310.3288847606673926
    Molecular point group: c1
  Basis Set: CC-PVTZ
  Basis Set:

  -Total Gradient:
     Atom            X                  Y                   Z
    ------   -----------------  -----------------  -----------------
       1       -0.000004531726    -0.000002663287    -0.000008626646
       2        0.000012172314    -0.000007076460    -0.000001761512
       3       -0.000005909835    -0.000007639257    -0.000012105731
       4        0.001128150471     0.004238069376    -0.001726234733
       5        0.000000043592     0.000002162517     0.000001553829
       6        0.000008725247    -0.000004119480     0.000007845887
       7       -0.001059541559    -0.004778427260     0.002375723329
       8        0.000003495651     0.000002033009    -0.000008572869
       9       -0.000012480924    -0.000010778257     0.000011291665
      10       -0.002505770981    -0.005107721845    -0.000260396320
      11       -0.000004278305    -0.000004220099    -0.000003155546
      12        0.000000533659     0.000010710557     0.000011281458
      13        0.000010525627    -0.000004014368    -0.000014526381
      14        0.002456975899     0.005699870970    -0.000372906893
      15        0.000015039430    -0.000010100715    -0.000003376493
      16       -0.000029800982     0.000000377801     0.000000239909
      17       -0.000006242714    -0.000012555115     0.000008179389
      18       -0.000014460158    -0.000001338770    -0.000008276813
      19        0.000002513312     0.000004938374     0.000022105581
      20        0.000012147817     0.000002745375    -0.000015939820
      21       -0.000007305831    -0.000010253069    -0.000002341295

  **** Optimization is complete! (in 8 steps) ****
    Final optimized geometry and variables:
    Molecular point group: c1

    Geometry (in Angstrom), charge = 0, multiplicity = 1:

    H           -2.393322499392     1.167245598338     2.917512832143
    O           -1.580625179320     0.881031618655     2.543700606016
    C           -1.796313429655     0.363689194188     1.257472454429
    C           -0.464580259921    -0.083926779198     0.688685056688
    H           -2.485310479358    -0.477216171941     1.295999456339
    H           -2.238718791617     1.120153371632     0.612384402819
    C           -0.600690039627    -0.631895667667    -0.730408822616
    H           -0.047315990180    -0.837398353857     1.350321920242
    H            0.212132236816     0.760409427962     0.712605037592
    C            0.678099364228    -1.225442076563    -1.345194078081
    H           -1.373015429670    -1.395117698257    -0.752507109105
    H           -0.960747098075     0.170223350445    -1.369319577933
    C            1.982412277616    -0.467711782482    -1.073395549433
    H            0.554380812264    -1.243162789198    -2.424357534213
    H            0.796754831072    -2.250648649794    -1.010555815642
    C            2.039160220437     0.921645759922    -1.704230744833
    H            2.800011036484    -1.060893941895    -1.471735867468
    H            2.161547691514    -0.392783980106    -0.006627338337
    H            1.910326955222     0.863683538865    -2.780339044632
    H            1.267813836957     1.576958126316    -1.317246708831
    H            2.995331009083     1.394942112350    -1.512504677718

  Mulliken Charges: (a.u.)
   Center  Symbol    Alpha    Beta     Spin     Total
       1     H     0.39758  0.39758  0.00000  0.20485
       2     O     4.19487  4.19487  0.00000 -0.38975
       3     C     2.96601  2.96601  0.00000  0.06797
       4     C     3.08908  3.08908  0.00000 -0.17816
       5     H     0.47284  0.47284  0.00000  0.05432
       6     H     0.47492  0.47492  0.00000  0.05016
       7     C     3.11607  3.11607  0.00000 -0.23215
       8     H     0.44939  0.44939  0.00000  0.10121
       9     H     0.44731  0.44731  0.00000  0.10539
      10     C     3.09650  3.09650  0.00000 -0.19301
      11     H     0.44568  0.44568  0.00000  0.10865
      12     H     0.45165  0.45165  0.00000  0.09670
      13     C     3.10035  3.10035  0.00000 -0.20070
      14     H     0.45117  0.45117  0.00000  0.09765
      15     H     0.44680  0.44680  0.00000  0.10641
      16     C     3.15055  3.15055  0.00000 -0.30109
      17     H     0.44437  0.44437  0.00000  0.11125
      18     H     0.44909  0.44909  0.00000  0.10182
      19     H     0.45462  0.45462  0.00000  0.09076
      20     H     0.45461  0.45461  0.00000  0.09079
      21     H     0.44654  0.44654  0.00000  0.10692

   Total alpha = 29.00000, Total beta = 29.00000, Total charge = -0.00000

*** Psi4 exiting successfully. Buy a developer a beer!
