                              Psi4 1.0.54 Driver

  ==> Input File <==

--------------------------------------------------------------------------
set {
	reference rhf
	basis cc-pvtz
}

set_num_threads( 4 )
memory 2 gb

molecule MOL {
0 1

O	 -0.137668	 -0.985405	 -2.894150
C	 -0.651159	 -0.174825	 -2.193637
C	 -0.881910	 -0.448129	 -0.720509
C	 -1.082245	 1.171621	 -2.724688
C	 0.376695	 -0.140025	 0.100361
H	 -1.135456	 -1.495596	 -0.617363
H	 -1.714932	 0.142428	 -0.354201
C	 1.630207	 -0.772146	 -0.501001
H	 0.486632	 0.935267	 0.162725
H	 0.248225	 -0.501310	 1.117842
C	 2.907848	 -0.545876	 0.309149
H	 1.772784	 -0.391628	 -1.509394
H	 1.468529	 -1.842059	 -0.599744
C	 3.373802	 0.906639	 0.372125
H	 3.699140	 -1.146831	 -0.127906
H	 2.764321	 -0.923458	 1.318191
H	 3.519798	 1.311927	 -0.623875
H	 4.316899	 0.983758	 0.900700
H	 2.661122	 1.540651	 0.885346
H	 -2.165733	 1.232367	 -2.705638
H	 -0.731971	 1.301749	 -3.737084
H	 -0.705736	 1.970000	 -2.095069

	symmetry c1
}
set optking {
	frozen_dihedral = ("
		6 3 5 8
	")
}

ee,wfn = optimize('scf', return_wfn=True)
oeprop( wfn, 'DIPOLE', 'QUADRUPOLE', 'MULLIKEN_CHARGES')
f=open( 'psi4out.xyz', 'w' )
f.write( "22  " )
f.write( str(ee) + "\n" )
f.write( MOL.save_string_xyz() )
f.close()
--------------------------------------------------------------------------

    Molecular point group: c1
  Charge       = 0
  Multiplicity = 1
  Basis Set: CC-PVTZ
  Basis Set:
  @DF-RHF Final Energy:  -348.21849730888584
    Total Energy =                       -348.2184973088863558
    Molecular point group: c1
  Basis Set: CC-PVTZ
  Basis Set:
  Basis Set: CC-PVTZ
  Basis Set:
  @DF-RHF Final Energy:  -348.20530037648024
    Total Energy =                       -348.2053003764796131
  Basis Set: CC-PVTZ
  Basis Set:
  Basis Set: CC-PVTZ
  Basis Set:
  @DF-RHF Final Energy:  -348.22048581039434
    Total Energy =                       -348.2204858103942229
  Basis Set: CC-PVTZ
  Basis Set:
  Basis Set: CC-PVTZ
  Basis Set:
  @DF-RHF Final Energy:  -348.22028086400849
    Total Energy =                       -348.2202808640083731
  Basis Set: CC-PVTZ
  Basis Set:
  @DF-RHF Final Energy:  -348.22105386444900
    Total Energy =                       -348.2210538644485496
  @DF-RHF Final Energy:  -348.22143321693187
    Total Energy =                       -348.2214332169320414
  @DF-RHF Final Energy:  -348.22154679756107
    Total Energy =                       -348.2215467975612455
  @DF-RHF Final Energy:  -348.22161879593330
    Total Energy =                       -348.2216187959332956
  @DF-RHF Final Energy:  -348.22166680552789
    Total Energy =                       -348.2216668055280593
  @DF-RHF Final Energy:  -348.22170334740213
    Total Energy =                       -348.2217033474021264
  @DF-RHF Final Energy:  -348.22170721528585
    Total Energy =                       -348.2217072152853348
  Basis Set: CC-PVTZ
  Basis Set:
  @DF-RHF Final Energy:  -348.22171017078898
    Total Energy =                       -348.2217101707891516
  Basis Set: CC-PVTZ
  Basis Set:
  Basis Set: CC-PVTZ
  Basis Set:
  @DF-RHF Final Energy:  -348.22171400438640
    Total Energy =                       -348.2217140043858308
  Basis Set: CC-PVTZ
  Basis Set:
  Basis Set: CC-PVTZ
  Basis Set:
  @DF-RHF Final Energy:  -348.22171647898784
    Total Energy =                       -348.2217164789883554
  Basis Set: CC-PVTZ
  Basis Set:
  Charge       = 0
  Multiplicity = 1
  Basis Set: CC-PVTZ
  Basis Set:

    Orbital Energies (a.u.)
    -----------------------

    Doubly Occupied:

       1A    -20.537365     2A    -11.319150     3A    -11.229762
       4A    -11.228065     5A    -11.226155     6A    -11.219187
       7A    -11.218494     8A    -11.211862     9A     -1.396900
      10A     -1.098057    11A     -1.045340    12A     -0.997673
      13A     -0.940406    14A     -0.862730    15A     -0.791943
      16A     -0.729418    17A     -0.660205    18A     -0.646373
      19A     -0.629269    20A     -0.621987    21A     -0.600878
      22A     -0.576404    23A     -0.573483    24A     -0.544454
      25A     -0.536308    26A     -0.516372    27A     -0.507723
      28A     -0.492739    29A     -0.472194    30A     -0.464230
      31A     -0.455322    32A     -0.400179

  @DF-RHF Final Energy:  -348.22171702794577

   => Energetics <=

    Nuclear Repulsion Energy =            382.7320731715389570
    One-Electron Energy =               -1230.4063318466924102
    Two-Electron Energy =                 499.4525416472074539
    DFT Exchange-Correlation Energy =       0.0000000000000000
    Empirical Dispersion Energy =           0.0000000000000000
    PCM Polarization Energy =               0.0000000000000000
    EFP Energy =                            0.0000000000000000
    Total Energy =                       -348.2217170279459424
    Molecular point group: c1
  Basis Set: CC-PVTZ
  Basis Set:

  -Total Gradient:
     Atom            X                  Y                   Z
    ------   -----------------  -----------------  -----------------
       1        0.000012960917    -0.000061380316    -0.000028133705
       2       -0.000026518326     0.000101298657     0.000019216394
       3        0.002378597089    -0.000383373627    -0.002787127644
       4        0.000009680546    -0.000056738669    -0.000013099605
       5       -0.000842211381    -0.001823669185     0.002240038710
       6       -0.001806523876     0.000759731655     0.001813117129
       7       -0.000005450976     0.000004056567     0.000010303905
       8        0.000275693000     0.001437964122    -0.001283997960
       9        0.000005197469     0.000001590721    -0.000003154533
      10        0.000008480994     0.000002656480     0.000003427442
      11        0.000003401607    -0.000009989604     0.000006448463
      12       -0.000006759131     0.000003891738    -0.000004906772
      13        0.000001792502     0.000001630233     0.000003824286
      14       -0.000008127929     0.000003598513    -0.000000354398
      15       -0.000006784254     0.000002406291     0.000001051426
      16        0.000004113833     0.000001465156    -0.000003316734
      17        0.000000519980    -0.000000585662     0.000005153010
      18       -0.000003168363    -0.000004957892    -0.000001165199
      19        0.000006576628    -0.000000344703    -0.000003891794
      20        0.000008512728     0.000008208990     0.000006960557
      21       -0.000001826360     0.000001202786     0.000011949832
      22       -0.000008156702     0.000011337748     0.000007657191

  **** Optimization is complete! (in 15 steps) ****
    Final optimized geometry and variables:
    Molecular point group: c1

    Geometry (in Angstrom), charge = 0, multiplicity = 1:

    O           -1.101392921065    -1.363008641010    -1.973013998019
    C           -1.269298175948    -0.383333299567    -1.322283565916
    C           -1.528075935409    -0.459770792080     0.168931918071
    C           -1.255708185438     0.989617828684    -1.955849019444
    C           -0.402761306612     0.113799340706     1.044538041358
    H           -1.709883254400    -1.495355209764     0.422611248873
    H           -2.442684070637     0.087845798745     0.380061881254
    C            0.980786478306    -0.451743065520     0.723672107986
    H           -0.390997744311     1.194134320223     0.954282259667
    H           -0.649900519480    -0.099470676491     2.079335623680
    C            2.078722858692    -0.020765190446     1.697528056181
    H            1.270655459428    -0.168965739477    -0.284714745164
    H            0.922108857827    -1.535871125389     0.722245486250
    C            2.404116779333     1.470853294795     1.674240284224
    H            2.980170433778    -0.576967931951     1.461463551943
    H            1.798421079692    -0.313123578388     2.705978937576
    H            2.681527074223     1.793402552375     0.675667965769
    H            3.235311306761     1.692478546296     2.333487417694
    H            1.565101173755     2.075834050013     1.996967860405
    H           -2.227423593289     1.456937042847    -1.836096620984
    H           -1.023194107681     0.903177068437    -3.005994707216
    H           -0.528800909027     1.631254560999    -1.472255856895

  Mulliken Charges: (a.u.)
   Center  Symbol    Alpha    Beta     Spin     Total
       1     O     4.17701  4.17701  0.00000 -0.35403
       2     C     2.85262  2.85262  0.00000  0.29476
       3     C     3.10613  3.10613  0.00000 -0.21227
       4     C     3.15672  3.15672  0.00000 -0.31343
       5     C     3.12264  3.12264  0.00000 -0.24527
       6     H     0.43779  0.43779  0.00000  0.12442
       7     H     0.44182  0.44182  0.00000  0.11635
       8     C     3.09599  3.09599  0.00000 -0.19198
       9     H     0.44780  0.44780  0.00000  0.10439
      10     H     0.44028  0.44028  0.00000  0.11944
      11     C     3.09102  3.09102  0.00000 -0.18205
      12     H     0.44864  0.44864  0.00000  0.10272
      13     H     0.44053  0.44053  0.00000  0.11894
      14     C     3.15461  3.15461  0.00000 -0.30921
      15     H     0.44598  0.44598  0.00000  0.10804
      16     H     0.45399  0.45399  0.00000  0.09202
      17     H     0.45404  0.45404  0.00000  0.09192
      18     H     0.44459  0.44459  0.00000  0.11082
      19     H     0.45452  0.45452  0.00000  0.09095
      20     H     0.44883  0.44883  0.00000  0.10234
      21     H     0.43434  0.43434  0.00000  0.13132
      22     H     0.45009  0.45009  0.00000  0.09982

   Total alpha = 32.00000, Total beta = 32.00000, Total charge = -0.00000

*** Psi4 exiting successfully. Buy a developer a beer!
