  ==> Input File <==

--------------------------------------------------------------------------
set {
	reference rhf
	basis cc-pvtz
}

set_num_threads( 4 )
memory 2 gb

molecule MOL {
0 1

O	 -1.510770	 1.240811	 -0.054933
C	 -1.081510	 0.147522	 0.122720
C	 0.327029	 -0.064006	 0.641890
C	 -1.903028	 -1.084121	 -0.174656
C	 1.349460	 -0.017068	 -0.500215
H	 0.399029	 -1.014606	 1.159950
H	 0.538021	 0.726928	 1.350471
C	 0.692738	 0.181074	 -1.861539
H	 2.060151	 0.785098	 -0.323339
H	 1.915883	 -0.940904	 -0.495821
H	 1.435043	 0.199189	 -2.650643
H	 0.143612	 1.115764	 -1.901108
H	 -0.003168	 -0.621697	 -2.078665
H	 -1.341891	 -1.779207	 -0.789259
H	 -2.820449	 -0.808163	 -0.671328
H	 -2.133314	 -1.593056	 0.755831

	symmetry c1
}
set optking {
	frozen_dihedral = ("
		9 5 3 2
	")
}

ee = optimize('scf')
oeprop('DIPOLE', 'QUADRUPOLE', 'MULLIKEN_CHARGES')
f=open( 'psi4out.xyz', 'w' )
f.write( "16  " )
f.write( str(ee) + "\n" )
f.write( MOL.save_string_xyz() )
f.close()
--------------------------------------------------------------------------

    Molecular point group: c1
  Charge       = 0
  Multiplicity = 1
  Basis Set: CC-PVTZ
  Basis Set:
  @DF-RHF Final Energy:  -270.11624053390506
    Total Energy =                       -270.1162405339049428
    Molecular point group: c1
  Basis Set: CC-PVTZ
  Basis Set:
  Basis Set: CC-PVTZ
  Basis Set:
  @DF-RHF Final Energy:  -270.11927470099545
    Total Energy =                       -270.1192747009955610
  Basis Set: CC-PVTZ
  Basis Set:
  Basis Set: CC-PVTZ
  Basis Set:
  @DF-RHF Final Energy:  -270.11796428271725
    Total Energy =                       -270.1179642827169687
  Basis Set: CC-PVTZ
  Basis Set:
  Basis Set: CC-PVTZ
  Basis Set:
  @DF-RHF Final Energy:  -270.12023545770330
    Total Energy =                       -270.1202354577030178
  Basis Set: CC-PVTZ
  Basis Set:
  Basis Set: CC-PVTZ
  Basis Set:
  @DF-RHF Final Energy:  -270.12030360727272
    Total Energy =                       -270.1203036072727173
  Basis Set: CC-PVTZ
  Basis Set:
  Basis Set: CC-PVTZ
  Basis Set:
  @DF-RHF Final Energy:  -270.12030839359562
    Total Energy =                       -270.1203083935957352
  Basis Set: CC-PVTZ
  Basis Set:
  Charge       = 0
  Multiplicity = 1
  Basis Set: CC-PVTZ
  Basis Set:

    Orbital Energies (a.u.)
    -----------------------

    Doubly Occupied:

       1A    -20.536786     2A    -11.320155     3A    -11.231677
       4A    -11.228523     5A    -11.226957     6A    -11.213361
       7A     -1.397445     8A     -1.076902     9A     -1.011714
      10A     -0.951796    11A     -0.834448    12A     -0.725750
      13A     -0.656855    14A     -0.644151    15A     -0.622848
      16A     -0.611946    17A     -0.577033    18A     -0.558361
      19A     -0.543447    20A     -0.508618    21A     -0.504430
      22A     -0.475444    23A     -0.473498    24A     -0.399852

  @DF-RHF Final Energy:  -270.12030890256722

   => Energetics <=

    Nuclear Repulsion Energy =            243.2613344687065648
    One-Electron Energy =                -848.0992983300361630
    Two-Electron Energy =                 334.7176549587628642
    DFT Exchange-Correlation Energy =       0.0000000000000000
    Empirical Dispersion Energy =           0.0000000000000000
    PCM Polarization Energy =               0.0000000000000000
    EFP Energy =                            0.0000000000000000
    Total Energy =                       -270.1203089025667623
    Molecular point group: c1
  Basis Set: CC-PVTZ
  Basis Set:

  -Total Gradient:
     Atom            X                  Y                   Z
    ------   -----------------  -----------------  -----------------
       1       -0.000014139085    -0.000023715143    -0.000035483539
       2        0.000009913984     0.000131786316     0.000098094438
       3       -0.000033755997    -0.000110634831    -0.000103737310
       4        0.000003282922    -0.000021723880    -0.000068312490
       5        0.000132042065    -0.000076249193     0.000108734790
       6        0.000024139470     0.000004949739    -0.000000583468
       7        0.000016099175    -0.000001193821     0.000013704841
       8        0.000000990516    -0.000002361722    -0.000012681348
       9       -0.000077570884     0.000070696700    -0.000049409110
      10        0.000011622475    -0.000002793329     0.000006755538
      11       -0.000028964090     0.000008272880     0.000024380100
      12       -0.000021356132    -0.000012695127     0.000001188735
      13        0.000017563731     0.000012447289    -0.000022022552
      14       -0.000020222734     0.000013495991     0.000028675221
      15       -0.000016552191    -0.000007114602     0.000004830550
      16       -0.000003093228     0.000016832735     0.000005865604

  **** Optimization is complete! (in 7 steps) ****
    Final optimized geometry and variables:
    Molecular point group: c1

    Geometry (in Angstrom), charge = 0, multiplicity = 1:

    O           -1.207102253081     1.153246921131     0.331650111956
    C           -0.759592136976     0.062064600754     0.473719427338
    C            0.677441089848    -0.147177333371     0.916465511020
    C           -1.602729590069    -1.170248132327     0.246259508141
    C            1.734802617318    -0.064047906772    -0.224879505670
    H            0.758649780952    -1.105346568996     1.414929372255
    H            0.881099895600     0.620013462486     1.650596552437
    C            1.205334982750     0.160931969680    -1.640524476922
    H            2.421882633691     0.738467299082     0.010283334089
    H            2.321808337093    -0.974489037724    -0.214227793361
    H            2.033815689069     0.204460414830    -2.337390107585
    H            0.653611557344     1.088139931941    -1.717233098757
    H            0.553410182435    -0.643105147794    -1.964397874148
    H           -1.077554265312    -1.890765954499    -0.369773365353
    H           -2.541227190225    -0.899625272467    -0.212906533560
    H           -1.794037502645    -1.646829840011     1.202773536442

  Mulliken Charges: (a.u.)
   Center  Symbol    Alpha    Beta     Spin     Total
       1     O     4.18095  4.18095  0.00000 -0.36189
       2     C     2.85140  2.85140  0.00000  0.29720
       3     C     3.10839  3.10839  0.00000 -0.21677
       4     C     3.15420  3.15420  0.00000 -0.30839
       5     C     3.08730  3.08730  0.00000 -0.17460
       6     H     0.44744  0.44744  0.00000  0.10512
       7     H     0.43797  0.43797  0.00000  0.12405
       8     C     3.15864  3.15864  0.00000 -0.31727
       9     H     0.44653  0.44653  0.00000  0.10694
      10     H     0.44934  0.44934  0.00000  0.10132
      11     H     0.44599  0.44599  0.00000  0.10803
      12     H     0.44015  0.44015  0.00000  0.11970
      13     H     0.45608  0.45608  0.00000  0.08785
      14     H     0.45179  0.45179  0.00000  0.09643
      15     H     0.43655  0.43655  0.00000  0.12689
      16     H     0.44730  0.44730  0.00000  0.10541

   Total alpha = 24.00000, Total beta = 24.00000, Total charge = -0.00000
