  ==> Input File <==

--------------------------------------------------------------------------
set {
	reference rhf
	basis 6-31G*
}

set_num_threads( 1 )
memory 2 gb

molecule MOL {
0 1

H	 -1.404149	 2.255929	 3.830756
O	 -0.711547	 1.678846	 3.542340
C	 -0.864585	 1.404715	 2.173391
C	 0.260881	 0.479194	 1.746208
H	 -1.827776	 0.933449	 1.982397
H	 -0.831092	 2.325290	 1.592220
C	 0.198102	 0.111031	 0.262842
H	 0.215848	 -0.418371	 2.357008
H	 1.206594	 0.963741	 1.972740
C	 1.331804	 -0.827780	 -0.158768
H	 -0.763122	 -0.350156	 0.049472
H	 0.243876	 1.017744	 -0.339068
C	 2.723619	 -0.410569	 0.329459
H	 1.342964	 -0.912588	 -1.244120
H	 1.116806	 -1.824343	 0.220779
C	 3.243875	 0.895854	 -0.272975
H	 3.424222	 -1.207124	 0.091250
H	 2.714788	 -0.329854	 1.414619
H	 3.251977	 0.848779	 -1.358681
H	 2.637085	 1.747371	 0.016682
H	 4.259473	 1.094070	 0.055697

	symmetry c1
}
set optking {
	frozen_dihedral = ("
		2 3 4 8,
		8 4 7 10,
		16 13 10 14,
		1 2 3 5
	")
}

ee = energy('scf')
oeprop('DIPOLE', 'QUADRUPOLE', 'MULLIKEN_CHARGES')
f=open( 'psi4out.xyz', 'w' )
f.write( "21  " )
f.write( str(ee) + "\n" )
f.write( MOL.save_string_xyz() )
f.close()
--------------------------------------------------------------------------

    Molecular point group: c1

    Geometry (in Angstrom), charge = 0, multiplicity = 1:

       Center              X                  Y                   Z               Mass
    ------------   -----------------  -----------------  -----------------  -----------------
           H         -2.256733508123     1.738083361242     2.691272699067     1.007825032070
           O         -1.564131508123     1.161000361242     2.402856699067    15.994914619560
           C         -1.717169508123     0.886869361242     1.033907699067    12.000000000000
           C         -0.591703508123    -0.038651638758     0.606724699067    12.000000000000
           H         -2.680360508123     0.415603361242     0.842913699067     1.007825032070
           H         -1.683676508123     1.807444361242     0.452736699067     1.007825032070
           C         -0.654482508123    -0.406814638758    -0.876641300933    12.000000000000
           H         -0.636736508123    -0.936216638758     1.217524699067     1.007825032070
           H          0.354009491877     0.445895361242     0.833256699067     1.007825032070
           C          0.479219491877    -1.345625638758    -1.298251300933    12.000000000000
           H         -1.615706508123    -0.868001638758    -1.090011300933     1.007825032070
           H         -0.608708508123     0.499898361242    -1.478551300933     1.007825032070
           C          1.871034491877    -0.928414638758    -0.810024300933    12.000000000000
           H          0.490379491877    -1.430433638758    -2.383603300933     1.007825032070
           H          0.264221491877    -2.342188638758    -0.918704300933     1.007825032070
           C          2.391290491877     0.378008361242    -1.412458300933    12.000000000000
           H          2.571637491877    -1.724969638758    -1.048233300933     1.007825032070
           H          1.862203491877    -0.847699638758     0.275135699067     1.007825032070
           H          2.399392491877     0.330933361242    -2.498164300933     1.007825032070
           H          1.784500491877     1.229525361242    -1.122801300933     1.007825032070
           H          3.406888491877     0.576224361242    -1.083786300933     1.007825032070

  Charge       = 0
  Multiplicity = 1
  Basis Set: 6-31G*
  Basis Set:

    Orbital Energies (a.u.)
    -----------------------

    Doubly Occupied:

       1A    -20.551817     2A    -11.266894     3A    -11.215546
       4A    -11.213350     5A    -11.212507     6A    -11.209831
       7A    -11.207312     8A     -1.358619     9A     -1.088740
      10A     -1.027691    11A     -0.956155    12A     -0.874215
      13A     -0.821318    14A     -0.762859    15A     -0.689307
      16A     -0.661581    17A     -0.628908    18A     -0.616439
      19A     -0.571422    20A     -0.561513    21A     -0.550169
      22A     -0.527017    23A     -0.503097    24A     -0.491799
      25A     -0.475990    26A     -0.455916    27A     -0.447999
      28A     -0.447649    29A     -0.433819

  @DF-RHF Final Energy:  -310.20904922629012

   => Energetics <=

    Nuclear Repulsion Energy =            321.3749695120807814
    One-Electron Energy =               -1057.5092009727893583
    Two-Electron Energy =                 425.9251822344178890
    DFT Exchange-Correlation Energy =       0.0000000000000000
    Empirical Dispersion Energy =           0.0000000000000000
    PCM Polarization Energy =               0.0000000000000000
    EFP Energy =                            0.0000000000000000
    Total Energy =                       -310.2090492262907446

  Mulliken Charges: (a.u.)
   Center  Symbol    Alpha    Beta     Spin     Total
       1     H     0.28118  0.28118  0.00000  0.43764
       2     O     4.37186  4.37186  0.00000 -0.74372
       3     C     2.98862  2.98862  0.00000  0.02275
       4     C     3.16495  3.16495  0.00000 -0.32989
       5     H     0.43310  0.43310  0.00000  0.13380
       6     H     0.43310  0.43310  0.00000  0.13381
       7     C     3.16236  3.16236  0.00000 -0.32472
       8     H     0.41503  0.41503  0.00000  0.16994
       9     H     0.41141  0.41141  0.00000  0.17718
      10     C     3.15173  3.15173  0.00000 -0.30347
      11     H     0.42067  0.42067  0.00000  0.15866
      12     H     0.42269  0.42269  0.00000  0.15461
      13     C     3.15980  3.15980  0.00000 -0.31960
      14     H     0.42217  0.42217  0.00000  0.15566
      15     H     0.42141  0.42141  0.00000  0.15718
      16     C     3.24083  3.24083  0.00000 -0.48166
      17     H     0.42021  0.42021  0.00000  0.15957
      18     H     0.41702  0.41702  0.00000  0.16595
      19     H     0.42234  0.42234  0.00000  0.15532
      20     H     0.42081  0.42081  0.00000  0.15838
      21     H     0.41869  0.41869  0.00000  0.16262

   Total alpha = 29.00000, Total beta = 29.00000, Total charge = -0.00000
