                              Psi4 1.0.54 Driver

  ==> Input File <==

--------------------------------------------------------------------------
set {
	reference rhf
	basis cc-pvtz
}

set_num_threads( 4 )
memory 2 gb

molecule MOL {
0 1

H	 -2.644180	 -0.653737	 1.272255
C	 -2.092774	 -0.380414	 0.391915
O	 -0.808934	 -0.154049	 0.752536
F	 -2.163230	 -1.351640	 -0.507133
F	 -2.627232	 0.691260	 -0.169301
C	 0.085006	 0.250800	 -0.215074
C	 1.370439	 -0.548013	 -0.012993
Cl	 0.421658	 1.987697	 -0.091007
H	 -0.272219	 0.063284	 -1.212508
F	 1.126421	 -1.647889	 0.653154
F	 2.214064	 0.170913	 0.688974
F	 1.941488	 -0.861048	 -1.143552

	symmetry c1
}
set optking {
	frozen_dihedral = ("
		10 7 6 9
	")
}

ee,wfn = optimize('scf', return_wfn=True)
oeprop( wfn, 'DIPOLE', 'QUADRUPOLE', 'MULLIKEN_CHARGES')
f=open( 'psi4out.xyz', 'w' )
f.write( "12  " )
f.write( str(ee) + "\n" )
f.write( MOL.save_string_xyz() )
f.close()
--------------------------------------------------------------------------

    Molecular point group: c1
  Charge       = 0
  Multiplicity = 1
  Basis Set: CC-PVTZ
  Basis Set:
  @DF-RHF Final Energy: -1146.61073416307227
    Total Energy =                      -1146.6107341630713563
    Molecular point group: c1
  Basis Set: CC-PVTZ
  Basis Set:
  Basis Set: CC-PVTZ
  Basis Set:
  @DF-RHF Final Energy: -1146.61180634759262
    Total Energy =                      -1146.6118063475923918
  Basis Set: CC-PVTZ
  Basis Set:
  Basis Set: CC-PVTZ
  Basis Set:
  @DF-RHF Final Energy: -1146.61354633996007
    Total Energy =                      -1146.6135463399609762
  Basis Set: CC-PVTZ
  Basis Set:
  Basis Set: CC-PVTZ
  Basis Set:
  @DF-RHF Final Energy: -1146.61367786102301
    Total Energy =                      -1146.6136778610234614
  Basis Set: CC-PVTZ
  Basis Set:
  @DF-RHF Final Energy: -1146.61369707994754
    Total Energy =                      -1146.6136970799468600
  Basis Set: CC-PVTZ
  Basis Set:
  @DF-RHF Final Energy: -1146.61370715278872
    Total Energy =                      -1146.6137071527884927
  Basis Set: CC-PVTZ
  Basis Set:
  Basis Set: CC-PVTZ
  Basis Set:
  @DF-RHF Final Energy: -1146.61371769612151
    Total Energy =                      -1146.6137176961215118
  Basis Set: CC-PVTZ
  Basis Set:
  Basis Set: CC-PVTZ
  Basis Set:
  @DF-RHF Final Energy: -1146.61372252499791
    Total Energy =                      -1146.6137225249985931
  Basis Set: CC-PVTZ
  Basis Set:
  Charge       = 0
  Multiplicity = 1
  Basis Set: CC-PVTZ
  Basis Set:

    Orbital Energies (a.u.)
    -----------------------

    Doubly Occupied:

       1A   -104.854743     2A    -26.356202     3A    -26.353292
       4A    -26.350946     5A    -26.344140     6A    -26.343902
       7A    -20.640899     8A    -11.522025     9A    -11.484802
      10A    -11.402153    11A    -10.580313    12A     -8.047084
      13A     -8.045126    14A     -8.045026    15A     -1.768263
      16A     -1.725462    17A     -1.663568    18A     -1.659634
      19A     -1.645531    20A     -1.488302    21A     -1.175220
      22A     -1.048645    23A     -0.992345    24A     -0.924461
      25A     -0.863376    26A     -0.859872    27A     -0.850769
      28A     -0.831909    29A     -0.820493    30A     -0.795541
      31A     -0.735497    32A     -0.732343    33A     -0.711553
      34A     -0.708830    35A     -0.683919    36A     -0.681904
      37A     -0.665591    38A     -0.662892    39A     -0.650284
      40A     -0.635746    41A     -0.599153    42A     -0.579172
      43A     -0.523632    44A     -0.477234    45A     -0.467777

  @DF-RHF Final Energy: -1146.61372291903945

   => Energetics <=

    Nuclear Repulsion Energy =            736.3265293074908868
    One-Electron Energy =               -3055.8813673899312562
    Two-Electron Energy =                1172.9411151634021735
    DFT Exchange-Correlation Energy =       0.0000000000000000
    Empirical Dispersion Energy =           0.0000000000000000
    PCM Polarization Energy =               0.0000000000000000
    EFP Energy =                            0.0000000000000000
    Total Energy =                      -1146.6137229190380822
    Molecular point group: c1
  Basis Set: CC-PVTZ
  Basis Set:

  -Total Gradient:
     Atom            X                  Y                   Z
    ------   -----------------  -----------------  -----------------
       1        0.000006354679     0.000001465410     0.000013187851
       2       -0.000188520362    -0.000082198159     0.000009448416
       3        0.000153793973     0.000103656318    -0.000096207854
       4        0.000016387720    -0.000051081352    -0.000060934285
       5       -0.000055253783     0.000056417955    -0.000052415647
       6       -0.004602753367    -0.005872951237     0.003516909286
       7       -0.000051195604    -0.001658750766    -0.007101898923
       8        0.000038389656     0.000242929963     0.000012202799
       9        0.003826444195     0.005276151887    -0.001479757849
      10        0.000690343943     0.002113799482     0.005307586006
      11        0.000063424290    -0.000098991952     0.000016878419
      12        0.000102584661    -0.000030447375    -0.000084998212

  **** Optimization is complete! (in 9 steps) ****
    Final optimized geometry and variables:
    Molecular point group: c1

    Geometry (in Angstrom), charge = 0, multiplicity = 1:

    H           -2.774980459725    -0.601849748530     1.042888032295
    C           -2.128645939095    -0.353188211062     0.221901217129
    O           -0.903511324322    -0.070558074152     0.719805265501
    F           -2.065733287417    -1.366411835729    -0.630634798674
    F           -2.618139122650     0.675126414624    -0.451547721821
    C            0.085427948787     0.300161305049    -0.159132950939
    C            1.343626820446    -0.576600753162     0.056194460610
    CL           0.481415426083     2.022001591745     0.045652961050
    H           -0.195230617460     0.212385716425    -1.192667699131
    F            1.014946183811    -1.721565477812     0.595954279621
    F            2.234744149414    -0.024928268799     0.834868800840
    F            1.908200255268    -0.806201980349    -1.105875591158

  Mulliken Charges: (a.u.)
   Center  Symbol    Alpha    Beta     Spin     Total
       1     H     0.45140  0.45140  0.00000  0.09719
       2     C     2.73796  2.73796  0.00000  0.52408
       3     O     4.15118  4.15118  0.00000 -0.30236
       4     F     4.61816  4.61816  0.00000 -0.23631
       5     F     4.61562  4.61562  0.00000 -0.23124
       6     C     2.95435  2.95435  0.00000  0.09130
       7     C     2.66389  2.66389  0.00000  0.67222
       8    CL     8.57230  8.57230  0.00000 -0.14461
       9     H     0.43236  0.43236  0.00000  0.13528
      10     F     4.59999  4.59999  0.00000 -0.19997
      11     F     4.59745  4.59745  0.00000 -0.19489
      12     F     4.60534  4.60534  0.00000 -0.21067

   Total alpha = 45.00000, Total beta = 45.00000, Total charge = -0.00000

*** Psi4 exiting successfully. Buy a developer a beer!
