  ==> Input File <==

--------------------------------------------------------------------------
set {
	reference rhf
	basis 6-31G*
}

set_num_threads( 1 )
memory 2 gb

molecule MOL {
0 1

H	 2.591676	 2.013956	 0.335017
O	 3.341076	 1.666752	 -0.126416
C	 3.569581	 0.339145	 0.272707
C	 3.029617	 -0.687461	 -0.716862
H	 4.644072	 0.237395	 0.355113
H	 3.151324	 0.161537	 1.262806
C	 1.507200	 -0.660502	 -0.873028
H	 3.498615	 -0.515750	 -1.682223
H	 3.341559	 -1.676000	 -0.383924
C	 0.991909	 -1.737931	 -1.831382
H	 1.202216	 0.319046	 -1.230570
H	 1.040651	 -0.797600	 0.102614
C	 -0.534195	 -1.810353	 -1.958271
H	 1.427739	 -1.579241	 -2.816124
H	 1.355393	 -2.705576	 -1.491908
C	 -1.185415	 -0.587552	 -2.610306
H	 -0.786913	 -2.691509	 -2.544373
H	 -0.969672	 -1.968507	 -0.972784
C	 -2.693583	 -0.751109	 -2.810591
H	 -0.714146	 -0.401052	 -3.574274
H	 -1.005547	 0.298779	 -2.006677
C	 -3.347167	 0.470646	 -3.455423
H	 -2.881858	 -1.627865	 -3.426495
H	 -3.164962	 -0.947190	 -1.849738
H	 -2.919565	 0.673717	 -4.433249
H	 -4.414835	 0.323240	 -3.585774
H	 -3.208358	 1.358285	 -2.844529

	symmetry c1
}
set optking {
	frozen_dihedral = ("
		14 10 7 4,
		14 10 13 16,
		10 7 4 8,
		8 4 3 2,
		10 13 16 20,
		20 16 19 22
	")
}

ee = energy('scf')
oeprop('DIPOLE', 'QUADRUPOLE', 'MULLIKEN_CHARGES')
f=open( 'psi4out.xyz', 'w' )
f.write( "27  " )
f.write( str(ee) + "\n" )
f.write( MOL.save_string_xyz() )
f.close()
--------------------------------------------------------------------------

    Molecular point group: c1

    Geometry (in Angstrom), charge = 0, multiplicity = 1:

       Center              X                  Y                   Z               Mass
    ------------   -----------------  -----------------  -----------------  -----------------
           H          2.040712207394     2.383114403320     1.878388930115     1.007825032070
           O          2.790112207394     2.035910403320     1.416955930115    15.994914619560
           C          3.018617207394     0.708303403320     1.816078930115    12.000000000000
           C          2.478653207394    -0.318302596680     0.826509930115    12.000000000000
           H          4.093108207394     0.606553403320     1.898484930115     1.007825032070
           H          2.600360207394     0.530695403320     2.806177930115     1.007825032070
           C          0.956236207394    -0.291343596680     0.670343930115    12.000000000000
           H          2.947651207394    -0.146591596680    -0.138851069885     1.007825032070
           H          2.790595207394    -1.306841596680     1.159447930115     1.007825032070
           C          0.440945207394    -1.368772596680    -0.288010069885    12.000000000000
           H          0.651252207394     0.688204403320     0.312801930115     1.007825032070
           H          0.489687207394    -0.428441596680     1.645985930115     1.007825032070
           C         -1.085158792606    -1.441194596680    -0.414899069885    12.000000000000
           H          0.876775207394    -1.210082596680    -1.272752069885     1.007825032070
           H          0.804429207394    -2.336417596680     0.051463930115     1.007825032070
           C         -1.736378792606    -0.218393596680    -1.066934069885    12.000000000000
           H         -1.337876792606    -2.322350596680    -1.001001069885     1.007825032070
           H         -1.520635792606    -1.599348596680     0.570587930115     1.007825032070
           C         -3.244546792606    -0.381950596680    -1.267219069885    12.000000000000
           H         -1.265109792606    -0.031893596680    -2.030902069885     1.007825032070
           H         -1.556510792606     0.667937403320    -0.463305069885     1.007825032070
           C         -3.898130792606     0.839804403320    -1.912051069885    12.000000000000
           H         -3.432821792606    -1.258706596680    -1.883123069885     1.007825032070
           H         -3.715925792606    -0.578031596680    -0.306366069885     1.007825032070
           H         -3.470528792606     1.042875403320    -2.889877069885     1.007825032070
           H         -4.965798792606     0.692398403320    -2.042402069885     1.007825032070
           H         -3.759321792606     1.727443403320    -1.301157069885     1.007825032070

  Charge       = 0
  Multiplicity = 1
  Basis Set: 6-31G*
  Basis Set:

    Orbital Energies (a.u.)
    -----------------------

    Doubly Occupied:

       1A    -20.552474     2A    -11.267424     3A    -11.214513
       4A    -11.214351     5A    -11.213853     6A    -11.213186
       7A    -11.212853     8A    -11.211932     9A    -11.207942
      10A     -1.359341    11A     -1.092270    12A     -1.059143
      13A     -1.009878    14A     -0.946389    15A     -0.884843
      16A     -0.816658    17A     -0.798649    18A     -0.775063
      19A     -0.701343    20A     -0.648321    21A     -0.632246
      22A     -0.618115    23A     -0.592971    24A     -0.581943
      25A     -0.579064    26A     -0.547715    27A     -0.540854
      28A     -0.528100    29A     -0.505878    30A     -0.487593
      31A     -0.482559    32A     -0.472463    33A     -0.467175
      34A     -0.458995    35A     -0.452674    36A     -0.441269
      37A     -0.418811

  @DF-RHF Final Energy:  -388.28087262686199

   => Energetics <=

    Nuclear Repulsion Energy =            459.2572536313042519
    One-Electron Energy =               -1436.6585457647629482
    Two-Electron Energy =                 589.1204195065984095
    DFT Exchange-Correlation Energy =       0.0000000000000000
    Empirical Dispersion Energy =           0.0000000000000000
    PCM Polarization Energy =               0.0000000000000000
    EFP Energy =                            0.0000000000000000
    Total Energy =                       -388.2808726268602868

  Mulliken Charges: (a.u.)
   Center  Symbol    Alpha    Beta     Spin     Total
       1     H     0.27992  0.27992  0.00000  0.44016
       2     O     4.37046  4.37046  0.00000 -0.74092
       3     C     2.99996  2.99996  0.00000  0.00008
       4     C     3.15741  3.15741  0.00000 -0.31482
       5     H     0.41694  0.41694  0.00000  0.16612
       6     H     0.43243  0.43243  0.00000  0.13513
       7     C     3.16087  3.16087  0.00000 -0.32174
       8     H     0.41527  0.41527  0.00000  0.16946
       9     H     0.42549  0.42549  0.00000  0.14902
      10     C     3.15242  3.15242  0.00000 -0.30484
      11     H     0.41582  0.41582  0.00000  0.16836
      12     H     0.42866  0.42866  0.00000  0.14267
      13     C     3.15320  3.15320  0.00000 -0.30640
      14     H     0.42214  0.42214  0.00000  0.15572
      15     H     0.42279  0.42279  0.00000  0.15442
      16     C     3.15235  3.15235  0.00000 -0.30469
      17     H     0.42186  0.42186  0.00000  0.15628
      18     H     0.42484  0.42484  0.00000  0.15032
      19     C     3.15115  3.15115  0.00000 -0.30230
      20     H     0.42367  0.42367  0.00000  0.15266
      21     H     0.42310  0.42310  0.00000  0.15380
      22     C     3.23906  3.23906  0.00000 -0.47813
      23     H     0.42314  0.42314  0.00000  0.15372
      24     H     0.42366  0.42366  0.00000  0.15268
      25     H     0.42148  0.42148  0.00000  0.15704
      26     H     0.41960  0.41960  0.00000  0.16079
      27     H     0.42230  0.42230  0.00000  0.15539

   Total alpha = 37.00000, Total beta = 37.00000, Total charge =  0.00000
