                              Psi4 1.0.54 Driver

  ==> Input File <==

--------------------------------------------------------------------------
set {
	reference rhf
	basis cc-pvtz
}

set_num_threads( 4 )
memory 2 gb

molecule MOL {
0 1

O	 1.062147	 -1.998870	 -4.824404
C	 0.749519	 -0.993502	 -4.274014
C	 0.513185	 -0.962631	 -2.776936
C	 0.590001	 0.305338	 -5.027894
C	 1.833230	 -0.791973	 -2.014571
H	 0.051757	 -1.901638	 -2.498616
H	 -0.167824	 -0.158223	 -2.519996
C	 1.630207	 -0.772146	 -0.501001
H	 2.495902	 -1.599941	 -2.297910
H	 2.316954	 0.132184	 -2.321562
C	 2.907848	 -0.545876	 0.309149
H	 1.169537	 -1.706758	 -0.190740
H	 0.920910	 0.013106	 -0.254262
C	 3.373802	 0.906639	 0.372125
H	 3.699140	 -1.146831	 -0.127906
H	 2.764321	 -0.923458	 1.318191
H	 3.519798	 1.311927	 -0.623875
H	 4.316899	 0.983758	 0.900700
H	 2.661122	 1.540651	 0.885346
H	 -0.456349	 0.593673	 -5.024362
H	 0.927933	 0.188434	 -6.046081
H	 1.142947	 1.100960	 -4.541247

	symmetry c1
}
set optking {
	frozen_dihedral = ("
		12 8 11 15
	")
}

ee,wfn = optimize('scf', return_wfn=True)
oeprop( wfn, 'DIPOLE', 'QUADRUPOLE', 'MULLIKEN_CHARGES')
f=open( 'psi4out.xyz', 'w' )
f.write( "22  " )
f.write( str(ee) + "\n" )
f.write( MOL.save_string_xyz() )
f.close()
--------------------------------------------------------------------------

    Molecular point group: c1
  Charge       = 0
  Multiplicity = 1
  Basis Set: CC-PVTZ
  Basis Set:
  @DF-RHF Final Energy:  -348.22260862683669
    Total Energy =                       -348.2226086268371432
    Molecular point group: c1
  Basis Set: CC-PVTZ
  Basis Set:
  Basis Set: CC-PVTZ
  Basis Set:
  @DF-RHF Final Energy:  -348.22282933634324
    Total Energy =                       -348.2228293363433522
  Basis Set: CC-PVTZ
  Basis Set:
  Basis Set: CC-PVTZ
  Basis Set:
  @DF-RHF Final Energy:  -348.22277909044192
    Total Energy =                       -348.2227790904422591
  Basis Set: CC-PVTZ
  Basis Set:
  Basis Set: CC-PVTZ
  Basis Set:
  @DF-RHF Final Energy:  -348.22283248820639
    Total Energy =                       -348.2228324882059951
  Basis Set: CC-PVTZ
  Basis Set:
  Basis Set: CC-PVTZ
  Basis Set:
  @DF-RHF Final Energy:  -348.22286290646792
    Total Energy =                       -348.2228629064680376
  Basis Set: CC-PVTZ
  Basis Set:
  Charge       = 0
  Multiplicity = 1
  Basis Set: CC-PVTZ
  Basis Set:

    Orbital Energies (a.u.)
    -----------------------

    Doubly Occupied:

       1A    -20.536774     2A    -11.319284     3A    -11.228365
       4A    -11.227578     5A    -11.226938     6A    -11.220573
       7A    -11.219100     8A    -11.211691     9A     -1.396921
      10A     -1.097536    11A     -1.046259    12A     -1.000824
      13A     -0.939446    14A     -0.856382    15A     -0.791180
      16A     -0.734288    17A     -0.662198    18A     -0.649515
      19A     -0.628092    20A     -0.620634    21A     -0.600558
      22A     -0.587115    23A     -0.555449    24A     -0.548473
      25A     -0.538052    26A     -0.518324    27A     -0.500355
      28A     -0.491171    29A     -0.472446    30A     -0.465352
      31A     -0.462487    32A     -0.398534

  @DF-RHF Final Energy:  -348.22286383542337

   => Energetics <=

    Nuclear Repulsion Energy =            373.0806028960162166
    One-Electron Energy =               -1211.1031445080957383
    Two-Electron Energy =                 489.7996777766559262
    DFT Exchange-Correlation Energy =       0.0000000000000000
    Empirical Dispersion Energy =           0.0000000000000000
    PCM Polarization Energy =               0.0000000000000000
    EFP Energy =                            0.0000000000000000
    Total Energy =                       -348.2228638354235954
    Molecular point group: c1
  Basis Set: CC-PVTZ
  Basis Set:

  -Total Gradient:
     Atom            X                  Y                   Z
    ------   -----------------  -----------------  -----------------
       1       -0.000052842088     0.000019377067     0.000068694296
       2        0.000188173193     0.000006622103    -0.000073665759
       3       -0.000013665328    -0.000037562861     0.000075539490
       4       -0.000114351204    -0.000015966829     0.000004388801
       5        0.000062288100    -0.000133131442     0.000047412439
       6       -0.000027074879    -0.000038406189    -0.000020506658
       7       -0.000002800954    -0.000004609317     0.000018679079
       8        0.001341681531    -0.000589416392    -0.001966628372
       9       -0.000075158726     0.000021467369    -0.000059926595
      10        0.000032961916     0.000022921250     0.000035867744
      11       -0.000700732531    -0.001660182874     0.001455441348
      12       -0.001015554474     0.000956141451     0.001466506668
      13       -0.000133699515     0.000064541240    -0.000108960136
      14       -0.000163129815     0.000007028401     0.000210664867
      15        0.000676572254     0.001524400660    -0.001167635853
      16       -0.000046676685    -0.000037907708    -0.000001875322
      17       -0.000040040469    -0.000087483094    -0.000089883087
      18       -0.000013488369    -0.000077182473     0.000065617496
      19        0.000056298412     0.000050149994     0.000004176820
      20        0.000026360041     0.000020436640     0.000004165000
      21        0.000003927193    -0.000022088254     0.000014840668
      22        0.000010952394     0.000010851261     0.000017087065

  **** Optimization is complete! (in 6 steps) ****
    Final optimized geometry and variables:
    Molecular point group: c1

    Geometry (in Angstrom), charge = 0, multiplicity = 1:

    O           -0.525148677628    -1.427528619313    -2.464796982700
    C           -0.841196083090    -0.417336833409    -1.925549438699
    C           -1.081572119443    -0.371550988604    -0.429655324462
    C           -1.004283316159     0.872736228632    -2.693534355345
    C            0.233584282216    -0.173312805272     0.334035739233
    H           -1.531523641265    -1.312937481519    -0.141019418016
    H           -1.773519783949     0.427277398683    -0.184551163898
    C            0.030680689521    -0.147221520252     1.846731426777
    H            0.910020666339    -0.979199424411     0.071780375560
    H            0.706811929883     0.748801303012     0.010022901488
    C            1.319908911895     0.056952637077     2.648702227192
    H           -0.440457897252    -1.074885760435     2.157471774284
    H           -0.675432242913     0.640098734684     2.101662661080
    C            1.788067746903     1.509459065293     2.710092574707
    H            2.112085858500    -0.548160350815     2.216716122816
    H            1.168978486678    -0.304126135227     3.660283566508
    H            1.985419335986     1.910855886527     1.722419943460
    H            2.702552005868     1.596804767608     3.285400029972
    H            1.040846017497     2.140168652496     3.180141180660
    H           -2.052466493109     1.154132197244    -2.698574838732
    H           -0.660423206917     0.746964742701    -3.708651895271
    H           -0.459202823760     1.677303489933    -2.212785414632

  Mulliken Charges: (a.u.)
   Center  Symbol    Alpha    Beta     Spin     Total
       1     O     4.17772  4.17772  0.00000 -0.35544
       2     C     2.85813  2.85813  0.00000  0.28374
       3     C     3.09792  3.09792  0.00000 -0.19583
       4     C     3.15518  3.15518  0.00000 -0.31035
       5     C     3.10169  3.10169  0.00000 -0.20339
       6     H     0.43892  0.43892  0.00000  0.12217
       7     H     0.44894  0.44894  0.00000  0.10212
       8     C     3.09626  3.09626  0.00000 -0.19252
       9     H     0.44047  0.44047  0.00000  0.11905
      10     H     0.45115  0.45115  0.00000  0.09769
      11     C     3.09083  3.09083  0.00000 -0.18166
      12     H     0.44544  0.44544  0.00000  0.10911
      13     H     0.45529  0.45529  0.00000  0.08942
      14     C     3.14914  3.14914  0.00000 -0.29828
      15     H     0.45364  0.45364  0.00000  0.09272
      16     H     0.44664  0.44664  0.00000  0.10671
      17     H     0.45602  0.45602  0.00000  0.08796
      18     H     0.44619  0.44619  0.00000  0.10762
      19     H     0.45507  0.45507  0.00000  0.08987
      20     H     0.44827  0.44827  0.00000  0.10347
      21     H     0.43602  0.43602  0.00000  0.12796
      22     H     0.45108  0.45108  0.00000  0.09784

   Total alpha = 32.00000, Total beta = 32.00000, Total charge =  0.00000

*** Psi4 exiting successfully. Buy a developer a beer!
