  ==> Input File <==

--------------------------------------------------------------------------
set {
	reference rhf
	basis 6-31G*
}

set_num_threads( 4 )
memory 2 gb

molecule MOL {
0 1

H	 -3.420663	 1.227371	 -1.044276
O	 -3.452007	 0.283848	 -0.965577
C	 -3.181085	 -0.079926	 0.364119
C	 -1.765924	 0.277073	 0.805136
H	 -3.327791	 -1.152017	 0.410903
H	 -3.905698	 0.375695	 1.036898
C	 -0.677594	 -0.417312	 -0.014550
H	 -1.637766	 1.358238	 0.744969
H	 -1.659588	 0.017670	 1.857098
C	 0.738335	 -0.034840	 0.421385
H	 -0.814977	 -0.178223	 -1.064632
H	 -0.802730	 -1.495410	 0.071702
C	 1.705417	 0.102134	 -0.757629
H	 0.696965	 0.898197	 0.978296
H	 1.119948	 -0.785896	 1.111957
C	 3.157656	 0.397456	 -0.365273
H	 1.348772	 0.884062	 -1.426276
H	 1.684716	 -0.820786	 -1.333483
C	 3.373391	 1.760591	 0.294823
H	 3.773769	 0.342437	 -1.259515
H	 3.517255	 -0.386211	 0.298623
H	 3.011268	 2.563728	 -0.341554
H	 4.428731	 1.936888	 0.479254
H	 2.860259	 1.836588	 1.247757

	symmetry c1
}
set optking {
	frozen_dihedral = ("
		13 10 7 11
	")
}

ee = optimize('scf')
oeprop('DIPOLE', 'QUADRUPOLE', 'MULLIKEN_CHARGES')
f=open( 'psi4out.xyz', 'w' )
f.write( "24  " )
f.write( str(ee) + "\n" )
f.write( MOL.save_string_xyz() )
f.close()
--------------------------------------------------------------------------

    Molecular point group: c1
  Charge       = 0
  Multiplicity = 1
  Basis Set: 6-31G*
  Basis Set:
  @DF-RHF Final Energy:  -349.24364871827237
    Total Energy =                       -349.2436487182723113
    Molecular point group: c1
  Basis Set: 6-31G*
  Basis Set:
  Basis Set: 6-31G*
  Basis Set:
  @DF-RHF Final Energy:  -349.24388969245047
    Total Energy =                       -349.2438896924506935
  Basis Set: 6-31G*
  Basis Set:
  Basis Set: 6-31G*
  Basis Set:
  @DF-RHF Final Energy:  -349.24393173757352
    Total Energy =                       -349.2439317375733481
  Basis Set: 6-31G*
  Basis Set:
  Basis Set: 6-31G*
  Basis Set:
  @DF-RHF Final Energy:  -349.24391995824425
    Total Energy =                       -349.2439199582444189
  Basis Set: 6-31G*
  Basis Set:
  Basis Set: 6-31G*
  Basis Set:
  @DF-RHF Final Energy:  -349.24395885818501
    Total Energy =                       -349.2439588581850103
  Basis Set: 6-31G*
  Basis Set:
  Charge       = 0
  Multiplicity = 1
  Basis Set: 6-31G*
  Basis Set:

    Orbital Energies (a.u.)
    -----------------------

    Doubly Occupied:

       1A    -20.553573     2A    -11.267625     3A    -11.217959
       4A    -11.214007     5A    -11.212372     6A    -11.211810
       7A    -11.210943     8A    -11.207666     9A     -1.360160
      10A     -1.087383    11A     -1.048123    12A     -0.985099
      13A     -0.914802    14A     -0.851210    15A     -0.802220
      16A     -0.776415    17A     -0.679665    18A     -0.645299
      19A     -0.629692    20A     -0.616863    21A     -0.599644
      22A     -0.587611    23A     -0.551027    24A     -0.546618
      25A     -0.513663    26A     -0.508763    27A     -0.500827
      28A     -0.472076    29A     -0.466996    30A     -0.458992
      31A     -0.454072    32A     -0.450449    33A     -0.418451

  @DF-RHF Final Energy:  -349.24395968522259

   => Energetics <=

    Nuclear Repulsion Energy =            385.1928245498660885
    One-Electron Energy =               -1236.8294159422141547
    Two-Electron Energy =                 502.3926317071257586
    DFT Exchange-Correlation Energy =       0.0000000000000000
    Empirical Dispersion Energy =           0.0000000000000000
    PCM Polarization Energy =               0.0000000000000000
    EFP Energy =                            0.0000000000000000
    Total Energy =                       -349.2439596852222508
    Molecular point group: c1
  Basis Set: 6-31G*
  Basis Set:

  -Total Gradient:
     Atom            X                  Y                   Z
    ------   -----------------  -----------------  -----------------
       1        0.000002442711    -0.000010869535     0.000012103557
       2        0.000034726378    -0.000045559848    -0.000006807866
       3       -0.000080694610     0.000127784818     0.000037565910
       4        0.000017937086    -0.000148019320    -0.000041160958
       5        0.000013130670     0.000020409388    -0.000010135555
       6       -0.000052667998    -0.000005656532    -0.000003344071
       7       -0.001754727766     0.005681123548     0.001023172569
       8        0.000006725520    -0.000051719722    -0.000022132327
       9        0.000002849725    -0.000011989240     0.000006608669
      10        0.001167885424    -0.004763007210     0.000050580067
      11        0.001192747077    -0.003626858363    -0.000994052578
      12       -0.000061265064     0.000029928508     0.000095713032
      13       -0.000669057942     0.002847630619    -0.000168732718
      14        0.000039763664    -0.000041391667    -0.000020257450
      15        0.000084873419    -0.000022418470    -0.000000149349
      16        0.000040509170     0.000002508695    -0.000009125138
      17       -0.000021616354     0.000003392084     0.000012057292
      18       -0.000013798266     0.000012299160     0.000052829479
      19        0.000013227787     0.000000770458    -0.000008830855
      20        0.000031882989    -0.000008958154     0.000001012265
      21       -0.000007963801     0.000013023771     0.000011250373
      22       -0.000002905273     0.000006076081    -0.000000819276
      23        0.000000387668    -0.000002807947    -0.000006784072
      24        0.000015607794    -0.000005691120    -0.000010560998

  **** Optimization is complete! (in 6 steps) ****
    Final optimized geometry and variables:
    Molecular point group: c1

    Geometry (in Angstrom), charge = 0, multiplicity = 1:

    H           -3.413093639835     0.845984426336    -1.019384919990
    O           -3.421212168682    -0.095209508969    -0.912411464383
    C           -3.123127707323    -0.412820639573     0.423286166871
    C           -1.713818873425    -0.002429040504     0.834444827259
    H           -3.237151136058    -1.486915143368     0.501660990610
    H           -3.852448428357     0.039987079453     1.092911027123
    C           -0.615973055231    -0.669378534971     0.006699428902
    H           -1.621287901506     1.081221920016     0.757281860663
    H           -1.579959030969    -0.243051473575     1.887960139751
    C            0.810345692785    -0.290217242646     0.448149028342
    H           -0.755307037803    -0.443013577014    -1.045428103926
    H           -0.734973399568    -1.749187170333     0.076727962675
    C            1.787165613953    -0.171018902081    -0.725311169896
    H            0.779839298244     0.659025581793     0.977439356920
    H            1.182708337840    -1.019289448154     1.164359103059
    C            3.244884084667     0.084179241053    -0.326527535444
    H            1.449281793322     0.625551067402    -1.386156334761
    H            1.745219144757    -1.087376365080    -1.311150619763
    C            3.491478019220     1.431468744823     0.355132261320
    H            3.861416785981     0.028118774037    -1.220417798818
    H            3.584413400425    -0.717726258826     0.326012020316
    H            3.146988984022     2.252803988396    -0.267783953482
    H            4.550640268886     1.581199386582     0.541008500622
    H            2.980980666040     1.503492398964     1.309766966497

  Mulliken Charges: (a.u.)
   Center  Symbol    Alpha    Beta     Spin     Total
       1     H     0.28337  0.28337  0.00000  0.43325
       2     O     4.36822  4.36822  0.00000 -0.73644
       3     C     2.99665  2.99665  0.00000  0.00670
       4     C     3.17049  3.17049  0.00000 -0.34099
       5     H     0.41625  0.41625  0.00000  0.16749
       6     H     0.42811  0.42811  0.00000  0.14378
       7     C     3.15429  3.15429  0.00000 -0.30857
       8     H     0.42795  0.42795  0.00000  0.14409
       9     H     0.42183  0.42183  0.00000  0.15634
      10     C     3.15550  3.15550  0.00000 -0.31100
      11     H     0.41042  0.41042  0.00000  0.17916
      12     H     0.42203  0.42203  0.00000  0.15594
      13     C     3.15393  3.15393  0.00000 -0.30785
      14     H     0.42219  0.42219  0.00000  0.15562
      15     H     0.42212  0.42212  0.00000  0.15575
      16     C     3.15280  3.15280  0.00000 -0.30560
      17     H     0.42436  0.42436  0.00000  0.15127
      18     H     0.42124  0.42124  0.00000  0.15752
      19     C     3.24119  3.24119  0.00000 -0.48237
      20     H     0.42107  0.42107  0.00000  0.15787
      21     H     0.42347  0.42347  0.00000  0.15305
      22     H     0.42280  0.42280  0.00000  0.15439
      23     H     0.41940  0.41940  0.00000  0.16119
      24     H     0.42030  0.42030  0.00000  0.15940

   Total alpha = 33.00000, Total beta = 33.00000, Total charge =  0.00000
