                              Psi4 1.0.54 Driver

  ==> Input File <==

--------------------------------------------------------------------------
set {
	reference rhf
	basis cc-pvtz
}

set_num_threads( 4 )
memory 2 gb

molecule MOL {
0 1

O	 -2.604830	 0.667578	 0.213852
C	 -2.175173	 -0.439632	 0.183657
C	 -0.910790	 -0.766950	 -0.585920
C	 -2.850143	 -1.571341	 0.921503
C	 0.337712	 -0.466550	 0.253036
H	 -0.903625	 -0.155802	 -1.479541
H	 -0.911845	 -1.809621	 -0.885418
C	 1.630207	 -0.772146	 -0.501001
H	 0.306989	 0.575130	 0.546614
H	 0.312844	 -1.051159	 1.169504
C	 2.907848	 -0.545876	 0.309149
H	 1.666966	 -0.168893	 -1.404722
H	 1.607066	 -1.808169	 -0.827688
C	 3.373802	 0.906639	 0.372125
H	 3.699140	 -1.146831	 -0.127906
H	 2.764321	 -0.923458	 1.318191
H	 3.519798	 1.311927	 -0.623875
H	 4.316899	 0.983758	 0.900700
H	 2.661122	 1.540651	 0.885346
H	 -3.262704	 -2.270813	 0.201413
H	 -3.642414	 -1.188111	 1.546011
H	 -2.132781	 -2.117610	 1.523643

	symmetry c1
}
set optking {
	frozen_dihedral = ("
		12 8 11 15
	")
}

ee,wfn = optimize('scf', return_wfn=True)
oeprop( wfn, 'DIPOLE', 'QUADRUPOLE', 'MULLIKEN_CHARGES')
f=open( 'psi4out.xyz', 'w' )
f.write( "22  " )
f.write( str(ee) + "\n" )
f.write( MOL.save_string_xyz() )
f.close()
--------------------------------------------------------------------------

    Molecular point group: c1
  Charge       = 0
  Multiplicity = 1
  Basis Set: CC-PVTZ
  Basis Set:
  @DF-RHF Final Energy:  -348.22267684628423
    Total Energy =                       -348.2226768462844575
    Molecular point group: c1
  Basis Set: CC-PVTZ
  Basis Set:
  Basis Set: CC-PVTZ
  Basis Set:
  @DF-RHF Final Energy:  -348.18576087688729
    Total Energy =                       -348.1857608768877981
  Basis Set: CC-PVTZ
  Basis Set:
  Basis Set: CC-PVTZ
  Basis Set:
  @DF-RHF Final Energy:  -348.22181537535255
    Total Energy =                       -348.2218153753528895
  Basis Set: CC-PVTZ
  Basis Set:
  Basis Set: CC-PVTZ
  Basis Set:
  @DF-RHF Final Energy:  -348.22288399539531
    Total Energy =                       -348.2228839953947954
  Basis Set: CC-PVTZ
  Basis Set:
  @DF-RHF Final Energy:  -348.22283201143006
    Total Energy =                       -348.2228320114297730
  @DF-RHF Final Energy:  -348.22268008145790
    Total Energy =                       -348.2226800814577246
  @DF-RHF Final Energy:  -348.22292547771156
    Total Energy =                       -348.2229254777111578
  Basis Set: CC-PVTZ
  Basis Set:
  @DF-RHF Final Energy:  -348.22285586425113
    Total Energy =                       -348.2228558642513576
  Basis Set: CC-PVTZ
  Basis Set:
  Basis Set: CC-PVTZ
  Basis Set:
  @DF-RHF Final Energy:  -348.22293497497748
    Total Energy =                       -348.2229349749775338
  Basis Set: CC-PVTZ
  Basis Set:
  Basis Set: CC-PVTZ
  Basis Set:
  @DF-RHF Final Energy:  -348.22293824670015
    Total Energy =                       -348.2229382467002097
  Basis Set: CC-PVTZ
  Basis Set:
  Charge       = 0
  Multiplicity = 1
  Basis Set: CC-PVTZ
  Basis Set:

    Orbital Energies (a.u.)
    -----------------------

    Doubly Occupied:

       1A    -20.536736     2A    -11.319282     3A    -11.228035
       4A    -11.227399     5A    -11.226887     6A    -11.220546
       7A    -11.218797     8A    -11.209735     9A     -1.396846
      10A     -1.097238    11A     -1.045748    12A     -1.000425
      13A     -0.939012    14A     -0.855695    15A     -0.790714
      16A     -0.734137    17A     -0.663938    18A     -0.646817
      19A     -0.626542    20A     -0.623275    21A     -0.599024
      22A     -0.582573    23A     -0.564787    24A     -0.543894
      25A     -0.534993    26A     -0.516128    27A     -0.502120
      28A     -0.490711    29A     -0.472895    30A     -0.464361
      31A     -0.461678    32A     -0.398433

  @DF-RHF Final Energy:  -348.22293857849746

   => Energetics <=

    Nuclear Repulsion Energy =            373.0562362674995143
    One-Electron Energy =               -1211.0795478036047825
    Two-Electron Energy =                 489.8003729576074647
    DFT Exchange-Correlation Energy =       0.0000000000000000
    Empirical Dispersion Energy =           0.0000000000000000
    PCM Polarization Energy =               0.0000000000000000
    EFP Energy =                            0.0000000000000000
    Total Energy =                       -348.2229385784977467
    Molecular point group: c1
  Basis Set: CC-PVTZ
  Basis Set:

  -Total Gradient:
     Atom            X                  Y                   Z
    ------   -----------------  -----------------  -----------------
       1        0.000007973337     0.000011328468     0.000000682908
       2       -0.000002719299    -0.000012551345     0.000018720654
       3       -0.000005409137     0.000005412002    -0.000004875514
       4       -0.000020256388     0.000009327721    -0.000028066154
       5        0.000003147190    -0.000007645877    -0.000000611870
       6       -0.000007876845    -0.000002949411    -0.000000113674
       7        0.000011019017     0.000006092262    -0.000000189399
       8        0.000749733976    -0.002599430967    -0.000387360411
       9       -0.000005625838    -0.000010847451    -0.000004602109
      10        0.000004092352    -0.000000412367     0.000003150050
      11        0.000390137909     0.001860657890    -0.001966368085
      12       -0.000698934822     0.001898196309     0.000632038243
      13        0.000003340255     0.000008441786     0.000003854453
      14       -0.000007476184    -0.000011752760     0.000001268847
      15       -0.000442611602    -0.001145363196     0.001726997816
      16        0.000003341514     0.000000279744    -0.000001848019
      17       -0.000002250392     0.000000809251    -0.000000717776
      18        0.000000863114    -0.000004399308    -0.000001529477
      19       -0.000000783480     0.000001168199     0.000001227291
      20        0.000004470234    -0.000005671991     0.000008445602
      21        0.000007564986    -0.000002017311    -0.000004236709
      22        0.000008260102     0.000001328351     0.000004133333

  **** Optimization is complete! (in 11 steps) ****
    Final optimized geometry and variables:
    Molecular point group: c1

    Geometry (in Angstrom), charge = 0, multiplicity = 1:

    O           -2.395805178970     1.346747153521     0.070538922195
    C           -2.102380945677     0.212416423151     0.266924505964
    C           -0.993058533276    -0.455717600415    -0.520851254167
    C           -2.802065917231    -0.615719748300     1.318155788406
    C            0.378609294551    -0.154228416585     0.095518302332
    H           -1.030671513357    -0.069710192331    -1.531525654511
    H           -1.151934689927    -1.528287245976    -0.558899736338
    C            1.522873241427    -0.811757037683    -0.675045921397
    H            0.511598228744     0.920583133473     0.123942436012
    H            0.400938928053    -0.498629891570     1.126210853777
    C            2.910151711586    -0.496755244266    -0.106729100564
    H            1.475751456458    -0.483691791179    -1.710211292836
    H            1.370084813045    -1.886635649268    -0.678745076211
    C            3.447294012340     0.878514025881    -0.491778337189
    H            3.607932978135    -1.260515451661    -0.434533112020
    H            2.876873983738    -0.580057389360     0.976636541254
    H            3.542778439135     0.969963630015    -1.568522019031
    H            4.426153869267     1.047065299738    -0.057966245022
    H            2.797205595940     1.675318973007    -0.149646469363
    H           -3.381778448887    -1.393566165391     0.831481983586
    H           -3.457855696944     0.007255667141     1.906678401394
    H           -2.080968648248    -1.108445663217     1.960664248259

  Mulliken Charges: (a.u.)
   Center  Symbol    Alpha    Beta     Spin     Total
       1     O     4.17779  4.17779  0.00000 -0.35559
       2     C     2.85826  2.85826  0.00000  0.28348
       3     C     3.09830  3.09830  0.00000 -0.19660
       4     C     3.15510  3.15510  0.00000 -0.31019
       5     C     3.10245  3.10245  0.00000 -0.20490
       6     H     0.43873  0.43873  0.00000  0.12254
       7     H     0.44894  0.44894  0.00000  0.10212
       8     C     3.09611  3.09611  0.00000 -0.19222
       9     H     0.43942  0.43942  0.00000  0.12115
      10     H     0.45230  0.45230  0.00000  0.09540
      11     C     3.09075  3.09075  0.00000 -0.18150
      12     H     0.45268  0.45268  0.00000  0.09465
      13     H     0.44770  0.44770  0.00000  0.10460
      14     C     3.14852  3.14852  0.00000 -0.29703
      15     H     0.44720  0.44720  0.00000  0.10560
      16     H     0.45605  0.45605  0.00000  0.08789
      17     H     0.45450  0.45450  0.00000  0.09100
      18     H     0.44712  0.44712  0.00000  0.10577
      19     H     0.45291  0.45291  0.00000  0.09418
      20     H     0.44835  0.44835  0.00000  0.10330
      21     H     0.43606  0.43606  0.00000  0.12787
      22     H     0.45076  0.45076  0.00000  0.09848

   Total alpha = 32.00000, Total beta = 32.00000, Total charge = -0.00000

*** Psi4 exiting successfully. Buy a developer a beer!
