  ==> Input File <==

--------------------------------------------------------------------------
set {
	reference rhf
	basis 6-31G*
}

set_num_threads( 1 )
memory 2 gb

molecule MOL {
0 1

H	 -3.892951	 0.981613	 -0.358725
C	 -3.196921	 0.361773	 0.172313
C	 -2.076860	 -0.007332	 -0.404944
H	 -3.439953	 0.057760	 1.173024
O	 -1.550391	 0.673353	 -1.456780
H	 -1.501964	 -0.852879	 -0.070670
C	 -0.465049	 0.121251	 -2.119401
C	 -0.900649	 -0.839106	 -3.203034
H	 0.202458	 -0.407419	 -1.448105
H	 0.078357	 0.927241	 -2.590119
F	 0.167470	 -1.310510	 -3.829699
F	 -1.563144	 -1.871025	 -2.706976
F	 -1.672975	 -0.258410	 -4.097849

	symmetry c1
}
set optking {
	frozen_dihedral = ("
		11 8 7 9,
		3 5 7 9,
		6 3 5 7
	")
}

ee = energy('scf')
oeprop('DIPOLE', 'QUADRUPOLE', 'MULLIKEN_CHARGES')
f=open( 'psi4out.xyz', 'w' )
f.write( "13  " )
f.write( str(ee) + "\n" )
f.write( MOL.save_string_xyz() )
f.close()
--------------------------------------------------------------------------

    Molecular point group: c1

    Geometry (in Angstrom), charge = 0, multiplicity = 1:

       Center              X                  Y                   Z               Mass
    ------------   -----------------  -----------------  -----------------  -----------------
           H         -2.533008445305     1.443667354386     1.984550194946     1.007825032070
           C         -1.836978445305     0.823827354386     2.515588194946    12.000000000000
           C         -0.716917445305     0.454722354386     1.938331194946    12.000000000000
           H         -2.080010445305     0.519814354386     3.516299194946     1.007825032070
           O         -0.190448445305     1.135407354386     0.886495194946    15.994914619560
           H         -0.142021445305    -0.390824645614     2.272605194946     1.007825032070
           C          0.894893554695     0.583305354386     0.223874194946    12.000000000000
           C          0.459293554695    -0.377051645614    -0.859758805054    12.000000000000
           H          1.562400554695     0.054635354386     0.895170194946     1.007825032070
           H          1.438299554695     1.389295354386    -0.246843805054     1.007825032070
           F          1.527412554695    -0.848455645614    -1.486423805054    18.998403224000
           F         -0.203201445305    -1.408970645614    -0.363700805054    18.998403224000
           F         -0.313032445305     0.203644354386    -1.754573805054    18.998403224000

  Charge       = 0
  Multiplicity = 1
  Basis Set: 6-31G*
  Basis Set:

    Orbital Energies (a.u.)
    -----------------------

    Doubly Occupied:

       1A    -26.345011     2A    -26.344860     3A    -26.341360
       4A    -20.610688     5A    -11.503783     6A    -11.319066
       7A    -11.300898     8A    -11.214579     9A     -1.742516
      10A     -1.640580    11A     -1.639106    12A     -1.439703
      13A     -1.084751    14A     -1.016625    15A     -0.925926
      16A     -0.837276    17A     -0.831754    18A     -0.821730
      19A     -0.792522    20A     -0.722143    21A     -0.712038
      22A     -0.696369    23A     -0.676318    24A     -0.661272
      25A     -0.655387    26A     -0.643905    27A     -0.636298
      28A     -0.585165    29A     -0.566779    30A     -0.523171
      31A     -0.512442    32A     -0.346139

  @DF-RHF Final Energy:  -527.52729775216380

   => Energetics <=

    Nuclear Repulsion Energy =            413.5602259032083907
    One-Electron Energy =               -1550.7945901861676248
    Two-Electron Energy =                 609.7070665307953732
    DFT Exchange-Correlation Energy =       0.0000000000000000
    Empirical Dispersion Energy =           0.0000000000000000
    PCM Polarization Energy =               0.0000000000000000
    EFP Energy =                            0.0000000000000000
    Total Energy =                       -527.5272977521638040

  Mulliken Charges: (a.u.)
   Center  Symbol    Alpha    Beta     Spin     Total
       1     H     0.40289  0.40289  0.00000  0.19423
       2     C     3.23852  3.23852  0.00000 -0.47703
       3     C     2.89584  2.89584  0.00000  0.20832
       4     H     0.40537  0.40537  0.00000  0.18926
       5     O     4.29804  4.29804  0.00000 -0.59608
       6     H     0.40737  0.40737  0.00000  0.18526
       7     C     3.06432  3.06432  0.00000 -0.12865
       8     C     2.45613  2.45613  0.00000  1.08774
       9     H     0.40521  0.40521  0.00000  0.18958
      10     H     0.38941  0.38941  0.00000  0.22118
      11     F     4.68275  4.68275  0.00000 -0.36551
      12     F     4.67968  4.67968  0.00000 -0.35937
      13     F     4.67447  4.67447  0.00000 -0.34894

   Total alpha = 32.00000, Total beta = 32.00000, Total charge = -0.00000
