                              Psi4 1.0.54 Driver

  ==> Input File <==

--------------------------------------------------------------------------
set {
	reference rhf
	basis cc-pvtz
}

set_num_threads( 4 )
memory 2 gb

molecule MOL {
0 1

O	 1.923792	 1.154644	 -0.530414
C	 1.704209	 0.119472	 -0.000093
C	 0.380337	 -0.600947	 -0.000234
O	 2.618082	 -0.554920	 0.678470
C	 -0.824290	 0.329213	 -0.000115
H	 0.371455	 -1.255476	 -0.865660
H	 0.371410	 -1.255787	 0.864952
C	 -2.146151	 -0.432825	 -0.000068
H	 -0.773936	 0.979158	 -0.866319
H	 -0.773838	 0.979034	 0.866186
C	 -3.366283	 0.483552	 0.000557
H	 -2.189286	 -1.084450	 -0.869996
H	 -2.188867	 -1.085083	 0.869399
C	 -4.687436	 -0.278003	 0.000108
H	 -3.325150	 1.134819	 -0.867957
H	 -3.325087	 1.133730	 0.869885
H	 -4.773783	 -0.912098	 -0.876078
H	 -5.531922	 0.401392	 0.000363
H	 -4.773901	 -0.912898	 0.875703
C	 3.911946	 0.007695	 0.760353
H	 4.340998	 0.122068	 -0.224048
H	 4.499695	 -0.681444	 1.344721
H	 3.878262	 0.972511	 1.244304

	symmetry c1
}
set optking {
	frozen_dihedral = ("
		1 2 3 6
	")
}

ee,wfn = optimize('scf', return_wfn=True)
oeprop( wfn, 'DIPOLE', 'QUADRUPOLE', 'MULLIKEN_CHARGES')
f=open( 'psi4out.xyz', 'w' )
f.write( "23  " )
f.write( str(ee) + "\n" )
f.write( MOL.save_string_xyz() )
f.close()
--------------------------------------------------------------------------

    Molecular point group: c1
  Charge       = 0
  Multiplicity = 1
  Basis Set: CC-PVTZ
  Basis Set:
  @DF-RHF Final Energy:  -423.13007099734028
    Total Energy =                       -423.1300709973397716
    Molecular point group: c1
  Basis Set: CC-PVTZ
  Basis Set:
  Basis Set: CC-PVTZ
  Basis Set:
  @DF-RHF Final Energy:  -423.12915814754587
    Total Energy =                       -423.1291581475454677
  Basis Set: CC-PVTZ
  Basis Set:
  Basis Set: CC-PVTZ
  Basis Set:
  @DF-RHF Final Energy:  -423.13032474770563
    Total Energy =                       -423.1303247477051173
  Basis Set: CC-PVTZ
  Basis Set:
  Basis Set: CC-PVTZ
  Basis Set:
  @DF-RHF Final Energy:  -423.13043553127994
    Total Energy =                       -423.1304355312802272
  Basis Set: CC-PVTZ
  Basis Set:
  Basis Set: CC-PVTZ
  Basis Set:
  @DF-RHF Final Energy:  -423.13045030480396
    Total Energy =                       -423.1304503048037304
  Basis Set: CC-PVTZ
  Basis Set:
  Charge       = 0
  Multiplicity = 1
  Basis Set: CC-PVTZ
  Basis Set:

    Orbital Energies (a.u.)
    -----------------------

    Doubly Occupied:

       1A    -20.597598     2A    -20.532724     3A    -11.364518
       4A    -11.278495     5A    -11.233318     6A    -11.218909
       7A    -11.216375     8A    -11.214999     9A    -11.208075
      10A     -1.472502    11A     -1.365282    12A     -1.094872
      13A     -1.044677    14A     -0.987969    15A     -0.933292
      16A     -0.844363    17A     -0.795966    18A     -0.770795
      19A     -0.698519    20A     -0.685965    21A     -0.675286
      22A     -0.653562    23A     -0.609572    24A     -0.600386
      25A     -0.574163    26A     -0.566122    27A     -0.551804
      28A     -0.526566    29A     -0.524291    30A     -0.507264
      31A     -0.484970    32A     -0.471584    33A     -0.467055
      34A     -0.463512    35A     -0.459692    36A     -0.436604

  @DF-RHF Final Energy:  -423.13045616150259

   => Energetics <=

    Nuclear Repulsion Energy =            452.9681891156651545
    One-Electron Energy =               -1473.9339948110527985
    Two-Electron Energy =                 597.8353495338849370
    DFT Exchange-Correlation Energy =       0.0000000000000000
    Empirical Dispersion Energy =           0.0000000000000000
    PCM Polarization Energy =               0.0000000000000000
    EFP Energy =                            0.0000000000000000
    Total Energy =                       -423.1304561615027069
    Molecular point group: c1
  Basis Set: CC-PVTZ
  Basis Set:

  -Total Gradient:
     Atom            X                  Y                   Z
    ------   -----------------  -----------------  -----------------
       1        0.000337739494    -0.000646533122    -0.000733220300
       2       -0.000605451724     0.001054015610     0.000971753034
       3        0.000566363857    -0.001005929740     0.000219519684
       4        0.000085729999    -0.000006930471     0.000026845443
       5       -0.000010652563    -0.000009362507     0.000023272432
       6       -0.000386923727     0.000648305647    -0.000508476757
       7        0.000009511677     0.000000158403    -0.000004593207
       8        0.000002879805    -0.000001797020    -0.000003230107
       9        0.000000472084    -0.000000524437     0.000000339675
      10        0.000004603633    -0.000001881986    -0.000005897671
      11        0.000006607359    -0.000001133188     0.000003757018
      12       -0.000002252417    -0.000003482482     0.000001729509
      13       -0.000001114409    -0.000003373788     0.000001314706
      14       -0.000001840781     0.000001753057    -0.000002256195
      15       -0.000001488804     0.000002483420    -0.000000103123
      16       -0.000000871912    -0.000000217708    -0.000002905186
      17        0.000000001843     0.000000239460     0.000001684459
      18       -0.000000336943    -0.000000905896     0.000000393976
      19        0.000000650162    -0.000000253786    -0.000000771322
      20       -0.000019607497    -0.000045538161     0.000021064854
      21       -0.000001608116     0.000009518908     0.000001274870
      22        0.000026670284     0.000016791305    -0.000001662392
      23       -0.000009081297    -0.000005401515    -0.000009833398

  **** Optimization is complete! (in 6 steps) ****
    Final optimized geometry and variables:
    Molecular point group: c1

    Geometry (in Angstrom), charge = 0, multiplicity = 1:

    O            1.898608217407     1.163972940881    -0.530478795500
    C            1.709455060339     0.126623517169     0.008170658966
    C            0.403651343645    -0.627717254030    -0.004566130075
    O            2.651434541031    -0.528758892359     0.665178871347
    C           -0.816021901903     0.282821993531    -0.097562568789
    H            0.443878263301    -1.281224313688    -0.872094542059
    H            0.359324207821    -1.266714646445     0.867048972376
    C           -2.122320311210    -0.501418045075    -0.174492074947
    H           -0.715031334548     0.922327561542    -0.965369770819
    H           -0.837350431954     0.941138812485     0.765758789087
    C           -3.354798473057     0.394147804102    -0.260469869287
    H           -2.097168901076    -1.158961901349    -1.040586049448
    H           -2.210503574113    -1.148441706538     0.695322195335
    C           -4.660152988401    -0.389963719918    -0.341900036480
    H           -3.267360701622     1.040597725485    -1.129062521891
    H           -3.381984858399     1.050142592731     0.605144644813
    H           -4.678389930198    -1.030182672402    -1.217655300089
    H           -5.514086891766     0.274870682457    -0.401227718981
    H           -4.792906979835    -1.021433214594     0.530379483192
    C            3.941626908499     0.047951726588     0.694271115916
    H            4.334309603301     0.154074418073    -0.306129472334
    H            4.556841839350    -0.627573154819     1.266149651688
    H            3.914268256774     1.018522752344     1.166671248531

  Mulliken Charges: (a.u.)
   Center  Symbol    Alpha    Beta     Spin     Total
       1     O     4.19983  4.19983  0.00000 -0.39965
       2     C     2.81365  2.81365  0.00000  0.37269
       3     C     3.09102  3.09102  0.00000 -0.18205
       4     O     4.14442  4.14442  0.00000 -0.28884
       5     C     3.08851  3.08851  0.00000 -0.17703
       6     H     0.44462  0.44462  0.00000  0.11076
       7     H     0.43790  0.43790  0.00000  0.12419
       8     C     3.08975  3.08975  0.00000 -0.17950
       9     H     0.44000  0.44000  0.00000  0.12001
      10     H     0.45118  0.45118  0.00000  0.09764
      11     C     3.08401  3.08401  0.00000 -0.16801
      12     H     0.45496  0.45496  0.00000  0.09008
      13     H     0.45559  0.45559  0.00000  0.08882
      14     C     3.15038  3.15038  0.00000 -0.30076
      15     H     0.45272  0.45272  0.00000  0.09456
      16     H     0.45379  0.45379  0.00000  0.09243
      17     H     0.45508  0.45508  0.00000  0.08984
      18     H     0.44771  0.44771  0.00000  0.10458
      19     H     0.45539  0.45539  0.00000  0.08922
      20     C     3.03578  3.03578  0.00000 -0.07155
      21     H     0.45438  0.45438  0.00000  0.09125
      22     H     0.44507  0.44507  0.00000  0.10987
      23     H     0.45427  0.45427  0.00000  0.09145

   Total alpha = 36.00000, Total beta = 36.00000, Total charge = -0.00000

*** Psi4 exiting successfully. Buy a developer a beer!
