  ==> Input File <==

--------------------------------------------------------------------------
set {
	reference rhf
	basis cc-pvtz
}

set_num_threads( 4 )
memory 2 gb

molecule MOL {
0 1

H	 -1.025208	 -0.806783	 -0.589906
N	 -0.712187	 0.000026	 -0.093397
C	 0.734067	 -0.000020	 0.038424
H	 -1.152051	 -0.016825	 0.801968
H	 1.140372	 -0.872115	 -0.458226
H	 1.140363	 0.872301	 -0.457869
H	 1.095085	 -0.000244	 1.065614

	symmetry c1
}
set optking {
	frozen_dihedral = ("
		1 2 3 7
	")
}

ee = optimize('scf')
oeprop('DIPOLE', 'QUADRUPOLE', 'MULLIKEN_CHARGES')
f=open( 'psi4out.xyz', 'w' )
f.write( "7  " )
f.write( str(ee) + "\n" )
f.write( MOL.save_string_xyz() )
f.close()
--------------------------------------------------------------------------

    Molecular point group: c1
  Charge       = 0
  Multiplicity = 1
  Basis Set: CC-PVTZ
  Basis Set:
  @DF-RHF Final Energy:   -95.24974179518803
    Total Energy =                        -95.2497417951880436
    Molecular point group: c1
  Basis Set: CC-PVTZ
  Basis Set:
  Basis Set: CC-PVTZ
  Basis Set:
  @DF-RHF Final Energy:   -95.25030140875792
    Total Energy =                        -95.2503014087578919
  Basis Set: CC-PVTZ
  Basis Set:
  Basis Set: CC-PVTZ
  Basis Set:
  @DF-RHF Final Energy:   -95.25041341316887
    Total Energy =                        -95.2504134131689000
  Basis Set: CC-PVTZ
  Basis Set:
  Charge       = 0
  Multiplicity = 1
  Basis Set: CC-PVTZ
  Basis Set:

    Orbital Energies (a.u.)
    -----------------------

    Doubly Occupied:

       1A    -15.526057     2A    -11.235595     3A     -1.168871
       4A     -0.898048     5A     -0.666051     6A     -0.600158
       7A     -0.560777     8A     -0.517887     9A     -0.382930

  @DF-RHF Final Energy:   -95.25041407663409

   => Energetics <=

    Nuclear Repulsion Energy =             42.3024158375457873
    One-Electron Energy =                -211.9929104510563320
    Two-Electron Energy =                  74.4400805368764509
    DFT Exchange-Correlation Energy =       0.0000000000000000
    Empirical Dispersion Energy =           0.0000000000000000
    PCM Polarization Energy =               0.0000000000000000
    EFP Energy =                            0.0000000000000000
    Total Energy =                        -95.2504140766340868
    Molecular point group: c1
  Basis Set: CC-PVTZ
  Basis Set:

  -Total Gradient:
     Atom            X                  Y                   Z
    ------   -----------------  -----------------  -----------------
       1        0.000016408674    -0.000005641328    -0.000032294160
       2       -0.000066315881     0.000106314345     0.000017456374
       3        0.000087537744    -0.000130071923    -0.000017224330
       4       -0.000015688647    -0.000027745435     0.000029496440
       5        0.000028805028     0.000009399858     0.000007361471
       6       -0.000039203656     0.000000403555    -0.000005726773
       7       -0.000011543261     0.000047340928     0.000000930978

  **** Optimization is complete! (in 4 steps) ****
    Final optimized geometry and variables:
    Molecular point group: c1

    Geometry (in Angstrom), charge = 0, multiplicity = 1:

    H           -1.048800746244    -0.776405776784    -0.559941743959
    N           -0.717618571451     0.022455801223    -0.067353461871
    C            0.737172304151     0.028602818055     0.039327108986
    H           -1.154211396154     0.026074214342     0.827026816025
    H            1.178550254522    -0.837656646718    -0.440215979474
    H            1.153283209245     0.911454176136    -0.432112245202
    H            1.064638133549     0.023956410833     1.072814594310

  Mulliken Charges: (a.u.)
   Center  Symbol    Alpha    Beta     Spin     Total
       1     H     0.42711  0.42711  0.00000  0.14578
       2     N     3.68872  3.68872  0.00000 -0.37743
       3     C     3.06898  3.06898  0.00000 -0.13796
       4     H     0.42712  0.42712  0.00000  0.14575
       5     H     0.46325  0.46325  0.00000  0.07351
       6     H     0.46141  0.46141  0.00000  0.07717
       7     H     0.46341  0.46341  0.00000  0.07318

   Total alpha =  9.00000, Total beta =  9.00000, Total charge = -0.00000
