  ==> Input File <==

--------------------------------------------------------------------------
set {
	reference rhf
	basis 6-31G*
}

set_num_threads( 4 )
memory 2 gb

molecule MOL {
0 1

O	 3.225979	 0.970355	 -0.599647
C	 2.701189	 0.057885	 -0.047330
C	 1.245376	 -0.013843	 0.345420
O	 3.347903	 -1.046386	 0.304773
C	 0.455112	 1.231400	 -0.050772
H	 0.838542	 -0.913825	 -0.103701
H	 1.208210	 -0.175333	 1.419774
C	 -0.998893	 1.219485	 0.433193
H	 0.482531	 1.345121	 -1.130325
H	 0.957290	 2.103070	 0.354729
C	 -1.883438	 0.145884	 -0.207175
H	 -1.431207	 2.195402	 0.224832
H	 -1.019646	 1.105716	 1.516076
C	 -1.091890	 -0.843009	 -1.065396
H	 -2.409091	 -0.398344	 0.575975
H	 -2.649795	 0.610460	 -0.823486
C	 -1.966286	 -1.917307	 -1.714585
H	 -0.330777	 -1.322547	 -0.452220
H	 -0.557468	 -0.298269	 -1.842153
C	 -1.167688	 -2.903052	 -2.566787
H	 -2.501811	 -2.461955	 -0.939851
H	 -2.724966	 -1.440053	 -2.331362
H	 -1.814744	 -3.651772	 -3.013265
H	 -0.422883	 -3.422777	 -1.970676
H	 -0.647313	 -2.392830	 -3.372490
C	 4.728119	 -1.109107	 -0.004993
H	 4.882018	 -1.033965	 -1.071845
H	 5.068212	 -2.067527	 0.355250
H	 5.265056	 -0.311663	 0.488280

	symmetry c1
}
set optking {
	frozen_dihedral = ("
		15 11 8 5
	")
}

ee = optimize('scf')
oeprop('DIPOLE', 'QUADRUPOLE', 'MULLIKEN_CHARGES')
f=open( 'psi4out.xyz', 'w' )
f.write( "29  " )
f.write( str(ee) + "\n" )
f.write( MOL.save_string_xyz() )
f.close()
--------------------------------------------------------------------------

    Molecular point group: c1
  Charge       = 0
  Multiplicity = 1
  Basis Set: 6-31G*
  Basis Set:
  @DF-RHF Final Energy:  -501.00412530183121
    Total Energy =                       -501.0041253018307543
    Molecular point group: c1
  Basis Set: 6-31G*
  Basis Set:
  Basis Set: 6-31G*
  Basis Set:
  @DF-RHF Final Energy:  -501.02523855204720
    Total Energy =                       -501.0252385520464031
  Basis Set: 6-31G*
  Basis Set:
  Basis Set: 6-31G*
  Basis Set:
  @DF-RHF Final Energy:  -501.02982325651385
    Total Energy =                       -501.0298232565139642
  Basis Set: 6-31G*
  Basis Set:
  Basis Set: 6-31G*
  Basis Set:
  @DF-RHF Final Energy:  -501.02807206484454
    Total Energy =                       -501.0280720648437409
  Basis Set: 6-31G*
  Basis Set:
  @DF-RHF Final Energy:  -501.03143957586724
    Total Energy =                       -501.0314395758678074
  @DF-RHF Final Energy:  -501.03185430809333
    Total Energy =                       -501.0318543080934433
  Basis Set: 6-31G*
  Basis Set:
  @DF-RHF Final Energy:  -501.03184732545094
    Total Energy =                       -501.0318473254504852
  Basis Set: 6-31G*
  Basis Set:
  Basis Set: 6-31G*
  Basis Set:
  @DF-RHF Final Energy:  -501.03192246129151
    Total Energy =                       -501.0319224612915150
  Basis Set: 6-31G*
  Basis Set:
  Basis Set: 6-31G*
  Basis Set:
  @DF-RHF Final Energy:  -501.03195709288286
    Total Energy =                       -501.0319570928841131
  Basis Set: 6-31G*
  Basis Set:
  Charge       = 0
  Multiplicity = 1
  Basis Set: 6-31G*
  Basis Set:

    Orbital Energies (a.u.)
    -----------------------

    Doubly Occupied:

       1A    -20.603135     2A    -20.544919     3A    -11.371567
       4A    -11.280489     5A    -11.233842     6A    -11.218964
       7A    -11.218279     8A    -11.216386     9A    -11.216065
      10A    -11.214961    11A    -11.209146    12A     -1.468767
      13A     -1.362205    14A     -1.094501    15A     -1.065100
      16A     -1.016834    17A     -0.975679    18A     -0.931032
      19A     -0.865797    20A     -0.808934    21A     -0.777042
      22A     -0.761648    23A     -0.699057    24A     -0.682270
      25A     -0.671910    26A     -0.648088    27A     -0.632279
      28A     -0.603610    29A     -0.592686    30A     -0.581452
      31A     -0.564286    32A     -0.551068    33A     -0.540282
      34A     -0.525308    35A     -0.520407    36A     -0.507176
      37A     -0.493090    38A     -0.482118    39A     -0.472417
      40A     -0.456983    41A     -0.455952    42A     -0.449794
      43A     -0.440095    44A     -0.434102

  @DF-RHF Final Energy:  -501.03195746630206

   => Energetics <=

    Nuclear Repulsion Energy =            627.8878841353561029
    One-Electron Energy =               -1926.9202383216907037
    Two-Electron Energy =                 798.0003967200326542
    DFT Exchange-Correlation Energy =       0.0000000000000000
    Empirical Dispersion Energy =           0.0000000000000000
    PCM Polarization Energy =               0.0000000000000000
    EFP Energy =                            0.0000000000000000
    Total Energy =                       -501.0319574663018329
    Molecular point group: c1
  Basis Set: 6-31G*
  Basis Set:

  -Total Gradient:
     Atom            X                  Y                   Z
    ------   -----------------  -----------------  -----------------
       1       -0.000004884843    -0.000043823431     0.000053090179
       2        0.000000966328    -0.000008419688    -0.000053412146
       3        0.000003658631    -0.000049293095     0.000032355048
       4        0.000019260260     0.000009403603    -0.000005728580
       5        0.000076872011    -0.000155411184     0.000259132588
       6        0.000106311516     0.000110107870    -0.000004716227
       7       -0.000002514937    -0.000018957713     0.000003964525
       8       -0.000047198399     0.000245682407    -0.000349034316
       9       -0.000009971918     0.000008605546    -0.000001005449
      10       -0.000003307541     0.000011396406    -0.000016960733
      11       -0.000309940102     0.000225692013     0.000083054119
      12       -0.000024599712    -0.000003714902     0.000004265327
      13        0.000014842868    -0.000004252785    -0.000013709641
      14        0.000006951602    -0.000076630469    -0.000001589651
      15        0.000270159744    -0.000252298024    -0.000061496395
      16       -0.000011276765    -0.000010414375    -0.000000275087
      17       -0.000028299042    -0.000018716576     0.000032306567
      18       -0.000069354506     0.000032798681     0.000020690633
      19        0.000000581522    -0.000042520057     0.000034618597
      20        0.000000573499     0.000049939458    -0.000031278954
      21        0.000036113038    -0.000015249788    -0.000000761015
      22       -0.000021612852     0.000000609739     0.000023839724
      23       -0.000007944510     0.000018202897    -0.000019982827
      24       -0.000022309970    -0.000002467238     0.000010327455
      25        0.000023552520    -0.000003760436     0.000003928522
      26       -0.000010347749    -0.000012534668     0.000000405233
      27        0.000003944042     0.000000441321    -0.000001435860
      28        0.000009236097     0.000002001713    -0.000002019934
      29        0.000000539166     0.000003582769     0.000001428298

  **** Optimization is complete! (in 10 steps) ****
    Final optimized geometry and variables:
    Molecular point group: c1

    Geometry (in Angstrom), charge = 0, multiplicity = 1:

    O            2.494909703391     1.360460282770    -0.231364023274
    C            2.074900991396     0.557482219643     0.538065945953
    C            0.641464306525     0.444974123674     0.998017976083
    O            2.836276826267    -0.367981574521     1.108783608893
    C           -0.277979313578     1.482817205055     0.355837795609
    H            0.321128338658    -0.571417273183     0.802579829314
    H            0.642378967464     0.549880011621     2.079872789109
    C           -1.735476794074     1.416157272063     0.843631943608
    H           -0.221534178167     1.405681091489    -0.723083002688
    H            0.114329707591     2.464945158402     0.597372163969
    C           -2.706152464605     0.378162483086     0.204912668139
    H           -2.167640429840     2.400552309451     0.695263392738
    H           -1.722569864039     1.270975700890     1.920992879690
    C           -2.143299481534    -0.646300494295    -0.787047371130
    H           -3.203040112932    -0.168613188048     1.001859083536
    H           -3.494416660668     0.923897566044    -0.306668438034
    C           -3.241424797939    -1.536278383713    -1.375410566611
    H           -1.406952001790    -1.281155864694    -0.302438897596
    H           -1.629633842500    -0.141746684808    -1.600870193471
    C           -2.705519040139    -2.565611105923    -2.369902894021
    H           -3.760540748366    -2.050139711848    -0.569138613993
    H           -3.984571294297    -0.912727197875    -1.867647222833
    H           -3.507165329686    -3.175739064007    -2.774525117075
    H           -1.989366865475    -3.232229094276    -1.897581880245
    H           -2.205061948871    -2.081813803899    -3.203936213236
    C            4.209872874150    -0.371387514159     0.765230814790
    H            4.336013971110    -0.533664352304    -0.295561227210
    H            4.651619599120    -1.182634358935     1.322679717069
    H            4.672404322924     0.566139333739     1.038488306536

  Mulliken Charges: (a.u.)
   Center  Symbol    Alpha    Beta     Spin     Total
       1     O     4.28610  4.28610  0.00000 -0.57221
       2     C     2.60570  2.60570  0.00000  0.78859
       3     C     3.20884  3.20884  0.00000 -0.41769
       4     O     4.30751  4.30751  0.00000 -0.61503
       5     C     3.15712  3.15712  0.00000 -0.31424
       6     H     0.39809  0.39809  0.00000  0.20381
       7     H     0.40118  0.40118  0.00000  0.19764
       8     C     3.16226  3.16226  0.00000 -0.32452
       9     H     0.40892  0.40892  0.00000  0.18216
      10     H     0.40999  0.40999  0.00000  0.18002
      11     C     3.15615  3.15615  0.00000 -0.31229
      12     H     0.41584  0.41584  0.00000  0.16832
      13     H     0.42209  0.42209  0.00000  0.15582
      14     C     3.15584  3.15584  0.00000 -0.31167
      15     H     0.42092  0.42092  0.00000  0.15816
      16     H     0.42024  0.42024  0.00000  0.15952
      17     C     3.15131  3.15131  0.00000 -0.30263
      18     H     0.42476  0.42476  0.00000  0.15048
      19     H     0.42059  0.42059  0.00000  0.15882
      20     C     3.23937  3.23937  0.00000 -0.47874
      21     H     0.42313  0.42313  0.00000  0.15375
      22     H     0.42247  0.42247  0.00000  0.15505
      23     H     0.41903  0.41903  0.00000  0.16193
      24     H     0.42222  0.42222  0.00000  0.15557
      25     H     0.42109  0.42109  0.00000  0.15781
      26     C     3.09235  3.09235  0.00000 -0.18470
      27     H     0.40911  0.40911  0.00000  0.18178
      28     H     0.40858  0.40858  0.00000  0.18284
      29     H     0.40917  0.40917  0.00000  0.18165

   Total alpha = 44.00000, Total beta = 44.00000, Total charge = -0.00000
