  ==> Input File <==

--------------------------------------------------------------------------
set {
	reference rhf
	basis cc-pvtz
}

set_num_threads( 4 )
memory 2 gb

molecule MOL {
0 1

H	 2.053512	 -0.837855	 -2.281856
C	 1.328469	 -1.034721	 -1.502860
C	 1.322304	 0.099773	 -0.484271
H	 0.358267	 -1.147237	 -1.973410
H	 1.588166	 -1.979571	 -1.039009
C	 0.308557	 -0.162619	 0.622645
H	 1.077043	 1.035947	 -0.970232
H	 2.304764	 0.208938	 -0.041785
N	 -1.069352	 -0.004081	 0.085342
H	 0.371632	 -1.172932	 0.991288
H	 0.400391	 0.548875	 1.426218
O	 -1.584901	 -0.965470	 -0.377818
O	 -1.548033	 1.079343	 0.130056

	symmetry c1
}
set optking {
	frozen_dihedral = ("
		7 3 6 9
	")
}

ee = optimize('scf')
oeprop('DIPOLE', 'QUADRUPOLE', 'MULLIKEN_CHARGES')
f=open( 'psi4out.xyz', 'w' )
f.write( "13  " )
f.write( str(ee) + "\n" )
f.write( MOL.save_string_xyz() )
f.close()
--------------------------------------------------------------------------

    Molecular point group: c1
  Charge       = 0
  Multiplicity = 1
  Basis Set: CC-PVTZ
  Basis Set:
  @DF-RHF Final Energy:  -321.85926056236741
    Total Energy =                       -321.8592605623671261
    Molecular point group: c1
  Basis Set: CC-PVTZ
  Basis Set:
  Basis Set: CC-PVTZ
  Basis Set:
  @DF-RHF Final Energy:  -321.85996715811405
    Total Energy =                       -321.8599671581138182
  Basis Set: CC-PVTZ
  Basis Set:
  Basis Set: CC-PVTZ
  Basis Set:
  @DF-RHF Final Energy:  -321.86015678210038
    Total Energy =                       -321.8601567821003755
  Basis Set: CC-PVTZ
  Basis Set:
  Basis Set: CC-PVTZ
  Basis Set:
  @DF-RHF Final Energy:  -321.86030911347575
    Total Energy =                       -321.8603091134759779
  Basis Set: CC-PVTZ
  Basis Set:
  @DF-RHF Final Energy:  -321.86035419590360
    Total Energy =                       -321.8603541959035965
  @DF-RHF Final Energy:  -321.86042950158071
    Total Energy =                       -321.8604295015804837
  @DF-RHF Final Energy:  -321.86060550067020
    Total Energy =                       -321.8606055006705446
  @DF-RHF Final Energy:  -321.86072730571175
    Total Energy =                       -321.8607273057119755
  Basis Set: CC-PVTZ
  Basis Set:
  @DF-RHF Final Energy:  -321.86079616739329
    Total Energy =                       -321.8607961673931754
  Basis Set: CC-PVTZ
  Basis Set:
  Basis Set: CC-PVTZ
  Basis Set:
  @DF-RHF Final Energy:  -321.86082247946058
    Total Energy =                       -321.8608224794605235
  Basis Set: CC-PVTZ
  Basis Set:
  Basis Set: CC-PVTZ
  Basis Set:
  @DF-RHF Final Energy:  -321.86082744596609
    Total Energy =                       -321.8608274459661516
  Basis Set: CC-PVTZ
  Basis Set:
  Charge       = 0
  Multiplicity = 1
  Basis Set: CC-PVTZ
  Basis Set:

    Orbital Energies (a.u.)
    -----------------------

    Doubly Occupied:

       1A    -20.593037     2A    -20.589357     3A    -15.837512
       4A    -11.297767     5A    -11.251708     6A    -11.229818
       7A     -1.636790     8A     -1.420966     9A     -1.132435
      10A     -1.021983    11A     -0.892980    12A     -0.824657
      13A     -0.762251    14A     -0.741827    15A     -0.729280
      16A     -0.646665    17A     -0.624154    18A     -0.596249
      19A     -0.531245    20A     -0.517492    21A     -0.514082
      22A     -0.487819    23A     -0.475290    24A     -0.454095

  @DF-RHF Final Energy:  -321.86082827243649

   => Energetics <=

    Nuclear Repulsion Energy =            252.4714064702326652
    One-Electron Energy =                -939.0455621538128526
    Two-Electron Energy =                 364.7133274111436094
    DFT Exchange-Correlation Energy =       0.0000000000000000
    Empirical Dispersion Energy =           0.0000000000000000
    PCM Polarization Energy =               0.0000000000000000
    EFP Energy =                            0.0000000000000000
    Total Energy =                       -321.8608282724366063
    Molecular point group: c1
  Basis Set: CC-PVTZ
  Basis Set:

  -Total Gradient:
     Atom            X                  Y                   Z
    ------   -----------------  -----------------  -----------------
       1       -0.000002339542    -0.000016345356    -0.000014289059
       2        0.000012813235    -0.000010202134    -0.000011230332
       3        0.001793317663     0.002005327842     0.002197939542
       4        0.000000293152     0.000002293377    -0.000005616287
       5        0.000000914894     0.000008383868    -0.000001745415
       6       -0.000376930207    -0.002566282536    -0.001056930713
       7       -0.001417449148    -0.001127035984    -0.001632559930
       8       -0.000001255453    -0.000003161789    -0.000009985957
       9        0.000028707968     0.001558911762     0.000538384369
      10       -0.000013136653     0.000000998567     0.000002308166
      11       -0.000027359112    -0.000000952282     0.000008487057
      12        0.000039402057     0.000091536918    -0.000006356547
      13       -0.000036978853     0.000056527747    -0.000008404895

  **** Optimization is complete! (in 12 steps) ****
    Final optimized geometry and variables:
    Molecular point group: c1

    Geometry (in Angstrom), charge = 0, multiplicity = 1:

    H            2.374417817886    -0.575110336499    -2.054466354529
    C            1.628785187475    -0.824423320125    -1.310159712329
    C            1.571714621723     0.254850672382    -0.232891512574
    H            0.677476134529    -0.927415127290    -1.818943437918
    H            1.886649403928    -1.789232360449    -0.888284761285
    C            0.547995639782    -0.033793059458     0.856942316573
    H            1.339123920762     1.210576142808    -0.681657454824
    H            2.535635966796     0.346399629668     0.253498410817
    N           -0.844806293450     0.153466814682     0.355040038902
    H            0.598562863193    -1.044087648293     1.224209664226
    H            0.640289438912     0.667495137590     1.672306054734
    O           -1.566094547890    -0.785925266808     0.372985633588
    O           -1.139945175103     1.237273562875    -0.024566250657

  Mulliken Charges: (a.u.)
   Center  Symbol    Alpha    Beta     Spin     Total
       1     H     0.44498  0.44498  0.00000  0.11004
       2     C     3.14391  3.14391  0.00000 -0.28781
       3     C     3.09912  3.09912  0.00000 -0.19825
       4     H     0.44639  0.44639  0.00000  0.10722
       5     H     0.45358  0.45358  0.00000  0.09283
       6     C     3.04845  3.04845  0.00000 -0.09690
       7     H     0.43562  0.43562  0.00000  0.12875
       8     H     0.44529  0.44529  0.00000  0.10941
       9     N     3.27860  3.27860  0.00000  0.44281
      10     H     0.43265  0.43265  0.00000  0.13471
      11     H     0.42840  0.42840  0.00000  0.14321
      12     O     4.16865  4.16865  0.00000 -0.33729
      13     O     4.17437  4.17437  0.00000 -0.34873

   Total alpha = 24.00000, Total beta = 24.00000, Total charge = -0.00000
