                              Psi4 1.0.54 Driver

  ==> Input File <==

--------------------------------------------------------------------------
set {
	reference rhf
	basis cc-pvtz
}

set_num_threads( 4 )
memory 2 gb

molecule MOL {
0 1

O	 1.619547	 1.023886	 -0.758978
C	 1.704209	 0.119472	 -0.000093
C	 0.703702	 -0.217518	 1.075576
O	 2.715427	 -0.733672	 0.000025
C	 -0.485633	 0.730773	 1.126051
H	 0.383807	 -1.240590	 0.906931
H	 1.238754	 -0.227578	 2.019536
C	 -1.477010	 0.360605	 2.225217
H	 -0.985053	 0.729067	 0.163840
H	 -0.129082	 1.743310	 1.277482
C	 -2.676872	 1.301017	 2.291746
H	 -1.828805	 -0.656771	 2.068897
H	 -0.969068	 0.361046	 3.187107
C	 -3.667976	 0.930816	 3.389961
H	 -3.185517	 1.300628	 1.331831
H	 -2.326769	 2.317239	 2.449486
H	 -4.062741	 -0.068742	 3.240698
H	 -4.506465	 1.617321	 3.409459
H	 -3.197313	 0.956290	 4.367233
C	 4.020999	 -0.192556	 0.000019
H	 4.182809	 0.412891	 -0.879449
H	 4.692590	 -1.035653	 0.000152
H	 4.182726	 0.413087	 0.879368

	symmetry c1
}
set optking {
	frozen_dihedral = ("
		1 2 4 20
	")
}

ee,wfn = optimize('scf', return_wfn=True)
oeprop( wfn, 'DIPOLE', 'QUADRUPOLE', 'MULLIKEN_CHARGES')
f=open( 'psi4out.xyz', 'w' )
f.write( "23  " )
f.write( str(ee) + "\n" )
f.write( MOL.save_string_xyz() )
f.close()
--------------------------------------------------------------------------

    Molecular point group: c1
  Charge       = 0
  Multiplicity = 1
  Basis Set: CC-PVTZ
  Basis Set:
  @DF-RHF Final Energy:  -423.11964188578770
    Total Energy =                       -423.1196418857877006
    Molecular point group: c1
  Basis Set: CC-PVTZ
  Basis Set:
  Basis Set: CC-PVTZ
  Basis Set:
  @DF-RHF Final Energy:  -423.09568874311657
    Total Energy =                       -423.0956887431166251
  Basis Set: CC-PVTZ
  Basis Set:
  Basis Set: CC-PVTZ
  Basis Set:
  @DF-RHF Final Energy:  -423.11756834957288
    Total Energy =                       -423.1175683495723661
  Basis Set: CC-PVTZ
  Basis Set:
  Basis Set: CC-PVTZ
  Basis Set:
  @DF-RHF Final Energy:  -423.12041616154130
    Total Energy =                       -423.1204161615409021
  Basis Set: CC-PVTZ
  Basis Set:
  Basis Set: CC-PVTZ
  Basis Set:
  @DF-RHF Final Energy:  -423.12049726077100
    Total Energy =                       -423.1204972607710033
  Basis Set: CC-PVTZ
  Basis Set:
  Basis Set: CC-PVTZ
  Basis Set:
  @DF-RHF Final Energy:  -423.12051636634396
    Total Energy =                       -423.1205163663445319
  Basis Set: CC-PVTZ
  Basis Set:
  Basis Set: CC-PVTZ
  Basis Set:
  @DF-RHF Final Energy:  -423.12051838223096
    Total Energy =                       -423.1205183822310119
  Basis Set: CC-PVTZ
  Basis Set:
  Charge       = 0
  Multiplicity = 1
  Basis Set: CC-PVTZ
  Basis Set:

    Orbital Energies (a.u.)
    -----------------------

    Doubly Occupied:

       1A    -20.585273     2A    -20.540117     3A    -11.366497
       4A    -11.282794     5A    -11.235178     6A    -11.218092
       7A    -11.216695     8A    -11.215173     9A    -11.208306
      10A     -1.465091    11A     -1.367451    12A     -1.095046
      13A     -1.043853    14A     -0.984914    15A     -0.936164
      16A     -0.847023    17A     -0.796353    18A     -0.766857
      19A     -0.698476    20A     -0.681532    21A     -0.675769
      22A     -0.651401    23A     -0.612355    24A     -0.605164
      25A     -0.576816    26A     -0.568115    27A     -0.554229
      28A     -0.530969    29A     -0.513128    30A     -0.508801
      31A     -0.485900    32A     -0.472435    33A     -0.468824
      34A     -0.466521    35A     -0.455213    36A     -0.434757

  @DF-RHF Final Energy:  -423.12051861502823

   => Energetics <=

    Nuclear Repulsion Energy =            452.4173282514332186
    One-Electron Energy =               -1472.8131255141104248
    Two-Electron Energy =                 597.2752786476493156
    DFT Exchange-Correlation Energy =       0.0000000000000000
    Empirical Dispersion Energy =           0.0000000000000000
    PCM Polarization Energy =               0.0000000000000000
    EFP Energy =                            0.0000000000000000
    Total Energy =                       -423.1205186150278905
    Molecular point group: c1
  Basis Set: CC-PVTZ
  Basis Set:

  -Total Gradient:
     Atom            X                  Y                   Z
    ------   -----------------  -----------------  -----------------
       1       -0.005699174432    -0.002886341213    -0.006920796092
       2        0.008441450765     0.003167933700     0.013782605060
       3       -0.000143893198     0.000187485960     0.000009105831
       4       -0.002601585801     0.001360842281    -0.014058169279
       5       -0.000022296322    -0.000040282082     0.000033155568
       6       -0.000004236403     0.000015092264    -0.000007881815
       7       -0.000005477626    -0.000014899661    -0.000006923353
       8        0.000002258563     0.000015539208    -0.000002251837
       9        0.000002554778    -0.000007290310    -0.000002218581
      10        0.000003810026    -0.000002184017     0.000006978964
      11        0.000002055024    -0.000008199233     0.000001668849
      12       -0.000000194798     0.000004553780    -0.000003168662
      13        0.000000790907     0.000006368990    -0.000000513761
      14       -0.000005127284     0.000004670758    -0.000000163604
      15       -0.000000717973    -0.000004406006     0.000001127592
      16        0.000001055237    -0.000005420917     0.000003860894
      17       -0.000000141607     0.000004373922    -0.000001966093
      18       -0.000001486282    -0.000005877800     0.000002083897
      19        0.000001007618     0.000004128101    -0.000002888391
      20        0.000028173755    -0.001795673981     0.007161832879
      21        0.000008805480    -0.000011257696     0.000002952831
      22       -0.000002285566     0.000014332091     0.000001149310
      23       -0.000005344861    -0.000003488137     0.000000419793

  **** Optimization is complete! (in 8 steps) ****
    Final optimized geometry and variables:
    Molecular point group: c1

    Geometry (in Angstrom), charge = 0, multiplicity = 1:

    O            1.551504178715     0.861743849503    -1.459163824157
    C            1.445461572651    -0.192756601521    -0.940645055328
    C            0.328699657529    -0.598518622229    -0.016110998779
    O            2.273673815400    -1.212647872286    -1.197326851804
    C           -0.744059155438     0.464307782403     0.169451617582
    H           -0.087697612440    -1.520676472264    -0.407812599902
    H            0.785999446362    -0.865839330130     0.932729867732
    C           -1.853476195141     0.012907400274     1.114711076338
    H           -1.164758140631     0.717706127635    -0.797280523073
    H           -0.286468662021     1.372398598390     0.545195145761
    C           -2.939415442589     1.066728000801     1.311048221912
    H           -2.306040671543    -0.899646793235     0.733240508952
    H           -1.424813284370    -0.242520448638     2.081358291689
    C           -4.048209822684     0.615519673934     2.255684490125
    H           -3.369064535120     1.321677237105     0.346426946196
    H           -2.488636719622     1.978238338272     1.693303420935
    H           -4.541987522405    -0.275685071911     1.882678847933
    H           -4.801637151059     1.385836633768     2.372575797970
    H           -3.654671359399     0.386134809769     3.240456169704
    C            3.661151172708    -0.954235735736    -1.132485449392
    H            3.940577258249    -0.159228871258    -1.807485756837
    H            4.157022936736    -1.868221154130    -1.416262667405
    H            3.945357122482    -0.689926448926    -0.121228554616

  Mulliken Charges: (a.u.)
   Center  Symbol    Alpha    Beta     Spin     Total
       1     O     4.18304  4.18304  0.00000 -0.36608
       2     C     2.79791  2.79791  0.00000  0.40418
       3     C     3.10604  3.10604  0.00000 -0.21209
       4     O     4.16060  4.16060  0.00000 -0.32120
       5     C     3.08514  3.08514  0.00000 -0.17028
       6     H     0.43720  0.43720  0.00000  0.12561
       7     H     0.44444  0.44444  0.00000  0.11112
       8     C     3.08884  3.08884  0.00000 -0.17768
       9     H     0.44594  0.44594  0.00000  0.10813
      10     H     0.44611  0.44611  0.00000  0.10778
      11     C     3.08406  3.08406  0.00000 -0.16812
      12     H     0.45527  0.45527  0.00000  0.08946
      13     H     0.45607  0.45607  0.00000  0.08785
      14     C     3.15036  3.15036  0.00000 -0.30072
      15     H     0.45303  0.45303  0.00000  0.09395
      16     H     0.45332  0.45332  0.00000  0.09335
      17     H     0.45516  0.45516  0.00000  0.08967
      18     H     0.44763  0.44763  0.00000  0.10473
      19     H     0.45545  0.45545  0.00000  0.08910
      20     C     3.03726  3.03726  0.00000 -0.07452
      21     H     0.44656  0.44656  0.00000  0.10688
      22     H     0.44565  0.44565  0.00000  0.10869
      23     H     0.46491  0.46491  0.00000  0.07018

   Total alpha = 36.00000, Total beta = 36.00000, Total charge = -0.00000

*** Psi4 exiting successfully. Buy a developer a beer!
