  ==> Input File <==

--------------------------------------------------------------------------
set {
	reference rhf
	basis cc-pvtz
}

set_num_threads( 4 )
memory 2 gb

molecule MOL {
0 1

H	 2.271421	 2.490687	 0.396765
N	 1.471633	 1.900221	 0.311288
C	 1.860978	 0.530248	 0.016256
H	 0.905557	 2.275332	 -0.420968
C	 0.644130	 -0.381765	 -0.031064
H	 2.526705	 0.197698	 0.805639
H	 2.414599	 0.438640	 -0.919194
C	 -0.678115	 0.376691	 0.025731
H	 0.693998	 -0.977147	 -0.936845
H	 0.693309	 -1.082142	 0.800523
C	 -1.900706	 -0.535531	 -0.022488
H	 -0.725296	 1.079516	 -0.802982
H	 -0.715474	 0.974884	 0.933278
C	 -3.220513	 0.226854	 0.028039
H	 -1.865036	 -1.134397	 -0.928236
H	 -1.857948	 -1.236381	 0.806820
H	 -3.309098	 0.911849	 -0.808725
H	 -4.066838	 -0.449485	 -0.008086
H	 -3.301685	 0.809374	 0.939860

	symmetry c1
}
set optking {
	frozen_dihedral = ("
		6 3 5 9
	")
}

ee = optimize('scf')
oeprop('DIPOLE', 'QUADRUPOLE', 'MULLIKEN_CHARGES')
f=open( 'psi4out.xyz', 'w' )
f.write( "19  " )
f.write( str(ee) + "\n" )
f.write( MOL.save_string_xyz() )
f.close()
--------------------------------------------------------------------------

    Molecular point group: c1
  Charge       = 0
  Multiplicity = 1
  Basis Set: CC-PVTZ
  Basis Set:
  @DF-RHF Final Energy:  -251.43553185348625
    Total Energy =                       -251.4355318534862818
    Molecular point group: c1
  Basis Set: CC-PVTZ
  Basis Set:
  Basis Set: CC-PVTZ
  Basis Set:
  @DF-RHF Final Energy:  -251.43589746002291
    Total Energy =                       -251.4358974600229431
  Basis Set: CC-PVTZ
  Basis Set:
  Basis Set: CC-PVTZ
  Basis Set:
  @DF-RHF Final Energy:  -251.43844158313081
    Total Energy =                       -251.4384415831306114
  Basis Set: CC-PVTZ
  Basis Set:
  Basis Set: CC-PVTZ
  Basis Set:
  @DF-RHF Final Energy:  -251.43867155471952
    Total Energy =                       -251.4386715547192921
  Basis Set: CC-PVTZ
  Basis Set:
  Basis Set: CC-PVTZ
  Basis Set:
  @DF-RHF Final Energy:  -251.43868367116056
    Total Energy =                       -251.4386836711606179
  Basis Set: CC-PVTZ
  Basis Set:
  Basis Set: CC-PVTZ
  Basis Set:
  @DF-RHF Final Energy:  -251.43869167316689
    Total Energy =                       -251.4386916731669999
  Basis Set: CC-PVTZ
  Basis Set:
  Basis Set: CC-PVTZ
  Basis Set:
  @DF-RHF Final Energy:  -251.43869431679880
    Total Energy =                       -251.4386943167987170
  Basis Set: CC-PVTZ
  Basis Set:
  Charge       = 0
  Multiplicity = 1
  Basis Set: CC-PVTZ
  Basis Set:

    Orbital Energies (a.u.)
    -----------------------

    Doubly Occupied:

       1A    -15.526149     2A    -11.239322     3A    -11.208576
       4A    -11.208332     5A    -11.204596     6A    -11.202691
       7A     -1.176803     8A     -1.068463     9A     -0.993495
      10A     -0.905804    11A     -0.813910    12A     -0.776330
      13A     -0.667673    14A     -0.644521    15A     -0.613955
      16A     -0.583484    17A     -0.564085    18A     -0.549776
      19A     -0.526219    20A     -0.498291    21A     -0.480454
      22A     -0.461453    23A     -0.458640    24A     -0.444844
      25A     -0.379808

  @DF-RHF Final Energy:  -251.43869433953299

   => Energetics <=

    Nuclear Repulsion Energy =            249.9426558505159335
    One-Electron Energy =                -834.3673518345822231
    Two-Electron Energy =                 332.9860016445336441
    DFT Exchange-Correlation Energy =       0.0000000000000000
    Empirical Dispersion Energy =           0.0000000000000000
    PCM Polarization Energy =               0.0000000000000000
    EFP Energy =                            0.0000000000000000
    Total Energy =                       -251.4386943395326171
    Molecular point group: c1
  Basis Set: CC-PVTZ
  Basis Set:

  -Total Gradient:
     Atom            X                  Y                   Z
    ------   -----------------  -----------------  -----------------
       1        0.000003392152     0.000002163062    -0.000000522220
       2        0.000013079949    -0.000005139517    -0.000003038801
       3        0.001250654525    -0.001704815755    -0.002645242595
       4       -0.000002702300     0.000000400501    -0.000002529290
       5        0.001449544628    -0.002170212673     0.002147368175
       6       -0.001275600691     0.001785002915     0.001914877406
       7        0.000000702239     0.000004512641     0.000000317014
       8       -0.000002553886    -0.000006931474     0.000009682462
       9       -0.001437303470     0.002102692152    -0.001399009663
      10       -0.000001864344    -0.000001689669    -0.000000856717
      11        0.000000505767    -0.000001585936    -0.000025233289
      12        0.000000871978    -0.000002645597    -0.000005875124
      13        0.000000945324    -0.000002207180     0.000000203409
      14        0.000001140509    -0.000000207966     0.000013108611
      15       -0.000001010385    -0.000002790627    -0.000003506147
      16        0.000001283308     0.000003261230    -0.000003546843
      17        0.000001943138    -0.000005019010    -0.000000421136
      18       -0.000000442344     0.000000084644     0.000004432536
      19       -0.000002586104     0.000005128255    -0.000000207788

  **** Optimization is complete! (in 8 steps) ****
    Final optimized geometry and variables:
    Molecular point group: c1

    Geometry (in Angstrom), charge = 0, multiplicity = 1:

    H            2.763121474401     2.039896390039     0.416118212170
    N            1.903989303019     1.553747674692     0.271371746390
    C            2.164739971043     0.155490004096    -0.049849319283
    H            1.428006468681     2.018606364265    -0.472071646639
    C            0.892970153779    -0.727921707208    -0.076108721304
    H            2.822741963233    -0.208854633131     0.728917662065
    H            2.696599259825     0.043619395063    -0.992548980615
    C           -0.445932962854     0.009442042348    -0.032329610638
    H            0.907329410612    -1.323682638679    -0.983440945834
    H            0.925187527858    -1.425758046968     0.753480428270
    C           -1.634875547543    -0.947382507302    -0.065652914372
    H           -0.522716735072     0.689292858524    -0.878129783562
    H           -0.498395387172     0.623404401847     0.858009302833
    C           -2.980064712663    -0.229766291092    -0.025572827343
    H           -1.582089700504    -1.562212631690    -0.960364705996
    H           -1.567823189044    -1.630940269636     0.776485973589
    H           -3.094771718356     0.434966304299    -0.875559130473
    H           -3.803195834541    -0.935066348539    -0.045033021705
    H           -3.077367987008     0.367944952933     0.874515762642

  Mulliken Charges: (a.u.)
   Center  Symbol    Alpha    Beta     Spin     Total
       1     H     0.42932  0.42932  0.00000  0.14135
       2     N     3.68798  3.68798  0.00000 -0.37597
       3     C     3.03383  3.03383  0.00000 -0.06766
       4     H     0.42910  0.42910  0.00000  0.14181
       5     C     3.09484  3.09484  0.00000 -0.18968
       6     H     0.45634  0.45634  0.00000  0.08733
       7     H     0.46171  0.46171  0.00000  0.07659
       8     C     3.08925  3.08925  0.00000 -0.17851
       9     H     0.45412  0.45412  0.00000  0.09176
      10     H     0.45347  0.45347  0.00000  0.09306
      11     C     3.08451  3.08451  0.00000 -0.16901
      12     H     0.46107  0.46107  0.00000  0.07787
      13     H     0.44252  0.44252  0.00000  0.11497
      14     C     3.15013  3.15013  0.00000 -0.30026
      15     H     0.45660  0.45660  0.00000  0.08679
      16     H     0.45505  0.45505  0.00000  0.08990
      17     H     0.45636  0.45636  0.00000  0.08729
      18     H     0.44930  0.44930  0.00000  0.10140
      19     H     0.45450  0.45450  0.00000  0.09100

   Total alpha = 25.00000, Total beta = 25.00000, Total charge = -0.00000
