  ==> Input File <==

--------------------------------------------------------------------------
set {
	reference rhf
	basis 6-31G*
}

set_num_threads( 4 )
memory 2 gb

molecule MOL {
0 1

H	 -3.420663	 1.227371	 -1.044276
O	 -3.452007	 0.283848	 -0.965577
C	 -3.181085	 -0.079926	 0.364119
C	 -1.765924	 0.277073	 0.805136
H	 -3.327791	 -1.152017	 0.410903
H	 -3.905698	 0.375695	 1.036898
C	 -0.677594	 -0.417312	 -0.014550
H	 -1.637766	 1.358238	 0.744969
H	 -1.659588	 0.017670	 1.857098
C	 0.738335	 -0.034840	 0.421385
H	 -0.814977	 -0.178223	 -1.064632
H	 -0.802730	 -1.495410	 0.071702
C	 1.641112	 0.339609	 -0.757116
H	 0.680578	 0.793827	 1.123094
H	 1.186375	 -0.865200	 0.965780
C	 3.095211	 0.645053	 -0.379681
H	 1.217606	 1.198225	 -1.275881
H	 1.635571	 -0.479350	 -1.473421
C	 3.279123	 1.894845	 0.483220
H	 3.670111	 0.766193	 -1.294616
H	 3.521518	 -0.214363	 0.134002
H	 2.850706	 2.768927	 -0.000079
H	 4.332801	 2.095115	 0.652016
H	 2.808798	 1.790473	 1.455365

	symmetry c1
}
set optking {
	frozen_dihedral = ("
		13 10 7 11
	")
}

ee = optimize('scf')
oeprop('DIPOLE', 'QUADRUPOLE', 'MULLIKEN_CHARGES')
f=open( 'psi4out.xyz', 'w' )
f.write( "24  " )
f.write( str(ee) + "\n" )
f.write( MOL.save_string_xyz() )
f.close()
--------------------------------------------------------------------------

    Molecular point group: c1
  Charge       = 0
  Multiplicity = 1
  Basis Set: 6-31G*
  Basis Set:
  @DF-RHF Final Energy:  -349.24248906713035
    Total Energy =                       -349.2424890671304638
    Molecular point group: c1
  Basis Set: 6-31G*
  Basis Set:
  Basis Set: 6-31G*
  Basis Set:
  @DF-RHF Final Energy:  -349.24271918498101
    Total Energy =                       -349.2427191849809560
  Basis Set: 6-31G*
  Basis Set:
  Basis Set: 6-31G*
  Basis Set:
  @DF-RHF Final Energy:  -349.24278628618742
    Total Energy =                       -349.2427862861877657
  Basis Set: 6-31G*
  Basis Set:
  Basis Set: 6-31G*
  Basis Set:
  @DF-RHF Final Energy:  -349.24278055608886
    Total Energy =                       -349.2427805560888032
  Basis Set: 6-31G*
  Basis Set:
  Basis Set: 6-31G*
  Basis Set:
  @DF-RHF Final Energy:  -349.24278625788344
    Total Energy =                       -349.2427862578828126
  Basis Set: 6-31G*
  Basis Set:
  Basis Set: 6-31G*
  Basis Set:
  @DF-RHF Final Energy:  -349.24278803009224
    Total Energy =                       -349.2427880300919583
  Basis Set: 6-31G*
  Basis Set:
  Charge       = 0
  Multiplicity = 1
  Basis Set: 6-31G*
  Basis Set:

    Orbital Energies (a.u.)
    -----------------------

    Doubly Occupied:

       1A    -20.553586     2A    -11.267543     3A    -11.217957
       4A    -11.214034     5A    -11.212426     6A    -11.211813
       7A    -11.210822     8A    -11.207792     9A     -1.360131
      10A     -1.087011    11A     -1.047998    12A     -0.984796
      13A     -0.914769    14A     -0.851334    15A     -0.802588
      16A     -0.776378    17A     -0.679781    18A     -0.643078
      19A     -0.630875    20A     -0.616247    21A     -0.600228
      22A     -0.587683    23A     -0.553237    24A     -0.544355
      25A     -0.514005    26A     -0.509891    27A     -0.499446
      28A     -0.473658    29A     -0.466651    30A     -0.459378
      31A     -0.452054    32A     -0.450450    33A     -0.418285

  @DF-RHF Final Energy:  -349.24278807117764

   => Energetics <=

    Nuclear Repulsion Energy =            385.7002931135149311
    One-Electron Energy =               -1237.8456029720784954
    Two-Electron Energy =                 502.9025217873855809
    DFT Exchange-Correlation Energy =       0.0000000000000000
    Empirical Dispersion Energy =           0.0000000000000000
    PCM Polarization Energy =               0.0000000000000000
    EFP Energy =                            0.0000000000000000
    Total Energy =                       -349.2427880711779835
    Molecular point group: c1
  Basis Set: 6-31G*
  Basis Set:

  -Total Gradient:
     Atom            X                  Y                   Z
    ------   -----------------  -----------------  -----------------
       1       -0.000001722701     0.000002104731    -0.000006571863
       2        0.000005945681     0.000021292293    -0.000005230923
       3        0.000010132195    -0.000027791857    -0.000001832762
       4       -0.000036583132     0.000026586429     0.000019369353
       5        0.000000150902    -0.000008263389     0.000013972338
       6        0.000017704333     0.000003677634     0.000000917845
       7       -0.001307464163     0.003828634748     0.000870250087
       8       -0.000004277809     0.000009053141     0.000003162502
       9       -0.000009668606     0.000001386119     0.000004631984
      10        0.000995544384    -0.003248119081    -0.000359856402
      11        0.000868712895    -0.002528570781    -0.000670861588
      12        0.000001095124     0.000011509701    -0.000014127849
      13       -0.000533816947     0.001912530488     0.000141267532
      14        0.000002781372    -0.000009567885     0.000004239245
      15        0.000003897519     0.000008765167     0.000009694586
      16       -0.000006498902    -0.000007408485     0.000006845144
      17        0.000010674805     0.000005759053    -0.000012071331
      18       -0.000000038500    -0.000000218033    -0.000003499694
      19       -0.000006148043     0.000005152850    -0.000002040062
      20       -0.000011192066    -0.000000281167     0.000001576649
      21        0.000000061642    -0.000007535137    -0.000002316499
      22       -0.000001316182    -0.000000889978     0.000002376357
      23        0.000000108005     0.000001500572    -0.000001774507
      24        0.000001918195     0.000000692869     0.000001879859

  **** Optimization is complete! (in 7 steps) ****
    Final optimized geometry and variables:
    Molecular point group: c1

    Geometry (in Angstrom), charge = 0, multiplicity = 1:

    H           -3.363166707878     0.805658091541    -1.034317018607
    O           -3.382354288642    -0.136861280286    -0.941318475829
    C           -3.096611891623    -0.477421602748     0.391514418099
    C           -1.685314829399    -0.090294346745     0.817625270977
    H           -3.224503166232    -1.551057454344     0.453990348810
    H           -3.824408988160    -0.025037923958     1.063018515711
    C           -0.590138981890    -0.766756952208    -0.007390207306
    H           -1.576744432625     0.992704345037     0.750096908576
    H           -1.563553132590    -0.341318768362     1.870079940097
    C            0.841016272701    -0.389286420376     0.432322545247
    H           -0.732170690615    -0.534650180232    -1.057603694616
    H           -0.718172131927    -1.844812685834     0.063301690332
    C            1.753840746179    -0.025809462608    -0.742941522582
    H            0.795204019453     0.452437760117     1.118352277977
    H            1.284750406583    -1.206979186367     0.995202102242
    C            3.210145017796     0.261354566331    -0.361751438951
    H            1.339452133077     0.838662253856    -1.259678793099
    H            1.739558019596    -0.842413208596    -1.462166641464
    C            3.407170533140     1.503255173200     0.509846230410
    H            3.787506029008     0.382037746407    -1.275176870574
    H            3.626138750980    -0.606174211190     0.146739214982
    H            2.986280285402     2.384903760667     0.033573728875
    H            4.462967802285     1.692510747536     0.677966862475
    H            2.937784287110     1.396526677062     1.482151175707

  Mulliken Charges: (a.u.)
   Center  Symbol    Alpha    Beta     Spin     Total
       1     H     0.28336  0.28336  0.00000  0.43327
       2     O     4.36824  4.36824  0.00000 -0.73649
       3     C     2.99681  2.99681  0.00000  0.00638
       4     C     3.17072  3.17072  0.00000 -0.34145
       5     H     0.41627  0.41627  0.00000  0.16746
       6     H     0.42813  0.42813  0.00000  0.14373
       7     C     3.15526  3.15526  0.00000 -0.31053
       8     H     0.42803  0.42803  0.00000  0.14393
       9     H     0.42180  0.42180  0.00000  0.15641
      10     C     3.15666  3.15666  0.00000 -0.31331
      11     H     0.40944  0.40944  0.00000  0.18112
      12     H     0.42147  0.42147  0.00000  0.15705
      13     C     3.15398  3.15398  0.00000 -0.30796
      14     H     0.42114  0.42114  0.00000  0.15771
      15     H     0.42158  0.42158  0.00000  0.15685
      16     C     3.15299  3.15299  0.00000 -0.30598
      17     H     0.42497  0.42497  0.00000  0.15006
      18     H     0.42094  0.42094  0.00000  0.15813
      19     C     3.24115  3.24115  0.00000 -0.48230
      20     H     0.42107  0.42107  0.00000  0.15786
      21     H     0.42341  0.42341  0.00000  0.15317
      22     H     0.42291  0.42291  0.00000  0.15419
      23     H     0.41936  0.41936  0.00000  0.16128
      24     H     0.42030  0.42030  0.00000  0.15939

   Total alpha = 33.00000, Total beta = 33.00000, Total charge = -0.00000
