  ==> Input File <==

--------------------------------------------------------------------------
set {
	reference rhf
	basis 6-31G*
}

set_num_threads( 4 )
memory 2 gb

molecule MOL {
0 1

H	 2.840794	 -0.383337	 0.272257
O	 2.002060	 -0.834023	 0.286172
C	 1.050492	 0.053836	 0.000068
C	 -0.318135	 -0.576402	 0.000164
O	 1.296128	 1.194660	 -0.221694
C	 -1.454360	 0.441875	 -0.000474
H	 -0.374042	 -1.230163	 -0.866135
H	 -0.374274	 -1.229227	 0.867154
C	 -2.826123	 -0.230780	 0.000056
H	 -1.357605	 1.085198	 -0.868380
H	 -1.357504	 1.086451	 0.866496
H	 -2.959731	 -0.858053	 -0.876869
H	 -3.619374	 0.509403	 -0.000080
H	 -2.959371	 -0.857318	 0.877556

	symmetry c1
}
set optking {
	frozen_dihedral = ("
		2 3 4 7
	")
}

ee = optimize('scf')
oeprop('DIPOLE', 'QUADRUPOLE', 'MULLIKEN_CHARGES')
f=open( 'psi4out.xyz', 'w' )
f.write( "14  " )
f.write( str(ee) + "\n" )
f.write( MOL.save_string_xyz() )
f.close()
--------------------------------------------------------------------------

    Molecular point group: c1
  Charge       = 0
  Multiplicity = 1
  Basis Set: 6-31G*
  Basis Set:
  @DF-RHF Final Energy:  -305.88066759330718
    Total Energy =                       -305.8806675933072938
    Molecular point group: c1
  Basis Set: 6-31G*
  Basis Set:
  Basis Set: 6-31G*
  Basis Set:
  @DF-RHF Final Energy:  -305.88067193223765
    Total Energy =                       -305.8806719322375329
  Basis Set: 6-31G*
  Basis Set:
  Basis Set: 6-31G*
  Basis Set:
  @DF-RHF Final Energy:  -305.88059880231390
    Total Energy =                       -305.8805988023136706
  Basis Set: 6-31G*
  Basis Set:
  Basis Set: 6-31G*
  Basis Set:
  @DF-RHF Final Energy:  -305.88072690451077
    Total Energy =                       -305.8807269045105954
  Basis Set: 6-31G*
  Basis Set:
  Charge       = 0
  Multiplicity = 1
  Basis Set: 6-31G*
  Basis Set:

    Orbital Energies (a.u.)
    -----------------------

    Doubly Occupied:

       1A    -20.613422     2A    -20.551948     3A    -11.381814
       4A    -11.241304     5A    -11.225943     6A    -11.217229
       7A     -1.475312     8A     -1.366240     9A     -1.083213
      10A     -0.979624    11A     -0.857236    12A     -0.791842
      13A     -0.700373    14A     -0.688882    15A     -0.666422
      16A     -0.616219    17A     -0.593963    18A     -0.572798
      19A     -0.545927    20A     -0.505547    21A     -0.491531
      22A     -0.482568    23A     -0.478829    24A     -0.444462

  @DF-RHF Final Energy:  -305.88072750797699

   => Energetics <=

    Nuclear Repulsion Energy =            239.9628862914808849
    One-Electron Energy =                -892.5419299594861968
    Two-Electron Energy =                 346.6983161600282983
    DFT Exchange-Correlation Energy =       0.0000000000000000
    Empirical Dispersion Energy =           0.0000000000000000
    PCM Polarization Energy =               0.0000000000000000
    EFP Energy =                            0.0000000000000000
    Total Energy =                       -305.8807275079769852
    Molecular point group: c1
  Basis Set: 6-31G*
  Basis Set:

  -Total Gradient:
     Atom            X                  Y                   Z
    ------   -----------------  -----------------  -----------------
       1       -0.000005559408     0.000003324795    -0.000006068676
       2       -0.000041398246     0.000082869456     0.000529712252
       3        0.000008947882     0.000001241288    -0.000762719750
       4        0.000255567173    -0.000550309264     0.000588916414
       5       -0.000008157663    -0.000019552047     0.000005116084
       6        0.000005091888     0.000002196999    -0.000023060548
       7       -0.000221079363     0.000479070587    -0.000346747782
       8        0.000003687904     0.000003934461    -0.000006294821
       9        0.000000200813    -0.000003383857     0.000012965258
      10       -0.000000321000    -0.000003469748     0.000001338437
      11        0.000000650564     0.000004564545     0.000006317420
      12        0.000002951510     0.000000739136    -0.000001276007
      13        0.000004199342     0.000001075017     0.000002081096
      14       -0.000004781405    -0.000002301372    -0.000000279378

  **** Optimization is complete! (in 5 steps) ****
    Final optimized geometry and variables:
    Molecular point group: c1

    Geometry (in Angstrom), charge = 0, multiplicity = 1:

    H            2.846993638291    -0.384394661387     0.218725972467
    O            2.008410902552    -0.833661611196     0.261424381130
    C            1.050649387365     0.052002463790    -0.009247577403
    C           -0.317331001361    -0.580112370881     0.004048507811
    O            1.290855579048     1.192538166248    -0.238850128763
    C           -1.453025285283     0.439708306167    -0.010852567592
    H           -0.372263741256    -1.227921704062    -0.868190680250
    H           -0.378379008585    -1.233290582072     0.868491024109
    C           -2.825360679523    -0.231533742916    -0.023819554449
    H           -1.344352163304     1.081522631257    -0.877598298416
    H           -1.366691731300     1.084915337375     0.857691536659
    H           -2.950214732729    -0.858410224219    -0.902335643988
    H           -3.617784966306     0.509489943475    -0.032338664311
    H           -2.968548243573    -0.858126770379     0.852024435141

  Mulliken Charges: (a.u.)
   Center  Symbol    Alpha    Beta     Spin     Total
       1     H     0.26784  0.26784  0.00000  0.46432
       2     O     4.35101  4.35101  0.00000 -0.70201
       3     C     2.62290  2.62290  0.00000  0.75421
       4     C     3.20962  3.20962  0.00000 -0.41924
       5     O     4.27925  4.27925  0.00000 -0.55849
       6     C     3.15317  3.15317  0.00000 -0.30634
       7     H     0.39847  0.39847  0.00000  0.20307
       8     H     0.39905  0.39905  0.00000  0.20190
       9     C     3.24282  3.24282  0.00000 -0.48565
      10     H     0.40715  0.40715  0.00000  0.18569
      11     H     0.41274  0.41274  0.00000  0.17453
      12     H     0.42074  0.42074  0.00000  0.15853
      13     H     0.41445  0.41445  0.00000  0.17110
      14     H     0.42080  0.42080  0.00000  0.15840

   Total alpha = 24.00000, Total beta = 24.00000, Total charge =  0.00000
