  ==> Input File <==

--------------------------------------------------------------------------
set {
	reference rhf
	basis cc-pvtz
}

set_num_threads( 4 )
memory 2 gb

molecule MOL {
0 1

H	 -1.516470	 3.315382	 1.707599
O	 -1.320748	 2.437420	 1.437545
C	 -0.260281	 2.439980	 0.516990
C	 0.027642	 1.012027	 0.090274
H	 0.633194	 2.861633	 0.970508
H	 -0.507470	 3.054176	 -0.344476
C	 -1.138737	 0.285728	 -0.581921
H	 0.329944	 0.454049	 0.970490
H	 0.883612	 1.029939	 -0.579957
C	 -1.933983	 -0.631436	 0.343653
H	 -0.763151	 -0.285569	 -1.422081
H	 -1.808359	 1.035291	 -0.992333
H	 -2.789188	 -1.049673	 -0.174718
H	 -1.335629	 -1.461368	 0.700418
H	 -2.305435	 -0.092167	 1.209725

	symmetry c1
}
set optking {
	frozen_dihedral = ("
		8 4 7 11
	")
}

ee = optimize('scf')
oeprop('DIPOLE', 'QUADRUPOLE', 'MULLIKEN_CHARGES')
f=open( 'psi4out.xyz', 'w' )
f.write( "15  " )
f.write( str(ee) + "\n" )
f.write( MOL.save_string_xyz() )
f.close()
--------------------------------------------------------------------------

    Molecular point group: c1
  Charge       = 0
  Multiplicity = 1
  Basis Set: CC-PVTZ
  Basis Set:
  @DF-RHF Final Energy:  -232.23468379606351
    Total Energy =                       -232.2346837960633934
    Molecular point group: c1
  Basis Set: CC-PVTZ
  Basis Set:
  Basis Set: CC-PVTZ
  Basis Set:
  @DF-RHF Final Energy:  -232.23502904989812
    Total Energy =                       -232.2350290498980030
  Basis Set: CC-PVTZ
  Basis Set:
  Basis Set: CC-PVTZ
  Basis Set:
  @DF-RHF Final Energy:  -232.23506779969574
    Total Energy =                       -232.2350677996955710
  Basis Set: CC-PVTZ
  Basis Set:
  Charge       = 0
  Multiplicity = 1
  Basis Set: CC-PVTZ
  Basis Set:

    Orbital Energies (a.u.)
    -----------------------

    Doubly Occupied:

       1A    -20.547564     2A    -11.266528     3A    -11.210972
       4A    -11.208442     5A    -11.195642     6A     -1.365388
       7A     -1.062689     8A     -0.972592     9A     -0.858027
      10A     -0.784031    11A     -0.708716    12A     -0.643675
      13A     -0.602575    14A     -0.590511    15A     -0.547976
      16A     -0.536215    17A     -0.508767    18A     -0.472814
      19A     -0.465635    20A     -0.452278    21A     -0.433337

  @DF-RHF Final Energy:  -232.23506856243029

   => Energetics <=

    Nuclear Repulsion Energy =            191.9757124238789743
    One-Electron Energy =                -695.5528104149991577
    Two-Electron Energy =                 271.3420294286901253
    DFT Exchange-Correlation Energy =       0.0000000000000000
    Empirical Dispersion Energy =           0.0000000000000000
    PCM Polarization Energy =               0.0000000000000000
    EFP Energy =                            0.0000000000000000
    Total Energy =                       -232.2350685624300581
    Molecular point group: c1
  Basis Set: CC-PVTZ
  Basis Set:

  -Total Gradient:
     Atom            X                  Y                   Z
    ------   -----------------  -----------------  -----------------
       1        0.000016775182    -0.000003647356    -0.000008979509
       2       -0.000082583061     0.000006075406     0.000010625807
       3        0.000109379694     0.000025070292     0.000099186830
       4        0.001430861863    -0.000858487205    -0.001631149980
       5        0.000022690182     0.000017006819    -0.000014691366
       6       -0.000001884101    -0.000032300294    -0.000016149884
       7       -0.000006169725    -0.001605027257     0.001687876402
       8       -0.001211696125     0.001029316834     0.001043886170
       9       -0.000013556045     0.000010864162     0.000006173908
      10       -0.000038817537    -0.000052616172    -0.000030374016
      11       -0.000260967904     0.001462294031    -0.001123902126
      12        0.000009547253     0.000010252237    -0.000019871304
      13       -0.000002819709    -0.000006898136    -0.000003268605
      14        0.000007826567    -0.000002566636     0.000012193239
      15        0.000021413467     0.000000663279    -0.000011555569

  **** Optimization is complete! (in 4 steps) ****
    Final optimized geometry and variables:
    Molecular point group: c1

    Geometry (in Angstrom), charge = 0, multiplicity = 1:

    H           -0.573989424720     2.160488114121     1.304192678164
    O           -0.357868917572     1.279746388848     1.060115777368
    C            0.685213372914     1.280826405089     0.119944420416
    C            0.978344830261    -0.145089021921    -0.307724468359
    H            1.580845443946     1.722682289190     0.549967491794
    H            0.409367119399     1.874536497234    -0.749224558428
    C           -0.204708092350    -0.854314086028    -0.990254099469
    H            1.285160429435    -0.700250183548     0.572960108384
    H            1.832154650331    -0.111438131376    -0.976553312092
    C           -1.000461750485    -1.768888597698    -0.064100577887
    H            0.161211751006    -1.427636759148    -1.835804943478
    H           -0.871983763344    -0.107722345939    -1.410284750090
    H           -1.830481100158    -2.227242891914    -0.590683578913
    H           -0.374825789237    -2.566918057663     0.322793747128
    H           -1.395771572880    -1.216007904378     0.777715799844

  Mulliken Charges: (a.u.)
   Center  Symbol    Alpha    Beta     Spin     Total
       1     H     0.39677  0.39677  0.00000  0.20645
       2     O     4.19757  4.19757  0.00000 -0.39514
       3     C     2.97237  2.97237  0.00000  0.05525
       4     C     3.09642  3.09642  0.00000 -0.19285
       5     H     0.46569  0.46569  0.00000  0.06862
       6     H     0.47433  0.47433  0.00000  0.05134
       7     C     3.08309  3.08309  0.00000 -0.16618
       8     H     0.45323  0.45323  0.00000  0.09354
       9     H     0.44760  0.44760  0.00000  0.10480
      10     C     3.14694  3.14694  0.00000 -0.29388
      11     H     0.45068  0.45068  0.00000  0.09863
      12     H     0.45725  0.45725  0.00000  0.08549
      13     H     0.45313  0.45313  0.00000  0.09373
      14     H     0.45899  0.45899  0.00000  0.08202
      15     H     0.44591  0.44591  0.00000  0.10817

   Total alpha = 21.00000, Total beta = 21.00000, Total charge =  0.00000
