  ==> Input File <==

--------------------------------------------------------------------------
set {
	reference rhf
	basis 6-31G*
}

set_num_threads( 1 )
memory 2 gb

molecule MOL {
0 1

H	 2.542190	 -0.740177	 0.784140
O	 2.016064	 -0.864478	 0.000222
C	 1.050492	 0.053836	 0.000068
C	 -0.318135	 -0.576402	 0.000164
O	 1.285279	 1.218255	 -0.000078
C	 -1.454360	 0.441875	 -0.000474
H	 -0.374042	 -1.230163	 -0.866135
H	 -0.374274	 -1.229227	 0.867154
C	 -2.826123	 -0.230780	 0.000056
H	 -1.357605	 1.085198	 -0.868380
H	 -1.357504	 1.086451	 0.866496
H	 -2.959731	 -0.858053	 -0.876869
H	 -3.619374	 0.509403	 -0.000080
H	 -2.959371	 -0.857318	 0.877556

	symmetry c1
}
set optking {
	frozen_dihedral = ("
		7 4 6 10,
		2 3 4 7
	")
}

ee = energy('scf')
oeprop('DIPOLE', 'QUADRUPOLE', 'MULLIKEN_CHARGES')
f=open( 'psi4out.xyz', 'w' )
f.write( "14  " )
f.write( str(ee) + "\n" )
f.write( MOL.save_string_xyz() )
f.close()
--------------------------------------------------------------------------

    Molecular point group: c1

    Geometry (in Angstrom), charge = 0, multiplicity = 1:

       Center              X                  Y                   Z               Mass
    ------------   -----------------  -----------------  -----------------  -----------------
           H          2.545760272404    -0.736424856849     0.775167082682     1.007825032070
           O          2.019634272404    -0.860725856849    -0.008750917318    15.994914619560
           C          1.054062272404     0.057588143151    -0.008904917318    12.000000000000
           C         -0.314564727596    -0.572649856849    -0.008808917318    12.000000000000
           O          1.288849272404     1.222007143151    -0.009050917318    15.994914619560
           C         -1.450789727596     0.445627143151    -0.009446917318    12.000000000000
           H         -0.370471727596    -1.226410856849    -0.875107917318     1.007825032070
           H         -0.370703727596    -1.225474856849     0.858181082682     1.007825032070
           C         -2.822552727596    -0.227027856849    -0.008916917318    12.000000000000
           H         -1.354034727596     1.088950143151    -0.877352917318     1.007825032070
           H         -1.353933727596     1.090203143151     0.857523082682     1.007825032070
           H         -2.956160727596    -0.854300856849    -0.885841917318     1.007825032070
           H         -3.615803727596     0.513155143151    -0.009052917318     1.007825032070
           H         -2.955800727596    -0.853565856849     0.868583082682     1.007825032070

  Charge       = 0
  Multiplicity = 1
  Basis Set: 6-31G*
  Basis Set:

    Orbital Energies (a.u.)
    -----------------------

    Doubly Occupied:

       1A    -20.601965     2A    -20.557748     3A    -11.380725
       4A    -11.240975     5A    -11.225165     6A    -11.217234
       7A     -1.471170     8A     -1.367625     9A     -1.082501
      10A     -0.977337    11A     -0.854266    12A     -0.795167
      13A     -0.707500    14A     -0.683921    15A     -0.665402
      16A     -0.630259    17A     -0.578720    18A     -0.563105
      19A     -0.543824    20A     -0.503588    21A     -0.494905
      22A     -0.482682    23A     -0.478438    24A     -0.444438

  @DF-RHF Final Energy:  -305.86438709805225

   => Energetics <=

    Nuclear Repulsion Energy =            239.9823388191735205
    One-Electron Energy =                -892.5964009199609563
    Two-Electron Energy =                 346.7496750027356143
    DFT Exchange-Correlation Energy =       0.0000000000000000
    Empirical Dispersion Energy =           0.0000000000000000
    PCM Polarization Energy =               0.0000000000000000
    EFP Energy =                            0.0000000000000000
    Total Energy =                       -305.8643870980518500

  Mulliken Charges: (a.u.)
   Center  Symbol    Alpha    Beta     Spin     Total
       1     H     0.26500  0.26500  0.00000  0.47000
       2     O     4.35620  4.35620  0.00000 -0.71240
       3     C     2.63361  2.63361  0.00000  0.73278
       4     C     3.20781  3.20781  0.00000 -0.41561
       5     O     4.26038  4.26038  0.00000 -0.52075
       6     C     3.15305  3.15305  0.00000 -0.30611
       7     H     0.39814  0.39814  0.00000  0.20372
       8     H     0.40493  0.40493  0.00000  0.19014
       9     C     3.24269  3.24269  0.00000 -0.48537
      10     H     0.40944  0.40944  0.00000  0.18112
      11     H     0.41182  0.41182  0.00000  0.17637
      12     H     0.42058  0.42058  0.00000  0.15884
      13     H     0.41459  0.41459  0.00000  0.17083
      14     H     0.42177  0.42177  0.00000  0.15645

   Total alpha = 24.00000, Total beta = 24.00000, Total charge = -0.00000
