  ==> Input File <==

--------------------------------------------------------------------------
set {
	reference rhf
	basis 6-31G*
}

set_num_threads( 4 )
memory 2 gb

molecule MOL {
0 1

O	 1.846825	 1.296220	 0.000415
C	 1.705091	 0.115954	 0.001797
C	 0.381791	 -0.609817	 0.001258
O	 2.721346	 -0.737485	 -0.000216
C	 -0.823008	 0.326187	 0.001381
H	 0.371250	 -1.265087	 -0.865474
H	 0.370908	 -1.265746	 0.867490
C	 -2.149452	 -0.435131	 -0.000098
H	 -0.770201	 0.977095	 -0.865636
H	 -0.771220	 0.975655	 0.869608
C	 -3.368779	 0.488503	 -0.000883
H	 -2.193746	 -1.087250	 -0.871175
H	 -2.195311	 -1.087803	 0.870418
C	 -2.996993	 1.967213	 -0.103076
H	 -3.945569	 0.322748	 0.906299
H	 -4.020894	 0.221716	 -0.829562
H	 -2.372489	 2.273377	 0.731474
H	 -3.881968	 2.595916	 -0.101489
H	 -2.447967	 2.171456	 -1.018044
C	 4.024888	 -0.184556	 -0.001949
H	 4.179030	 0.422472	 -0.882452
H	 4.701782	 -1.024608	 -0.003642
H	 4.181981	 0.421185	 0.878906

	symmetry c1
}
set optking {
	frozen_dihedral = ("
		15 11 8 12
	")
}

ee = optimize('scf')
oeprop('DIPOLE', 'QUADRUPOLE', 'MULLIKEN_CHARGES')
f=open( 'psi4out.xyz', 'w' )
f.write( "23  " )
f.write( str(ee) + "\n" )
f.write( MOL.save_string_xyz() )
f.close()
--------------------------------------------------------------------------

    Molecular point group: c1
  Charge       = 0
  Multiplicity = 1
  Basis Set: 6-31G*
  Basis Set:
  @DF-RHF Final Energy:  -422.96203785414406
    Total Energy =                       -422.9620378541440004
    Molecular point group: c1
  Basis Set: 6-31G*
  Basis Set:
  Basis Set: 6-31G*
  Basis Set:
  @DF-RHF Final Energy:  -422.96213140928489
    Total Energy =                       -422.9621314092844386
  Basis Set: 6-31G*
  Basis Set:
  Basis Set: 6-31G*
  Basis Set:
  @DF-RHF Final Energy:  -422.96592272374056
    Total Energy =                       -422.9659227237406185
  Basis Set: 6-31G*
  Basis Set:
  Basis Set: 6-31G*
  Basis Set:
  @DF-RHF Final Energy:  -422.96651316978875
    Total Energy =                       -422.9665131697886409
  Basis Set: 6-31G*
  Basis Set:
  @DF-RHF Final Energy:  -422.96650318743912
    Total Energy =                       -422.9665031874385477
  Basis Set: 6-31G*
  Basis Set:
  @DF-RHF Final Energy:  -422.96552015592061
    Total Energy =                       -422.9655201559205580
  Basis Set: 6-31G*
  Basis Set:
  Basis Set: 6-31G*
  Basis Set:
  @DF-RHF Final Energy:  -422.96660165898868
    Total Energy =                       -422.9666016589885658
  Basis Set: 6-31G*
  Basis Set:
  Basis Set: 6-31G*
  Basis Set:
  @DF-RHF Final Energy:  -422.96660323089600
    Total Energy =                       -422.9666032308953163
  Basis Set: 6-31G*
  Basis Set:
  Charge       = 0
  Multiplicity = 1
  Basis Set: 6-31G*
  Basis Set:

    Orbital Energies (a.u.)
    -----------------------

    Doubly Occupied:

       1A    -20.603552     2A    -20.545341     3A    -11.372159
       4A    -11.280799     5A    -11.235326     6A    -11.219002
       7A    -11.218213     8A    -11.216899     9A    -11.207380
      10A     -1.469239    11A     -1.362673    12A     -1.090647
      13A     -1.039145    14A     -0.984897    15A     -0.930851
      16A     -0.860339    17A     -0.778775    18A     -0.765203
      19A     -0.696191    20A     -0.683675    21A     -0.672038
      22A     -0.648495    23A     -0.606279    24A     -0.597853
      25A     -0.591741    26A     -0.555901    27A     -0.535997
      28A     -0.525294    29A     -0.520312    30A     -0.514575
      31A     -0.495524    32A     -0.463828    33A     -0.462476
      34A     -0.457457    35A     -0.446711    36A     -0.435495

  @DF-RHF Final Energy:  -422.96660323504335

   => Energetics <=

    Nuclear Repulsion Energy =            457.9578585545913825
    One-Electron Energy =               -1483.6683646072235661
    Two-Electron Energy =                 602.7439028175883777
    DFT Exchange-Correlation Energy =       0.0000000000000000
    Empirical Dispersion Energy =           0.0000000000000000
    PCM Polarization Energy =               0.0000000000000000
    EFP Energy =                            0.0000000000000000
    Total Energy =                       -422.9666032350437490
    Molecular point group: c1
  Basis Set: 6-31G*
  Basis Set:

  -Total Gradient:
     Atom            X                  Y                   Z
    ------   -----------------  -----------------  -----------------
       1        0.000004230777    -0.000014277240     0.000020927773
       2        0.000000380297     0.000003732162    -0.000074250186
       3       -0.000008080283    -0.000007856341    -0.000000183652
       4       -0.000003377434     0.000011482642     0.000016233109
       5        0.000017080657    -0.000019658670     0.000069660602
       6        0.000017083808    -0.000000969459     0.000005116102
       7       -0.000009602790    -0.000005557672     0.000000327070
       8        0.001109565427     0.001647203194    -0.001874533652
       9       -0.000023581697     0.000010752843    -0.000008981953
      10        0.000024824050    -0.000024455455    -0.000008162378
      11        0.001194236498     0.001798500810     0.001657569467
      12       -0.001074138684    -0.001700805987     0.001310209238
      13        0.000006341693     0.000020440811    -0.000016561565
      14       -0.000021400302     0.000012391797     0.000008035555
      15       -0.001219920260    -0.001748616031    -0.001100542454
      16        0.000009207815     0.000025753890     0.000020086517
      17       -0.000042419400     0.000000632230    -0.000010370303
      18       -0.000008513078    -0.000007016466    -0.000005864190
      19        0.000021072927     0.000000219304    -0.000010066004
      20        0.000003308625    -0.000003374525    -0.000001376476
      21       -0.000001205813    -0.000000364078     0.000000834994
      22        0.000002862242     0.000001263458     0.000001203232
      23        0.000002044921     0.000000578779     0.000000689150

  **** Optimization is complete! (in 9 steps) ****
    Final optimized geometry and variables:
    Molecular point group: c1

    Geometry (in Angstrom), charge = 0, multiplicity = 1:

    O            1.728036473287     1.012427530713     0.049308786009
    C            1.551664658914    -0.162756343744     0.018235334471
    C            0.207736882250    -0.849472832115    -0.001232339333
    O            2.542514647345    -1.045348797239    -0.003396449381
    C           -0.968925681688     0.122150569506     0.021419803627
    H            0.179513586207    -1.482249996441    -0.884153789037
    H            0.176987280413    -1.526565942328     0.848088614274
    C           -2.306134247865    -0.624120933515     0.002212873116
    H           -0.889312310370     0.790603382025    -0.827972352730
    H           -0.894125044107     0.744623946559     0.906179819656
    C           -3.596476611178     0.242239384507     0.029204342879
    H           -2.334652320793    -1.276091008298    -0.867450021813
    H           -2.327525308171    -1.297552897464     0.855951065945
    C           -3.426898633045     1.755893009751    -0.123580964478
    H           -4.138319047000     0.041245272767     0.948720019300
    H           -4.254949990946    -0.100557627317    -0.763990450148
    H           -2.829141569840     2.184273199235     0.673479406963
    H           -4.398913780303     2.238942473134    -0.098245525374
    H           -2.958296411038     2.017363990382    -1.066736012674
    C            3.861724056167    -0.531097793304     0.011872869250
    H            4.036312262408     0.093214952991    -0.852573928441
    H            4.513726080352    -1.390403145298    -0.009660056799
    H            4.033875053521     0.047222637721     0.908217172283

  Mulliken Charges: (a.u.)
   Center  Symbol    Alpha    Beta     Spin     Total
       1     O     4.28618  4.28618  0.00000 -0.57237
       2     C     2.60492  2.60492  0.00000  0.79016
       3     C     3.20812  3.20812  0.00000 -0.41624
       4     O     4.30728  4.30728  0.00000 -0.61455
       5     C     3.15427  3.15427  0.00000 -0.30854
       6     H     0.40076  0.40076  0.00000  0.19847
       7     H     0.40079  0.40079  0.00000  0.19842
       8     C     3.15929  3.15929  0.00000 -0.31858
       9     H     0.41011  0.41011  0.00000  0.17978
      10     H     0.41093  0.41093  0.00000  0.17814
      11     C     3.15510  3.15510  0.00000 -0.31021
      12     H     0.42170  0.42170  0.00000  0.15659
      13     H     0.42180  0.42180  0.00000  0.15641
      14     C     3.24267  3.24267  0.00000 -0.48534
      15     H     0.42004  0.42004  0.00000  0.15993
      16     H     0.42024  0.42024  0.00000  0.15952
      17     H     0.41802  0.41802  0.00000  0.16397
      18     H     0.41906  0.41906  0.00000  0.16187
      19     H     0.41966  0.41966  0.00000  0.16067
      20     C     3.09243  3.09243  0.00000 -0.18487
      21     H     0.40909  0.40909  0.00000  0.18182
      22     H     0.40843  0.40843  0.00000  0.18314
      23     H     0.40910  0.40910  0.00000  0.18181

   Total alpha = 36.00000, Total beta = 36.00000, Total charge =  0.00000
