  ==> Input File <==

--------------------------------------------------------------------------
set {
	reference rhf
	basis 6-31G*
}

set_num_threads( 4 )
memory 2 gb

molecule MOL {
0 1

H	 -2.710738	 -1.081226	 -2.901802
O	 -2.604550	 -0.994005	 -1.965308
C	 -1.312120	 -0.525206	 -1.678174
C	 -1.177863	 -0.397191	 -0.171080
H	 -0.560704	 -1.213735	 -2.062374
H	 -1.141163	 0.440967	 -2.151063
C	 0.198102	 0.111031	 0.262842
H	 -1.375454	 -1.368807	 0.273496
H	 -1.954964	 0.273122	 0.185673
C	 1.331804	 -0.827780	 -0.158768
H	 0.361943	 1.100838	 -0.156218
H	 0.217265	 0.229072	 1.345532
C	 2.723619	 -0.410569	 0.329459
H	 1.342964	 -0.912588	 -1.244120
H	 1.116806	 -1.824343	 0.220779
C	 3.243875	 0.895854	 -0.272975
H	 3.424222	 -1.207124	 0.091250
H	 2.714788	 -0.329854	 1.414619
H	 3.251977	 0.848779	 -1.358681
H	 2.637085	 1.747371	 0.016682
H	 4.259473	 1.094070	 0.055697

	symmetry c1
}
set optking {
	frozen_dihedral = ("
		8 4 7 10
	")
}

ee = optimize('scf')
oeprop('DIPOLE', 'QUADRUPOLE', 'MULLIKEN_CHARGES')
f=open( 'psi4out.xyz', 'w' )
f.write( "21  " )
f.write( str(ee) + "\n" )
f.write( MOL.save_string_xyz() )
f.close()
--------------------------------------------------------------------------

    Molecular point group: c1
  Charge       = 0
  Multiplicity = 1
  Basis Set: 6-31G*
  Basis Set:
  @DF-RHF Final Energy:  -310.21004890027905
    Total Energy =                       -310.2100489002789345
    Molecular point group: c1
  Basis Set: 6-31G*
  Basis Set:
  Basis Set: 6-31G*
  Basis Set:
  @DF-RHF Final Energy:  -310.21068212977855
    Total Energy =                       -310.2106821297784336
  Basis Set: 6-31G*
  Basis Set:
  Basis Set: 6-31G*
  Basis Set:
  @DF-RHF Final Energy:  -310.21109907465444
    Total Energy =                       -310.2110990746543280
  Basis Set: 6-31G*
  Basis Set:
  Basis Set: 6-31G*
  Basis Set:
  @DF-RHF Final Energy:  -310.21113060587783
    Total Energy =                       -310.2111306058777700
  Basis Set: 6-31G*
  Basis Set:
  Basis Set: 6-31G*
  Basis Set:
  @DF-RHF Final Energy:  -310.21112174149340
    Total Energy =                       -310.2111217414932298
  Basis Set: 6-31G*
  Basis Set:
  Basis Set: 6-31G*
  Basis Set:
  @DF-RHF Final Energy:  -310.21113408533358
    Total Energy =                       -310.2111340853333559
  Basis Set: 6-31G*
  Basis Set:
  Charge       = 0
  Multiplicity = 1
  Basis Set: 6-31G*
  Basis Set:

    Orbital Energies (a.u.)
    -----------------------

    Doubly Occupied:

       1A    -20.551558     2A    -11.266508     3A    -11.216363
       4A    -11.215863     5A    -11.215053     6A    -11.210806
       7A    -11.209158     8A     -1.358279     9A     -1.086774
      10A     -1.032199    11A     -0.951532    12A     -0.883268
      13A     -0.813346    14A     -0.769740    15A     -0.694837
      16A     -0.654235    17A     -0.625152    18A     -0.607814
      19A     -0.593165    20A     -0.554952    21A     -0.549806
      22A     -0.518531    23A     -0.512007    24A     -0.497321
      25A     -0.477012    26A     -0.456977    27A     -0.451408
      28A     -0.446978    29A     -0.431931

  @DF-RHF Final Energy:  -310.21113857724504

   => Energetics <=

    Nuclear Repulsion Energy =            316.5578585272827468
    One-Electron Energy =               -1047.8328417995444397
    Two-Electron Energy =                 421.0638446950168827
    DFT Exchange-Correlation Energy =       0.0000000000000000
    Empirical Dispersion Energy =           0.0000000000000000
    PCM Polarization Energy =               0.0000000000000000
    EFP Energy =                            0.0000000000000000
    Total Energy =                       -310.2111385772448102
    Molecular point group: c1
  Basis Set: 6-31G*
  Basis Set:

  -Total Gradient:
     Atom            X                  Y                   Z
    ------   -----------------  -----------------  -----------------
       1        0.000019626319     0.000008875356     0.000008454523
       2       -0.000018480120     0.000015057350     0.000034503659
       3        0.000021076077    -0.000045553523    -0.000034288332
       4        0.000284593837    -0.000284644760    -0.000761718685
       5        0.000021534372     0.000004329725     0.000000969537
       6       -0.000003977093     0.000004382013     0.000014088587
       7       -0.000108948693    -0.000188795685     0.000657278037
       8       -0.000245388959     0.000295223117     0.000463826149
       9        0.000004612983     0.000000295583     0.000012664082
      10        0.000030359612     0.000185786105    -0.000400203071
      11        0.000005584511     0.000009387638     0.000005879341
      12       -0.000005885460    -0.000002970293    -0.000006016451
      13       -0.000002240671     0.000002043995     0.000000284175
      14       -0.000002777190    -0.000001757407     0.000004760426
      15        0.000005743921    -0.000004911276    -0.000000647351
      16       -0.000000426737     0.000002594032    -0.000001165438
      17       -0.000005815502     0.000001821522    -0.000000933421
      18       -0.000001013254    -0.000000704802     0.000000229977
      19       -0.000001813827    -0.000001453218     0.000002314865
      20        0.000002018421     0.000001520289     0.000000681960
      21        0.000001617461    -0.000000525763    -0.000000962569

  **** Optimization is complete! (in 7 steps) ****
    Final optimized geometry and variables:
    Molecular point group: c1

    Geometry (in Angstrom), charge = 0, multiplicity = 1:

    H           -3.189252091501    -0.768945202752    -2.238270714686
    O           -3.022809007509    -0.626437369671    -1.317468135268
    C           -1.675569162136    -0.273438519068    -1.130676552723
    C           -1.445643896591    -0.097472901086     0.361321693440
    H           -1.024130505497    -1.044846646841    -1.534137625530
    H           -1.446719624302     0.655310884801    -1.652760424511
    C           -0.052508885460     0.421774229530     0.732982483812
    H           -1.637823568974    -1.044983171875     0.857732570700
    H           -2.195720668017     0.598067811259     0.726303637808
    C            1.100481333419    -0.512286814492     0.346544380103
    H            0.094411210792     1.399093641297     0.279260687060
    H           -0.027414109876     0.581497445381     1.808654856530
    C            2.461995833393    -0.102303939677     0.919755114408
    H            1.182183450246    -0.577099854530    -0.736424077724
    H            0.867528512180    -1.516871444200     0.694641048006
    C            2.999685741392     1.227252822947     0.387361534547
    H            3.181243081217    -0.885586142329     0.693282761893
    H            2.395144641471    -0.056310290028     2.004783894094
    H            3.064422179562     1.215818284522    -0.697534005848
    H            2.369767975142     2.063282838712     0.672532997219
    H            3.994946001804     1.423110446099     0.774330834422

  Mulliken Charges: (a.u.)
   Center  Symbol    Alpha    Beta     Spin     Total
       1     H     0.28131  0.28131  0.00000  0.43738
       2     O     4.37203  4.37203  0.00000 -0.74405
       3     C     2.99201  2.99201  0.00000  0.01597
       4     C     3.15993  3.15993  0.00000 -0.31986
       5     H     0.43045  0.43045  0.00000  0.13909
       6     H     0.43329  0.43329  0.00000  0.13342
       7     C     3.16280  3.16280  0.00000 -0.32560
       8     H     0.41602  0.41602  0.00000  0.16795
       9     H     0.41219  0.41219  0.00000  0.17563
      10     C     3.15530  3.15530  0.00000 -0.31060
      11     H     0.42127  0.42127  0.00000  0.15745
      12     H     0.41935  0.41935  0.00000  0.16131
      13     C     3.15209  3.15209  0.00000 -0.30418
      14     H     0.42461  0.42461  0.00000  0.15079
      15     H     0.42096  0.42096  0.00000  0.15808
      16     C     3.24140  3.24140  0.00000 -0.48279
      17     H     0.42092  0.42092  0.00000  0.15815
      18     H     0.42274  0.42274  0.00000  0.15453
      19     H     0.42294  0.42294  0.00000  0.15411
      20     H     0.41945  0.41945  0.00000  0.16110
      21     H     0.41893  0.41893  0.00000  0.16213

   Total alpha = 29.00000, Total beta = 29.00000, Total charge =  0.00000
