  ==> Input File <==

--------------------------------------------------------------------------
set {
	reference rhf
	basis cc-pvtz
}

set_num_threads( 4 )
memory 2 gb

molecule MOL {
0 1

H	 1.166964	 -1.062386	 0.758429
O	 1.324748	 -0.612467	 -0.052206
C	 0.706474	 0.636793	 -0.025501
C	 0.401619	 1.154860	 1.351562
H	 -0.218558	 0.533106	 -0.580360
H	 1.303979	 1.376611	 -0.554987
C	 0.571000	 0.495680	 2.476328
H	 0.009558	 2.158297	 1.377078
H	 0.942762	 -0.511076	 2.490731
H	 0.328751	 0.941727	 3.422065

	symmetry c1
}
set optking {
	frozen_dihedral = ("
		5 3 2 1
	")
}

ee = optimize('scf')
oeprop('DIPOLE', 'QUADRUPOLE', 'MULLIKEN_CHARGES')
f=open( 'psi4out.xyz', 'w' )
f.write( "10  " )
f.write( str(ee) + "\n" )
f.write( MOL.save_string_xyz() )
f.close()
--------------------------------------------------------------------------

    Molecular point group: c1
  Charge       = 0
  Multiplicity = 1
  Basis Set: CC-PVTZ
  Basis Set:
  @DF-RHF Final Energy:  -191.99362929002376
    Total Energy =                       -191.9936292900238755
    Molecular point group: c1
  Basis Set: CC-PVTZ
  Basis Set:
  Basis Set: CC-PVTZ
  Basis Set:
  @DF-RHF Final Energy:  -191.99533294212245
    Total Energy =                       -191.9953329421225305
  Basis Set: CC-PVTZ
  Basis Set:
  Basis Set: CC-PVTZ
  Basis Set:
  @DF-RHF Final Energy:  -191.99605672903920
    Total Energy =                       -191.9960567290391964
  Basis Set: CC-PVTZ
  Basis Set:
  Basis Set: CC-PVTZ
  Basis Set:
  @DF-RHF Final Energy:  -191.99628900143253
    Total Energy =                       -191.9962890014325012
  Basis Set: CC-PVTZ
  Basis Set:
  Basis Set: CC-PVTZ
  Basis Set:
  @DF-RHF Final Energy:  -191.99633062213300
    Total Energy =                       -191.9963306221330015
  Basis Set: CC-PVTZ
  Basis Set:
  Basis Set: CC-PVTZ
  Basis Set:
  @DF-RHF Final Energy:  -191.99633382554464
    Total Energy =                       -191.9963338255447525
  Basis Set: CC-PVTZ
  Basis Set:
  Charge       = 0
  Multiplicity = 1
  Basis Set: CC-PVTZ
  Basis Set:

    Orbital Energies (a.u.)
    -----------------------

    Doubly Occupied:

       1A    -20.551664     2A    -11.278226     3A    -11.239244
       4A    -11.225022     5A     -1.373014     6A     -1.068246
       7A     -0.937245     8A     -0.778330     9A     -0.691374
      10A     -0.662131    11A     -0.629735    12A     -0.574176
      13A     -0.555856    14A     -0.486351    15A     -0.457781
      16A     -0.374433

  @DF-RHF Final Energy:  -191.99633448034740

   => Energetics <=

    Nuclear Repulsion Energy =            119.5364460175999426
    One-Electron Energy =                -497.2999018799176838
    Two-Electron Energy =                 185.7671213819703553
    DFT Exchange-Correlation Energy =       0.0000000000000000
    Empirical Dispersion Energy =           0.0000000000000000
    PCM Polarization Energy =               0.0000000000000000
    EFP Energy =                            0.0000000000000000
    Total Energy =                       -191.9963344803474001
    Molecular point group: c1
  Basis Set: CC-PVTZ
  Basis Set:

  -Total Gradient:
     Atom            X                  Y                   Z
    ------   -----------------  -----------------  -----------------
       1        0.002757274987     0.001038160832     0.001855922084
       2       -0.002936943560    -0.001013284842    -0.002891282260
       3       -0.001680224559    -0.000897003058     0.003267156451
       4        0.000015192395     0.000026366069    -0.000007901785
       5        0.001839981631     0.000840975089    -0.002234959371
       6       -0.000002121977     0.000011573136     0.000009442183
       7        0.000000335227     0.000001461605    -0.000001395175
       8        0.000006611179    -0.000001322459     0.000001490792
       9        0.000007948563     0.000005388617     0.000003847579
      10       -0.000008053886    -0.000012314992    -0.000002320501

  **** Optimization is complete! (in 7 steps) ****
    Final optimized geometry and variables:
    Molecular point group: c1

    Geometry (in Angstrom), charge = 0, multiplicity = 1:

    H            0.190878069152    -1.518546627000    -0.240012922373
    O            0.491673306044    -1.009197194662    -0.969368073580
    C           -0.033746817627     0.281358573424    -0.907186858823
    C           -0.424677717078     0.757550672623     0.461150443115
    H           -0.885335262313     0.368367303091    -1.577690513382
    H            0.722703416902     0.953753250034    -1.300703668607
    C           -0.117928602615     0.190287491337     1.607304802126
    H           -1.004061435415     1.665267382234     0.465238064890
    H            0.480339835746    -0.699908668147     1.672616440303
    H           -0.445198722124     0.611924224849     2.538103647093

  Mulliken Charges: (a.u.)
   Center  Symbol    Alpha    Beta     Spin     Total
       1     H     0.39011  0.39011  0.00000  0.21977
       2     O     4.20184  4.20184  0.00000 -0.40368
       3     C     2.93783  2.93783  0.00000  0.12433
       4     C     3.07947  3.07947  0.00000 -0.15894
       5     H     0.47122  0.47122  0.00000  0.05755
       6     H     0.46120  0.46120  0.00000  0.07760
       7     C     3.17671  3.17671  0.00000 -0.35342
       8     H     0.42173  0.42173  0.00000  0.15654
       9     H     0.43320  0.43320  0.00000  0.13361
      10     H     0.42668  0.42668  0.00000  0.14664

   Total alpha = 16.00000, Total beta = 16.00000, Total charge = -0.00000
