  ==> Input File <==

--------------------------------------------------------------------------
set {
	reference rhf
	basis 6-31G*
}

set_num_threads( 4 )
memory 2 gb

molecule MOL {
0 1

O	 -2.763190	 0.722013	 0.474477
C	 -1.921153	 0.064240	 -0.045697
C	 -2.169092	 -0.971831	 -1.108443
O	 -0.632575	 0.154573	 0.251549
H	 -1.815428	 -1.938081	 -0.767516
H	 -3.225203	 -1.020764	 -1.327695
H	 -1.615078	 -0.717016	 -2.004487
C	 0.160891	 -1.019931	 0.106212
C	 1.589627	 -0.672828	 0.480843
H	 0.089836	 -1.367806	 -0.916050
H	 -0.238459	 -1.792301	 0.749618
C	 2.246377	 0.346236	 -0.452210
H	 2.163194	 -1.597435	 0.473358
H	 1.604769	 -0.303424	 1.502885
C	 3.691736	 0.652107	 -0.061850
H	 2.219579	 -0.032311	 -1.472055
H	 1.666466	 1.263317	 -0.447249
H	 4.134505	 1.377213	 -0.737283
H	 4.305508	 -0.243868	 -0.089969
H	 3.748266	 1.059562	 0.943567

	symmetry c1
}
set optking {
	frozen_dihedral = ("
		1 2 4 8
	")
}

ee = optimize('scf')
oeprop('DIPOLE', 'QUADRUPOLE', 'MULLIKEN_CHARGES')
f=open( 'psi4out.xyz', 'w' )
f.write( "20  " )
f.write( str(ee) + "\n" )
f.write( MOL.save_string_xyz() )
f.close()
--------------------------------------------------------------------------

    Molecular point group: c1
  Charge       = 0
  Multiplicity = 1
  Basis Set: 6-31G*
  Basis Set:
  @DF-RHF Final Energy:  -383.92170129320436
    Total Energy =                       -383.9217012932044781
    Molecular point group: c1
  Basis Set: 6-31G*
  Basis Set:
  Basis Set: 6-31G*
  Basis Set:
  @DF-RHF Final Energy:  -383.92197834755865
    Total Energy =                       -383.9219783475589338
  Basis Set: 6-31G*
  Basis Set:
  Basis Set: 6-31G*
  Basis Set:
  @DF-RHF Final Energy:  -383.92791438800555
    Total Energy =                       -383.9279143880053198
  Basis Set: 6-31G*
  Basis Set:
  Basis Set: 6-31G*
  Basis Set:
  @DF-RHF Final Energy:  -383.92928500736417
    Total Energy =                       -383.9292850073644559
  Basis Set: 6-31G*
  Basis Set:
  @DF-RHF Final Energy:  -383.92880834473624
    Total Energy =                       -383.9288083447362396
  @DF-RHF Final Energy:  -383.92991424045869
    Total Energy =                       -383.9299142404587428
  Basis Set: 6-31G*
  Basis Set:
  @DF-RHF Final Energy:  -383.92992833616279
    Total Energy =                       -383.9299283361627886
  Basis Set: 6-31G*
  Basis Set:
  Basis Set: 6-31G*
  Basis Set:
  @DF-RHF Final Energy:  -383.92994345231574
    Total Energy =                       -383.9299434523154559
  Basis Set: 6-31G*
  Basis Set:
  Basis Set: 6-31G*
  Basis Set:
  @DF-RHF Final Energy:  -383.92994483836895
    Total Energy =                       -383.9299448383692379
  Basis Set: 6-31G*
  Basis Set:
  Charge       = 0
  Multiplicity = 1
  Basis Set: 6-31G*
  Basis Set:

    Orbital Energies (a.u.)
    -----------------------

    Doubly Occupied:

       1A    -20.596645     2A    -20.542408     3A    -11.376171
       4A    -11.297650     5A    -11.241634     6A    -11.230477
       7A    -11.222392     8A    -11.214303     9A     -1.461175
      10A     -1.365509    11A     -1.086997    12A     -1.019530
      13A     -0.999434    14A     -0.888801    15A     -0.814999
      16A     -0.780078    17A     -0.697126    18A     -0.688252
      19A     -0.661112    20A     -0.633143    21A     -0.610050
      22A     -0.593113    23A     -0.580385    24A     -0.556014
      25A     -0.549933    26A     -0.537914    27A     -0.507013
      28A     -0.488080    29A     -0.478142    30A     -0.476359
      31A     -0.444388    32A     -0.432974

  @DF-RHF Final Energy:  -383.92994497916743

   => Energetics <=

    Nuclear Repulsion Energy =            384.5990300361145273
    One-Electron Energy =               -1284.9135456176584285
    Two-Electron Energy =                 516.3845706023766979
    DFT Exchange-Correlation Energy =       0.0000000000000000
    Empirical Dispersion Energy =           0.0000000000000000
    PCM Polarization Energy =               0.0000000000000000
    EFP Energy =                            0.0000000000000000
    Total Energy =                       -383.9299449791672032
    Molecular point group: c1
  Basis Set: 6-31G*
  Basis Set:

  -Total Gradient:
     Atom            X                  Y                   Z
    ------   -----------------  -----------------  -----------------
       1       -0.000331747093    -0.001991853233     0.002293615988
       2        0.000217163798     0.002605363803    -0.001881973929
       3       -0.000011465385    -0.000012738792     0.000021715674
       4        0.000540099351    -0.000090322040    -0.002975013269
       5        0.000000286860    -0.000002330248    -0.000012497643
       6        0.000000939315    -0.000002360412    -0.000004359239
       7        0.000006956960     0.000011864681     0.000003022111
       8       -0.000432676507    -0.000497326163     0.002565426891
       9       -0.000008834485    -0.000008441986    -0.000000681929
      10        0.000002285336     0.000004566063    -0.000001963379
      11        0.000015614294    -0.000012694914    -0.000002491457
      12       -0.000003391197    -0.000010018835    -0.000003373770
      13        0.000004046507     0.000000489115    -0.000001858448
      14       -0.000000169877    -0.000003722001    -0.000000373589
      15        0.000000068850     0.000008925369     0.000003724498
      16       -0.000000472471    -0.000000767659    -0.000000764897
      17       -0.000000015123     0.000000971460    -0.000002071238
      18        0.000001232772     0.000001480277     0.000001187305
      19       -0.000001882226     0.000000456156    -0.000002475969
      20        0.000001960322    -0.000001540637     0.000001206289

  **** Optimization is complete! (in 10 steps) ****
    Final optimized geometry and variables:
    Molecular point group: c1

    Geometry (in Angstrom), charge = 0, multiplicity = 1:

    O           -2.662165639067     0.887218531850     0.516340790089
    C           -1.939749270268     0.129968069010    -0.035503181940
    C           -2.432059843420    -0.895753233825    -1.030506749741
    O           -0.623690733008     0.178674097631     0.195585404067
    H           -2.295954114960    -1.903326452441    -0.652963250653
    H           -3.483638557976    -0.724140232890    -1.202681661555
    H           -1.889408797107    -0.814292836369    -1.965656668274
    C            0.196790059717    -0.974153785396     0.114687773875
    C            1.598107403715    -0.582377212913     0.547680053990
    H            0.207353496528    -1.359113976253    -0.899386529572
    H           -0.197768692953    -1.743963775426     0.769167446479
    C            2.262204597798     0.441936363930    -0.373805139765
    H            2.197846761133    -1.489716578133     0.583455634241
    H            1.549231529622    -0.193890967845     1.560500604377
    C            3.674298964201     0.807595222592     0.081520131088
    H            2.301058843794     0.042633371584    -1.385721460770
    H            1.649092896489     1.335490078471    -0.414857241437
    H            4.124009421963     1.534105329554    -0.587558747734
    H            4.320691028865    -0.065459505041     0.104866629998
    H            3.664325956396     1.238648183816     1.078334816330

  Mulliken Charges: (a.u.)
   Center  Symbol    Alpha    Beta     Spin     Total
       1     O     4.26114  4.26114  0.00000 -0.52227
       2     C     2.61626  2.61626  0.00000  0.76747
       3     C     3.30672  3.30672  0.00000 -0.61344
       4     O     4.30604  4.30604  0.00000 -0.61208
       5     H     0.40351  0.40351  0.00000  0.19297
       6     H     0.38877  0.38877  0.00000  0.22247
       7     H     0.40204  0.40204  0.00000  0.19592
       8     C     3.00410  3.00410  0.00000 -0.00820
       9     C     3.16146  3.16146  0.00000 -0.32292
      10     H     0.42055  0.42055  0.00000  0.15889
      11     H     0.41537  0.41537  0.00000  0.16927
      12     C     3.15660  3.15660  0.00000 -0.31321
      13     H     0.41965  0.41965  0.00000  0.16069
      14     H     0.40863  0.40863  0.00000  0.18275
      15     C     3.24082  3.24082  0.00000 -0.48163
      16     H     0.42546  0.42546  0.00000  0.14908
      17     H     0.40501  0.40501  0.00000  0.18999
      18     H     0.41666  0.41666  0.00000  0.16668
      19     H     0.42266  0.42266  0.00000  0.15468
      20     H     0.41855  0.41855  0.00000  0.16291

   Total alpha = 32.00000, Total beta = 32.00000, Total charge =  0.00000
