  ==> Input File <==

--------------------------------------------------------------------------
set {
	reference rhf
	basis cc-pvtz
}

set_num_threads( 4 )
memory 2 gb

molecule MOL {
0 1

H	 -2.171709	 0.882708	 0.500286
C	 -2.016894	 0.001719	 -0.114152
O	 -0.775228	 0.000056	 -0.739966
H	 -2.760846	 0.003757	 -0.898169
H	 -2.174774	 -0.879864	 0.498643
C	 -0.128361	 1.224231	 -1.026739
C	 1.175266	 0.803188	 -1.696189
C	 -0.957894	 2.073637	 -1.991635
C	 0.173021	 2.002916	 0.255218
H	 0.967275	 0.230001	 -2.590784
H	 1.755553	 0.182109	 -1.025643
H	 1.768801	 1.667734	 -1.968669
H	 -1.223616	 1.495358	 -2.868364
H	 -0.387809	 2.937193	 -2.312825
H	 -1.868692	 2.438494	 -1.533498
H	 0.703570	 1.374887	 0.960758
H	 0.792521	 2.863287	 0.031927
H	 -0.728314	 2.367338	 0.732040

	symmetry c1
}
set optking {
	frozen_dihedral = ("
		6 3 2 5
	")
}

ee = optimize('scf')
oeprop('DIPOLE', 'QUADRUPOLE', 'MULLIKEN_CHARGES')
f=open( 'psi4out.xyz', 'w' )
f.write( "18  " )
f.write( str(ee) + "\n" )
f.write( MOL.save_string_xyz() )
f.close()
--------------------------------------------------------------------------

    Molecular point group: c1
  Charge       = 0
  Multiplicity = 1
  Basis Set: CC-PVTZ
  Basis Set:
  @DF-RHF Final Energy:  -271.27368343175834
    Total Energy =                       -271.2736834317585704
    Molecular point group: c1
  Basis Set: CC-PVTZ
  Basis Set:
  Basis Set: CC-PVTZ
  Basis Set:
  @DF-RHF Final Energy:  -271.27521084034476
    Total Energy =                       -271.2752108403449256
  Basis Set: CC-PVTZ
  Basis Set:
  Basis Set: CC-PVTZ
  Basis Set:
  @DF-RHF Final Energy:  -271.27561428519374
    Total Energy =                       -271.2756142851937966
  Basis Set: CC-PVTZ
  Basis Set:
  Basis Set: CC-PVTZ
  Basis Set:
  @DF-RHF Final Energy:  -271.27572156203809
    Total Energy =                       -271.2757215620381430
  Basis Set: CC-PVTZ
  Basis Set:
  Basis Set: CC-PVTZ
  Basis Set:
  @DF-RHF Final Energy:  -271.27577153661912
    Total Energy =                       -271.2757715366191178
  Basis Set: CC-PVTZ
  Basis Set:
  Basis Set: CC-PVTZ
  Basis Set:
  @DF-RHF Final Energy:  -271.27577903630851
    Total Energy =                       -271.2757790363086770
  Basis Set: CC-PVTZ
  Basis Set:
  Charge       = 0
  Multiplicity = 1
  Basis Set: CC-PVTZ
  Basis Set:

    Orbital Energies (a.u.)
    -----------------------

    Doubly Occupied:

       1A    -20.539384     2A    -11.280418     3A    -11.258441
       4A    -11.207809     5A    -11.206391     6A    -11.201854
       7A     -1.372550     8A     -1.074293     9A     -0.946934
      10A     -0.940709    11A     -0.913331    12A     -0.753743
      13A     -0.656425    14A     -0.646688    15A     -0.640031
      16A     -0.592107    17A     -0.573169    18A     -0.552802
      19A     -0.537007    20A     -0.525013    21A     -0.515358
      22A     -0.490402    23A     -0.488256    24A     -0.440224
      25A     -0.405803

  @DF-RHF Final Energy:  -271.27577931618413

   => Energetics <=

    Nuclear Repulsion Energy =            272.6590337350930326
    One-Electron Energy =                -908.3513501092591014
    Two-Electron Energy =                 364.4165370579819410
    DFT Exchange-Correlation Energy =       0.0000000000000000
    Empirical Dispersion Energy =           0.0000000000000000
    PCM Polarization Energy =               0.0000000000000000
    EFP Energy =                            0.0000000000000000
    Total Energy =                       -271.2757793161840709
    Molecular point group: c1
  Basis Set: CC-PVTZ
  Basis Set:

  -Total Gradient:
     Atom            X                  Y                   Z
    ------   -----------------  -----------------  -----------------
       1        0.000001125671    -0.000014093182     0.000011908084
       2       -0.000462023800    -0.001192249530    -0.001176785025
       3       -0.000716401227     0.000098403200    -0.001809675751
       4       -0.000072933408    -0.000011804208     0.000032792784
       5        0.000668388954     0.001061085734     0.001491016927
       6        0.000589849406     0.000042309247     0.001472347200
       7        0.000034157034     0.000022148467     0.000031763383
       8       -0.000013967532     0.000033979076    -0.000000357716
       9       -0.000008451142    -0.000049456050    -0.000027045436
      10       -0.000026002197     0.000026482051     0.000006326175
      11        0.000004274946    -0.000014425100    -0.000020113861
      12        0.000026783767     0.000006538256     0.000017880734
      13        0.000009580622    -0.000000461826     0.000007931216
      14       -0.000010390931     0.000002172630    -0.000008676297
      15       -0.000022670079     0.000006878696    -0.000006825452
      16       -0.000018118128     0.000003560284     0.000024316819
      17        0.000018823666    -0.000015237182    -0.000017356784
      18       -0.000002025621    -0.000005830562    -0.000029446998

  **** Optimization is complete! (in 7 steps) ****
    Final optimized geometry and variables:
    Molecular point group: c1

    Geometry (in Angstrom), charge = 0, multiplicity = 1:

    H           -1.819773114342    -0.117431739555     1.302683453620
    C           -1.613235599190    -0.994857863736     0.701264547111
    O           -0.320742553881    -1.005111235731     0.182737667527
    H           -2.359022823844    -1.051880035579    -0.085514086115
    H           -1.714442952395    -1.859036283757     1.343831828133
    C            0.320129782892     0.213354960171    -0.139060956657
    C            1.612190657569    -0.215169368406    -0.825748846275
    C           -0.529882529466     1.047317192893    -1.099023379311
    C            0.647140250779     1.004624003026     1.128989304080
    H            1.389937546335    -0.788828219443    -1.716513394864
    H            2.198673060130    -0.837510677518    -0.161864898788
    H            2.206147020159     0.646349990917    -1.107204059503
    H           -0.782597276939     0.467820213619    -1.978873097062
    H            0.016021736052     1.927547638602    -1.416794685823
    H           -1.450237993813     1.382616758473    -0.636414506373
    H            1.208374243489     0.386613096800     1.818951100620
    H            1.245370631256     1.874491807075     0.884447481307
    H           -0.243489128951     1.356185859983     1.634274550632

  Mulliken Charges: (a.u.)
   Center  Symbol    Alpha    Beta     Spin     Total
       1     H     0.46942  0.46942  0.00000  0.06115
       2     C     3.04435  3.04435  0.00000 -0.08870
       3     O     4.19203  4.19203  0.00000 -0.38406
       4     H     0.46234  0.46234  0.00000  0.07532
       5     H     0.44532  0.44532  0.00000  0.10936
       6     C     2.87794  2.87794  0.00000  0.24412
       7     C     3.14235  3.14235  0.00000 -0.28471
       8     C     3.16400  3.16400  0.00000 -0.32799
       9     C     3.15983  3.15983  0.00000 -0.31966
      10     H     0.44946  0.44946  0.00000  0.10107
      11     H     0.44842  0.44842  0.00000  0.10316
      12     H     0.45926  0.45926  0.00000  0.08148
      13     H     0.44577  0.44577  0.00000  0.10846
      14     H     0.44678  0.44678  0.00000  0.10644
      15     H     0.44830  0.44830  0.00000  0.10341
      16     H     0.44637  0.44637  0.00000  0.10725
      17     H     0.44956  0.44956  0.00000  0.10087
      18     H     0.44848  0.44848  0.00000  0.10303

   Total alpha = 25.00000, Total beta = 25.00000, Total charge =  0.00000
