                              Psi4 1.0.54 Driver

  ==> Input File <==

--------------------------------------------------------------------------
set {
	reference rhf
	basis cc-pvtz
}

set_num_threads( 4 )
memory 2 gb

molecule MOL {
0 1

H	 2.186742	 2.718756	 -1.062098
O	 2.994434	 2.306912	 -1.306737
C	 3.410966	 1.419858	 -0.302292
C	 2.574824	 0.150937	 -0.228868
H	 4.435124	 1.165102	 -0.539315
H	 3.418706	 1.918528	 0.665033
C	 1.123113	 0.379514	 0.186025
H	 2.605640	 -0.339516	 -1.197198
H	 3.050127	 -0.521734	 0.481062
C	 0.323920	 -0.919385	 0.280836
H	 0.647222	 1.045381	 -0.526120
H	 1.099356	 0.884026	 1.150489
C	 -1.118293	 -0.757018	 0.764482
H	 0.323866	 -1.410035	 -0.689468
H	 0.839695	 -1.593024	 0.959552
C	 -2.041121	 -0.006551	 -0.194127
H	 -1.532590	 -1.746133	 0.939227
H	 -1.118369	 -0.255872	 1.729888
C	 -3.489218	 0.042606	 0.286507
H	 -2.005068	 -0.482508	 -1.171692
H	 -1.685196	 1.009273	 -0.337026
C	 -4.219984	 1.311773	 -0.139038
H	 -4.022855	 -0.824300	 -0.093339
H	 -3.510372	 -0.038577	 1.370031
H	 -4.244251	 1.405725	 -1.219696
H	 -5.244345	 1.313233	 0.215630
H	 -3.732090	 2.196311	 0.257073

	symmetry c1
}
set optking {
	frozen_dihedral = ("
		20 16 19 22
	")
}

ee,wfn = optimize('scf', return_wfn=True)
oeprop( wfn, 'DIPOLE', 'QUADRUPOLE', 'MULLIKEN_CHARGES')
f=open( 'psi4out.xyz', 'w' )
f.write( "27  " )
f.write( str(ee) + "\n" )
f.write( MOL.save_string_xyz() )
f.close()
--------------------------------------------------------------------------

    Molecular point group: c1
  Charge       = 0
  Multiplicity = 1
  Basis Set: CC-PVTZ
  Basis Set:
  @DF-RHF Final Energy:  -388.42464268652651
    Total Energy =                       -388.4246426865264539
    Molecular point group: c1
  Basis Set: CC-PVTZ
  Basis Set:
  Basis Set: CC-PVTZ
  Basis Set:
  @DF-RHF Final Energy:  -388.39323710146164
    Total Energy =                       -388.3932371014620912
  Basis Set: CC-PVTZ
  Basis Set:
  Basis Set: CC-PVTZ
  Basis Set:
  @DF-RHF Final Energy:  -388.42418998238799
    Total Energy =                       -388.4241899823879294
  Basis Set: CC-PVTZ
  Basis Set:
  Basis Set: CC-PVTZ
  Basis Set:
  @DF-RHF Final Energy:  -388.42490962829902
    Total Energy =                       -388.4249096282992468
  Basis Set: CC-PVTZ
  Basis Set:
  Basis Set: CC-PVTZ
  Basis Set:
  @DF-RHF Final Energy:  -388.42491627907816
    Total Energy =                       -388.4249162790783885
  Basis Set: CC-PVTZ
  Basis Set:
  Basis Set: CC-PVTZ
  Basis Set:
  @DF-RHF Final Energy:  -388.42493020326123
    Total Energy =                       -388.4249302032610558
  Basis Set: CC-PVTZ
  Basis Set:
  Basis Set: CC-PVTZ
  Basis Set:
  @DF-RHF Final Energy:  -388.42493873771122
    Total Energy =                       -388.4249387377112726
  Basis Set: CC-PVTZ
  Basis Set:
  Charge       = 0
  Multiplicity = 1
  Basis Set: CC-PVTZ
  Basis Set:

    Orbital Energies (a.u.)
    -----------------------

    Doubly Occupied:

       1A    -20.545324     2A    -11.264967     3A    -11.216758
       4A    -11.214487     5A    -11.213848     6A    -11.213306
       7A    -11.213231     8A    -11.211893     9A    -11.207619
      10A     -1.363231    11A     -1.095820    12A     -1.061710
      13A     -1.012285    14A     -0.949428    15A     -0.888424
      16A     -0.820811    17A     -0.802496    18A     -0.777846
      19A     -0.696231    20A     -0.652393    21A     -0.634908
      22A     -0.616005    23A     -0.606273    24A     -0.583610
      25A     -0.582872    26A     -0.551044    27A     -0.540007
      28A     -0.535091    29A     -0.504700    30A     -0.495142
      31A     -0.487577    32A     -0.472470    33A     -0.471215
      34A     -0.458611    35A     -0.452563    36A     -0.441448
      37A     -0.425535

  @DF-RHF Final Energy:  -388.42493899286836

   => Energetics <=

    Nuclear Repulsion Energy =            460.5947367694598711
    One-Electron Energy =               -1439.4769844814895805
    Two-Electron Energy =                 590.4573087191614604
    DFT Exchange-Correlation Energy =       0.0000000000000000
    Empirical Dispersion Energy =           0.0000000000000000
    PCM Polarization Energy =               0.0000000000000000
    EFP Energy =                            0.0000000000000000
    Total Energy =                       -388.4249389928683058
    Molecular point group: c1
  Basis Set: CC-PVTZ
  Basis Set:

  -Total Gradient:
     Atom            X                  Y                   Z
    ------   -----------------  -----------------  -----------------
       1        0.000007167988     0.000003015692    -0.000000430960
       2       -0.000000897035    -0.000017190122     0.000008419392
       3       -0.000002662421     0.000011696045    -0.000002301837
       4        0.000009661458    -0.000016190007     0.000006457130
       5       -0.000000591671    -0.000001333894     0.000004717075
       6        0.000002538890     0.000004980183     0.000005620413
       7       -0.000020204161     0.000001164802    -0.000024357147
       8       -0.000004864003     0.000008502704    -0.000005642616
       9        0.000003234963    -0.000006627495    -0.000002141228
      10        0.000035585790     0.000000433401     0.000008772049
      11       -0.000005659706    -0.000012277233    -0.000007931901
      12       -0.000006448125     0.000001328839    -0.000000829383
      13       -0.000004045210     0.000015876806    -0.000048633426
      14       -0.000006083678     0.000016325783     0.000005651343
      15        0.000014630112    -0.000004512680    -0.000003446222
      16        0.000254624072     0.005480822472     0.000332488785
      17        0.000008546663     0.000003748473    -0.000000593423
      18       -0.000021536503     0.000024056027    -0.000024667920
      19       -0.001199628159    -0.001766266190    -0.004066079800
      20        0.000137598747    -0.004277398464     0.000772643238
      21        0.000038185755    -0.000008888450    -0.000021563873
      22        0.000811142091     0.000527815684     0.003075190076
      23       -0.000039433284     0.000004190054     0.000021627230
      24       -0.000024939613     0.000033557855    -0.000015014836
      25        0.000009535748    -0.000026645590     0.000016921494
      26        0.000026742299     0.000016623067    -0.000018025882
      27       -0.000022201013    -0.000016807761    -0.000016847773

  **** Optimization is complete! (in 8 steps) ****
    Final optimized geometry and variables:
    Molecular point group: c1

    Geometry (in Angstrom), charge = 0, multiplicity = 1:

    H            2.485154103360     2.153065047194    -0.265568651656
    O            3.257929188764     1.731387875357    -0.592041256080
    C            3.520613794870     0.563671356984     0.140395519496
    C            2.553059501335    -0.571256651410    -0.160035218323
    H            4.524290592786     0.264734736655    -0.130204539191
    H            3.525059399360     0.778058271286     1.207361841831
    C            1.111291227985    -0.294311775567     0.259837827214
    H            2.589684778125    -0.783494424731    -1.224304972114
    H            2.912199993245    -1.460797404145     0.351907600160
    C            0.177338613068    -1.470761479239    -0.020098163617
    H            0.748603865177     0.586088039391    -0.260217733416
    H            1.084332025697    -0.062873271883     1.323273828172
    C           -1.261767341481    -1.280137062236     0.461072029187
    H            0.174691933592    -1.677749902165    -1.087506163025
    H            0.585163025774    -2.357028655878     0.458131656060
    C           -2.045856422869    -0.180468832026    -0.257347239182
    H           -1.792078752270    -2.220179524824     0.333519729812
    H           -1.260000089767    -1.078810885115     1.529890265646
    C           -3.525106188952    -0.148614958190     0.150701701899
    H           -1.970611872182    -0.365838691745    -1.325623861644
    H           -1.593058513469     0.785666893859    -0.065117471005
    C           -4.148599063228     1.241272079855     0.070899556142
    H           -4.088515963118    -0.844919447047    -0.461924524122
    H           -3.619542706631    -0.504386228298     1.172919109291
    H           -4.075573384825     1.651579514010    -0.931363523138
    H           -5.198029519601     1.218813499100     0.341824751677
    H           -3.646348215555     1.927535075278     0.744150061807

  Mulliken Charges: (a.u.)
   Center  Symbol    Alpha    Beta     Spin     Total
       1     H     0.39229  0.39229  0.00000  0.21542
       2     O     4.20549  4.20549  0.00000 -0.41099
       3     C     2.97994  2.97994  0.00000  0.04013
       4     C     3.08927  3.08927  0.00000 -0.17853
       5     H     0.44857  0.44857  0.00000  0.10287
       6     H     0.46974  0.46974  0.00000  0.06052
       7     C     3.10269  3.10269  0.00000 -0.20538
       8     H     0.45080  0.45080  0.00000  0.09841
       9     H     0.45522  0.45522  0.00000  0.08957
      10     C     3.09871  3.09871  0.00000 -0.19743
      11     H     0.45560  0.45560  0.00000  0.08880
      12     H     0.45370  0.45370  0.00000  0.09260
      13     C     3.09799  3.09799  0.00000 -0.19597
      14     H     0.45177  0.45177  0.00000  0.09646
      15     H     0.44808  0.44808  0.00000  0.10384
      16     C     3.09077  3.09077  0.00000 -0.18155
      17     H     0.44735  0.44735  0.00000  0.10530
      18     H     0.45422  0.45422  0.00000  0.09156
      19     C     3.08467  3.08467  0.00000 -0.16933
      20     H     0.45273  0.45273  0.00000  0.09454
      21     H     0.45507  0.45507  0.00000  0.08986
      22     C     3.14895  3.14895  0.00000 -0.29791
      23     H     0.45100  0.45100  0.00000  0.09801
      24     H     0.45600  0.45600  0.00000  0.08800
      25     H     0.45431  0.45431  0.00000  0.09138
      26     H     0.44886  0.44886  0.00000  0.10229
      27     H     0.45623  0.45623  0.00000  0.08754

   Total alpha = 37.00000, Total beta = 37.00000, Total charge = -0.00000

*** Psi4 exiting successfully. Buy a developer a beer!
