  ==> Input File <==

--------------------------------------------------------------------------
set {
	reference rhf
	basis 6-31G*
}

set_num_threads( 1 )
memory 2 gb

molecule MOL {
0 1

H	 2.888919	 1.440352	 1.268077
O	 3.619070	 1.150872	 0.740675
C	 3.699616	 -0.251468	 0.772410
C	 2.602404	 -0.935051	 -0.036025
H	 4.668027	 -0.500096	 0.357635
H	 3.686676	 -0.610723	 1.800781
C	 1.189464	 -0.686097	 0.497352
H	 2.669210	 -0.593624	 -1.065749
H	 2.803027	 -2.005130	 -0.042923
C	 0.115918	 -1.429151	 -0.302766
H	 0.983242	 0.380422	 0.477970
H	 1.136351	 -0.996982	 1.540841
C	 -1.309753	 -1.282496	 0.241564
H	 0.142624	 -1.091542	 -1.337248
H	 0.369531	 -2.486966	 -0.322991
C	 -2.037799	 -0.007733	 -0.193645
H	 -1.890610	 -2.142323	 -0.085726
H	 -1.285946	 -1.330893	 1.329189
C	 -3.489788	 0.042957	 0.286558
H	 -2.017067	 0.064384	 -1.280144
H	 -1.513726	 0.868678	 0.179924
C	 -4.216917	 1.317354	 -0.141063
H	 -4.025645	 -0.823308	 -0.095450
H	 -3.513059	 -0.038752	 1.371301
H	 -4.239342	 1.411634	 -1.223113
H	 -5.243387	 1.322503	 0.212445
H	 -3.726170	 2.201406	 0.256408

	symmetry c1
}
set optking {
	frozen_dihedral = ("
		14 10 7 4,
		10 7 4 8,
		8 4 3 2,
		10 13 16 20,
		20 16 19 22,
		4 3 2 1
	")
}

ee = energy('scf')
oeprop('DIPOLE', 'QUADRUPOLE', 'MULLIKEN_CHARGES')
f=open( 'psi4out.xyz', 'w' )
f.write( "27  " )
f.write( str(ee) + "\n" )
f.write( MOL.save_string_xyz() )
f.close()
--------------------------------------------------------------------------

    Molecular point group: c1

    Geometry (in Angstrom), charge = 0, multiplicity = 1:

       Center              X                  Y                   Z               Mass
    ------------   -----------------  -----------------  -----------------  -----------------
           H          2.824727035516     1.635084520332     1.047484101877     1.007825032070
           O          3.554878035516     1.345604520332     0.520082101877    15.994914619560
           C          3.635424035516    -0.056735479668     0.551817101877    12.000000000000
           C          2.538212035516    -0.740318479668    -0.256617898123    12.000000000000
           H          4.603835035516    -0.305363479668     0.137042101877     1.007825032070
           H          3.622484035516    -0.415990479668     1.580188101877     1.007825032070
           C          1.125272035516    -0.491364479668     0.276759101877    12.000000000000
           H          2.605018035516    -0.398891479668    -1.286341898123     1.007825032070
           H          2.738835035516    -1.810397479668    -0.263515898123     1.007825032070
           C          0.051726035516    -1.234418479668    -0.523358898123    12.000000000000
           H          0.919050035516     0.575154520332     0.257377101877     1.007825032070
           H          1.072159035516    -0.802249479668     1.320248101877     1.007825032070
           C         -1.373944964484    -1.087763479668     0.020971101877    12.000000000000
           H          0.078432035516    -0.896809479668    -1.557840898123     1.007825032070
           H          0.305339035516    -2.292233479668    -0.543583898123     1.007825032070
           C         -2.101990964484     0.186999520332    -0.414237898123    12.000000000000
           H         -1.954801964484    -1.947590479668    -0.306318898123     1.007825032070
           H         -1.350137964484    -1.136160479668     1.108596101877     1.007825032070
           C         -3.553979964484     0.237689520332     0.065965101877    12.000000000000
           H         -2.081258964484     0.259116520332    -1.500736898123     1.007825032070
           H         -1.577917964484     1.063410520332    -0.040668898123     1.007825032070
           C         -4.281108964484     1.512086520332    -0.361655898123    12.000000000000
           H         -4.089836964484    -0.628575479668    -0.316042898123     1.007825032070
           H         -3.577250964484     0.155980520332     1.150708101877     1.007825032070
           H         -4.303533964484     1.606366520332    -1.443705898123     1.007825032070
           H         -5.307578964484     1.517235520332    -0.008147898123     1.007825032070
           H         -3.790361964484     2.396138520332     0.035815101877     1.007825032070

  Charge       = 0
  Multiplicity = 1
  Basis Set: 6-31G*
  Basis Set:

    Orbital Energies (a.u.)
    -----------------------

    Doubly Occupied:

       1A    -20.552298     2A    -11.267094     3A    -11.220150
       4A    -11.216848     5A    -11.215901     6A    -11.215260
       7A    -11.215210     8A    -11.214240     9A    -11.209205
      10A     -1.359052    11A     -1.094728    12A     -1.061909
      13A     -1.011497    14A     -0.949087    15A     -0.886658
      16A     -0.819883    17A     -0.798681    18A     -0.782355
      19A     -0.693840    20A     -0.649125    21A     -0.640786
      22A     -0.614111    23A     -0.599689    24A     -0.583056
      25A     -0.580423    26A     -0.551772    27A     -0.542958
      28A     -0.529029    29A     -0.505474    30A     -0.492132
      31A     -0.484772    32A     -0.474707    33A     -0.470711
      34A     -0.462667    35A     -0.451201    36A     -0.441562
      37A     -0.422363

  @DF-RHF Final Energy:  -388.28075543889099

   => Energetics <=

    Nuclear Repulsion Energy =            457.5220157102510257
    One-Electron Energy =               -1433.0446548532443103
    Two-Electron Energy =                 587.2418837041032020
    DFT Exchange-Correlation Energy =       0.0000000000000000
    Empirical Dispersion Energy =           0.0000000000000000
    PCM Polarization Energy =               0.0000000000000000
    EFP Energy =                            0.0000000000000000
    Total Energy =                       -388.2807554388900826

  Mulliken Charges: (a.u.)
   Center  Symbol    Alpha    Beta     Spin     Total
       1     H     0.27994  0.27994  0.00000  0.44013
       2     O     4.37096  4.37096  0.00000 -0.74191
       3     C     2.99737  2.99737  0.00000  0.00526
       4     C     3.16134  3.16134  0.00000 -0.32267
       5     H     0.41443  0.41443  0.00000  0.17115
       6     H     0.43204  0.43204  0.00000  0.13591
       7     C     3.16230  3.16230  0.00000 -0.32460
       8     H     0.41491  0.41491  0.00000  0.17018
       9     H     0.42421  0.42421  0.00000  0.15158
      10     C     3.15300  3.15300  0.00000 -0.30600
      11     H     0.42394  0.42394  0.00000  0.15212
      12     H     0.42501  0.42501  0.00000  0.14998
      13     C     3.15465  3.15465  0.00000 -0.30931
      14     H     0.42089  0.42089  0.00000  0.15822
      15     H     0.42134  0.42134  0.00000  0.15733
      16     C     3.15142  3.15142  0.00000 -0.30285
      17     H     0.42116  0.42116  0.00000  0.15767
      18     H     0.42388  0.42388  0.00000  0.15224
      19     C     3.15160  3.15160  0.00000 -0.30319
      20     H     0.42333  0.42333  0.00000  0.15334
      21     H     0.42399  0.42399  0.00000  0.15203
      22     C     3.23920  3.23920  0.00000 -0.47840
      23     H     0.42286  0.42286  0.00000  0.15429
      24     H     0.42340  0.42340  0.00000  0.15319
      25     H     0.42149  0.42149  0.00000  0.15701
      26     H     0.41928  0.41928  0.00000  0.16143
      27     H     0.42206  0.42206  0.00000  0.15589

   Total alpha = 37.00000, Total beta = 37.00000, Total charge =  0.00000
