  ==> Input File <==

--------------------------------------------------------------------------
set {
	reference rhf
	basis cc-pvtz
}

set_num_threads( 4 )
memory 2 gb

molecule MOL {
0 1

H	 0.663522	 3.761228	 -0.000000
O	 1.415312	 3.195955	 -0.000000
C	 1.056949	 1.899746	 -0.000000
C	 2.072852	 0.954726	 0.000000
C	 -0.261039	 1.495686	 -0.000000
H	 3.090870	 1.290577	 0.000000
C	 1.766131	 -0.386644	 0.000000
H	 -1.064454	 2.202667	 -0.000000
C	 -0.532034	 0.141680	 0.000000
H	 2.557832	 -1.109802	 0.000000
C	 0.449825	 -0.817087	 -0.000000
N	 -1.937041	 -0.281114	 0.000000
H	 0.196729	 -1.854712	 0.000000
O	 -2.159542	 -1.446261	 0.000000
O	 -2.764978	 0.565773	 0.000000

	symmetry c1
}
set optking {
	frozen_dihedral = ("
		11 9 12 14
	")
}

ee = optimize('scf')
oeprop('DIPOLE', 'QUADRUPOLE', 'MULLIKEN_CHARGES')
f=open( 'psi4out.xyz', 'w' )
f.write( "15  " )
f.write( str(ee) + "\n" )
f.write( MOL.save_string_xyz() )
f.close()
--------------------------------------------------------------------------

    Molecular point group: c1
  Charge       = 0
  Multiplicity = 1
  Basis Set: CC-PVTZ
  Basis Set:
  @DF-RHF Final Energy:  -509.21910319185122
    Total Energy =                       -509.2191031918512181
    Molecular point group: c1
  Basis Set: CC-PVTZ
  Basis Set:
  Basis Set: CC-PVTZ
  Basis Set:
  @DF-RHF Final Energy:  -509.21911017400612
    Total Energy =                       -509.2191101740061185
  Basis Set: CC-PVTZ
  Basis Set:
  Charge       = 0
  Multiplicity = 1
  Basis Set: CC-PVTZ
  Basis Set:

    Orbital Energies (a.u.)
    -----------------------

    Doubly Occupied:

       1A    -20.608401     2A    -20.595051     3A    -20.594507
       4A    -15.850632     5A    -11.327664     6A    -11.308970
       7A    -11.263135     8A    -11.262755     9A    -11.258489
      10A    -11.256569    11A     -1.644315    12A     -1.441021
      13A     -1.426726    14A     -1.202483    15A     -1.095488
      16A     -1.047895    17A     -0.966848    18A     -0.881351
      19A     -0.831990    20A     -0.795488    21A     -0.756020
      22A     -0.743616    23A     -0.729552    24A     -0.709386
      25A     -0.677189    26A     -0.636040    27A     -0.621635
      28A     -0.598523    29A     -0.560538    30A     -0.546593
      31A     -0.520074    32A     -0.494933    33A     -0.493644
      34A     -0.460322    35A     -0.380212    36A     -0.346125

  @DF-RHF Final Energy:  -509.21911150538978

   => Energetics <=

    Nuclear Repulsion Energy =            504.7363216971538691
    One-Electron Energy =               -1696.0425103032371226
    Two-Electron Energy =                 682.0870771006933637
    DFT Exchange-Correlation Energy =       0.0000000000000000
    Empirical Dispersion Energy =           0.0000000000000000
    PCM Polarization Energy =               0.0000000000000000
    EFP Energy =                            0.0000000000000000
    Total Energy =                       -509.2191115053898329
    Molecular point group: c1
  Basis Set: CC-PVTZ
  Basis Set:

  -Total Gradient:
     Atom            X                  Y                   Z
    ------   -----------------  -----------------  -----------------
       1       -0.000000657309    -0.000009309949     0.000000000000
       2        0.000009268903    -0.000002981714     0.000000000000
       3       -0.000008445665     0.000017590597     0.000000000000
       4       -0.000000246302     0.000002955226     0.000000000000
       5        0.000003000487     0.000003593197    -0.000000000001
       6        0.000001460135    -0.000000664875    -0.000000000000
       7       -0.000011638907     0.000013856176     0.000000000000
       8       -0.000000191182     0.000001187618     0.000000000000
       9        0.000001231910    -0.000003795261    -0.000000000005
      10       -0.000001966961    -0.000000975683     0.000000000000
      11        0.000000603412    -0.000002596433    -0.000000000001
      12        0.000000632641    -0.000034153014     0.000000000023
      13       -0.000000447054     0.000000622723    -0.000000000000
      14       -0.000016589206     0.000004958309    -0.000000000008
      15        0.000023985100     0.000009713082    -0.000000000008

  **** Optimization is complete! (in 3 steps) ****
    Final optimized geometry and variables:
    Molecular point group: c1

    Geometry (in Angstrom), charge = 0, multiplicity = 1:

    H            0.829607627532     3.207937351069     0.000000000010
    O            1.581446618608     2.642775074783     0.000000000003
    C            1.223319599009     1.346497767427     0.000000000004
    C            2.239307485536     0.401637522196    -0.000000000005
    C           -0.094644772940     0.942182217995     0.000000000015
    H            3.257288237632     0.737578395625    -0.000000000013
    C            1.932780853000    -0.939802630472    -0.000000000004
    H           -0.898164955294     1.649010332299     0.000000000023
    C           -0.365410853731    -0.411840449127     0.000000000018
    H            2.724638103959    -1.662785228022    -0.000000000012
    C            0.616591662787    -1.370490818385     0.000000000007
    N           -1.770356880778    -0.834839256043     0.000000000027
    H            0.363608483953    -2.408123688638     0.000000000007
    O           -1.993376921555    -1.998012134479     0.000000000024
    O           -2.598963187952     0.013982248650    -0.000000000079

  Mulliken Charges: (a.u.)
   Center  Symbol    Alpha    Beta     Spin     Total
       1     H     0.38407  0.38407  0.00000  0.23187
       2     O     4.16873  4.16873  0.00000 -0.33746
       3     C     2.84351  2.84351  0.00000  0.31298
       4     C     3.09742  3.09742  0.00000 -0.19484
       5     C     3.13347  3.13347  0.00000 -0.26694
       6     H     0.41314  0.41314  0.00000  0.17373
       7     C     3.05668  3.05668  0.00000 -0.11335
       8     H     0.40727  0.40727  0.00000  0.18546
       9     C     2.98296  2.98296  0.00000  0.03407
      10     H     0.41597  0.41597  0.00000  0.16806
      11     C     3.09527  3.09527  0.00000 -0.19054
      12     N     3.24898  3.24898  0.00000  0.50205
      13     H     0.39950  0.39950  0.00000  0.20101
      14     O     4.17459  4.17459  0.00000 -0.34917
      15     O     4.17846  4.17846  0.00000 -0.35691

   Total alpha = 36.00000, Total beta = 36.00000, Total charge = -0.00000
