  ==> Input File <==

--------------------------------------------------------------------------
set {
	reference rhf
	basis cc-pvtz
}

set_num_threads( 4 )
memory 2 gb

molecule MOL {
0 1

H	 -2.816458	 -0.841657	 -0.064679
N	 -1.878861	 -0.711874	 0.250184
C	 -1.341419	 0.551458	 -0.220231
H	 -1.333674	 -1.468530	 -0.105118
C	 -2.458867	 1.482792	 -0.630811
H	 -0.723200	 1.061058	 0.517778
H	 -0.721081	 0.362674	 -1.089479
O	 -3.214274	 1.804488	 0.497719
H	 -2.042716	 2.387129	 -1.072586
H	 -3.084879	 0.996506	 -1.375501
C	 -4.320014	 2.605148	 0.241785
H	 -4.821407	 2.789608	 1.180916
H	 -4.028226	 3.559509	 -0.191516
H	 -5.015642	 2.117622	 -0.437172

	symmetry c1
}
set optking {
	frozen_dihedral = ("
		6 3 2 4
	")
}

ee = optimize('scf')
oeprop('DIPOLE', 'QUADRUPOLE', 'MULLIKEN_CHARGES')
f=open( 'psi4out.xyz', 'w' )
f.write( "14  " )
f.write( str(ee) + "\n" )
f.write( MOL.save_string_xyz() )
f.close()
--------------------------------------------------------------------------

    Molecular point group: c1
  Charge       = 0
  Multiplicity = 1
  Basis Set: CC-PVTZ
  Basis Set:
  @DF-RHF Final Energy:  -248.21795329551827
    Total Energy =                       -248.2179532955178729
    Molecular point group: c1
  Basis Set: CC-PVTZ
  Basis Set:
  Basis Set: CC-PVTZ
  Basis Set:
  @DF-RHF Final Energy:  -248.21937561290918
    Total Energy =                       -248.2193756129091753
  Basis Set: CC-PVTZ
  Basis Set:
  Basis Set: CC-PVTZ
  Basis Set:
  @DF-RHF Final Energy:  -248.21959328214280
    Total Energy =                       -248.2195932821427391
  Basis Set: CC-PVTZ
  Basis Set:
  Basis Set: CC-PVTZ
  Basis Set:
  @DF-RHF Final Energy:  -248.21960184977249
    Total Energy =                       -248.2196018497724594
  Basis Set: CC-PVTZ
  Basis Set:
  Basis Set: CC-PVTZ
  Basis Set:
  @DF-RHF Final Energy:  -248.21960338218514
    Total Energy =                       -248.2196033821853689
  Basis Set: CC-PVTZ
  Basis Set:
  Charge       = 0
  Multiplicity = 1
  Basis Set: CC-PVTZ
  Basis Set:

    Orbital Energies (a.u.)
    -----------------------

    Doubly Occupied:

       1A    -20.550668     2A    -15.521814     3A    -11.269925
       4A    -11.264314     5A    -11.240991     6A     -1.386324
       7A     -1.173548     8A     -1.002136     9A     -0.908981
      10A     -0.821337    11A     -0.686288    12A     -0.672222
      13A     -0.654078    14A     -0.613644    15A     -0.585270
      16A     -0.577796    17A     -0.519242    18A     -0.499968
      19A     -0.474504    20A     -0.420976    21A     -0.377756

  @DF-RHF Final Energy:  -248.21960363054609

   => Energetics <=

    Nuclear Repulsion Energy =            194.2350652019407562
    One-Electron Energy =                -722.4657800972588575
    Two-Electron Energy =                 280.0111112647720688
    DFT Exchange-Correlation Energy =       0.0000000000000000
    Empirical Dispersion Energy =           0.0000000000000000
    PCM Polarization Energy =               0.0000000000000000
    EFP Energy =                            0.0000000000000000
    Total Energy =                       -248.2196036305460325
    Molecular point group: c1
  Basis Set: CC-PVTZ
  Basis Set:

  -Total Gradient:
     Atom            X                  Y                   Z
    ------   -----------------  -----------------  -----------------
       1       -0.000012170504    -0.000009579593    -0.000014802154
       2       -0.000039873558     0.000008768906    -0.000010437180
       3       -0.000008249702     0.000039377259     0.000023030542
       4        0.000034131091    -0.000001857135     0.000022217687
       5       -0.000052497344     0.000012533298     0.000073698203
       6        0.000041524066    -0.000030996528    -0.000016076896
       7       -0.000001900795     0.000006768092    -0.000010105585
       8        0.000014923983    -0.000004968661    -0.000035350463
       9        0.000018751408    -0.000000884424    -0.000019504313
      10        0.000002528576    -0.000010395149    -0.000014019532
      11       -0.000003025668    -0.000001900393     0.000002691675
      12        0.000003407045    -0.000004046197    -0.000001191219
      13        0.000004221382    -0.000003317544     0.000000655064
      14       -0.000001769978     0.000000498073    -0.000000805829

  **** Optimization is complete! (in 6 steps) ****
    Final optimized geometry and variables:
    Molecular point group: c1

    Geometry (in Angstrom), charge = 0, multiplicity = 1:

    H           -0.119758029903    -2.012468067974     0.047861087907
    N            0.840003792606    -1.853970077227     0.262757922536
    C            1.317494840420    -0.587159810649    -0.271870719298
    H            1.369687238022    -2.624681816277    -0.078543280389
    C            0.192727077648     0.352731394463    -0.648141634351
    H            1.943275650027    -0.097355047186     0.466432530838
    H            1.923891475585    -0.725700915554    -1.164438254927
    O           -0.593803972150     0.627008386301     0.465530907156
    H            0.616213310272     1.272760925970    -1.049073142062
    H           -0.416801295207    -0.095446415911    -1.434729264491
    C           -1.655125077162     1.488206557662     0.220875683045
    H           -2.190194565426     1.626025005473     1.149009234111
    H           -1.308973970545     2.457822701926    -0.131133964171
    H           -2.339209692023     1.079153632264    -0.520048318962

  Mulliken Charges: (a.u.)
   Center  Symbol    Alpha    Beta     Spin     Total
       1     H     0.42917  0.42917  0.00000  0.14166
       2     N     3.68661  3.68661  0.00000 -0.37322
       3     C     3.01497  3.01497  0.00000 -0.02995
       4     H     0.43023  0.43023  0.00000  0.13954
       5     C     2.97472  2.97472  0.00000  0.05055
       6     H     0.46224  0.46224  0.00000  0.07552
       7     H     0.46739  0.46739  0.00000  0.06523
       8     O     4.17027  4.17027  0.00000 -0.34053
       9     H     0.46689  0.46689  0.00000  0.06623
      10     H     0.47553  0.47553  0.00000  0.04895
      11     C     3.03214  3.03214  0.00000 -0.06427
      12     H     0.44536  0.44536  0.00000  0.10927
      13     H     0.47180  0.47180  0.00000  0.05640
      14     H     0.47269  0.47269  0.00000  0.05463

   Total alpha = 21.00000, Total beta = 21.00000, Total charge = -0.00000
