  ==> Input File <==

--------------------------------------------------------------------------
set {
	reference rhf
	basis 6-31G*
}

set_num_threads( 1 )
memory 2 gb

molecule MOL {
0 1

O	 -2.356718	 -0.683097	 -0.860585
C	 -1.921153	 0.064240	 -0.045697
C	 -2.742505	 1.025351	 0.770388
O	 -0.632575	 0.154573	 0.251549
H	 -2.407080	 2.039907	 0.588417
H	 -3.784664	 0.927188	 0.505616
H	 -2.606279	 0.818922	 1.825654
C	 0.160891	 -1.019931	 0.106212
C	 1.589627	 -0.672828	 0.480843
H	 0.089836	 -1.367806	 -0.916050
H	 -0.238459	 -1.792301	 0.749618
C	 2.246377	 0.346236	 -0.452210
H	 2.163194	 -1.597435	 0.473358
H	 1.604769	 -0.303424	 1.502885
C	 3.691736	 0.652107	 -0.061850
H	 2.219579	 -0.032311	 -1.472055
H	 1.666466	 1.263317	 -0.447249
H	 4.134505	 1.377213	 -0.737283
H	 4.305508	 -0.243868	 -0.089969
H	 3.748266	 1.059562	 0.943567

	symmetry c1
}
set optking {
	frozen_dihedral = ("
		16 12 9 8,
		2 4 8 10,
		12 9 8 10
	")
}

ee = energy('scf')
oeprop('DIPOLE', 'QUADRUPOLE', 'MULLIKEN_CHARGES')
f=open( 'psi4out.xyz', 'w' )
f.write( "20  " )
f.write( str(ee) + "\n" )
f.write( MOL.save_string_xyz() )
f.close()
--------------------------------------------------------------------------

    Molecular point group: c1

    Geometry (in Angstrom), charge = 0, multiplicity = 1:

       Center              X                  Y                   Z               Mass
    ------------   -----------------  -----------------  -----------------  -----------------
           O         -2.352127257014    -0.669780607193    -0.884534628562    15.994914619560
           C         -1.916562257014     0.077556392807    -0.069646628562    12.000000000000
           C         -2.737914257014     1.038667392807     0.746438371438    12.000000000000
           O         -0.627984257014     0.167889392807     0.227599371438    15.994914619560
           H         -2.402489257014     2.053223392807     0.564467371438     1.007825032070
           H         -3.780073257014     0.940504392807     0.481666371438     1.007825032070
           H         -2.601688257014     0.832238392807     1.801704371438     1.007825032070
           C          0.165481742986    -1.006614607193     0.082262371438    12.000000000000
           C          1.594217742986    -0.659511607193     0.456893371438    12.000000000000
           H          0.094426742986    -1.354489607193    -0.939999628562     1.007825032070
           H         -0.233868257014    -1.778984607193     0.725668371438     1.007825032070
           C          2.250967742986     0.359552392807    -0.476159628562    12.000000000000
           H          2.167784742986    -1.584118607193     0.449408371438     1.007825032070
           H          1.609359742986    -0.290107607193     1.478935371438     1.007825032070
           C          3.696326742986     0.665423392807    -0.085799628562    12.000000000000
           H          2.224169742986    -0.018994607193    -1.496004628562     1.007825032070
           H          1.671056742986     1.276633392807    -0.471198628562     1.007825032070
           H          4.139095742986     1.390529392807    -0.761232628562     1.007825032070
           H          4.310098742986    -0.230551607193    -0.113918628562     1.007825032070
           H          3.752856742986     1.072878392807     0.919617371438     1.007825032070

  Charge       = 0
  Multiplicity = 1
  Basis Set: 6-31G*
  Basis Set:

    Orbital Energies (a.u.)
    -----------------------

    Doubly Occupied:

       1A    -20.597107     2A    -20.545784     3A    -11.374829
       4A    -11.284549     5A    -11.233374     6A    -11.226106
       7A    -11.219925     8A    -11.212989     9A     -1.466533
      10A     -1.362614    11A     -1.085785    12A     -1.027064
      13A     -0.982406    14A     -0.880793    15A     -0.810843
      16A     -0.775579    17A     -0.692414    18A     -0.680879
      19A     -0.665685    20A     -0.630788    21A     -0.603438
      22A     -0.592289    23A     -0.573920    24A     -0.548711
      25A     -0.541532    26A     -0.539684    27A     -0.505357
      28A     -0.484298    29A     -0.474472    30A     -0.473232
      31A     -0.448629    32A     -0.436436

  @DF-RHF Final Energy:  -383.94060137061774

   => Energetics <=

    Nuclear Repulsion Energy =            384.9496711424342266
    One-Electron Energy =               -1285.8243426189001184
    Two-Electron Energy =                 516.9340701058470131
    DFT Exchange-Correlation Energy =       0.0000000000000000
    Empirical Dispersion Energy =           0.0000000000000000
    PCM Polarization Energy =               0.0000000000000000
    EFP Energy =                            0.0000000000000000
    Total Energy =                       -383.9406013706188787

  Mulliken Charges: (a.u.)
   Center  Symbol    Alpha    Beta     Spin     Total
       1     O     4.27846  4.27846  0.00000 -0.55692
       2     C     2.61883  2.61883  0.00000  0.76234
       3     C     3.28254  3.28254  0.00000 -0.56509
       4     O     4.31023  4.31023  0.00000 -0.62046
       5     H     0.39981  0.39981  0.00000  0.20038
       6     H     0.39759  0.39759  0.00000  0.20482
       7     H     0.40257  0.40257  0.00000  0.19485
       8     C     3.00448  3.00448  0.00000 -0.00896
       9     C     3.16447  3.16447  0.00000 -0.32894
      10     H     0.40484  0.40484  0.00000  0.19033
      11     H     0.41463  0.41463  0.00000  0.17074
      12     C     3.15497  3.15497  0.00000 -0.30993
      13     H     0.41859  0.41859  0.00000  0.16282
      14     H     0.41523  0.41523  0.00000  0.16953
      15     C     3.24052  3.24052  0.00000 -0.48103
      16     H     0.42147  0.42147  0.00000  0.15706
      17     H     0.41083  0.41083  0.00000  0.17835
      18     H     0.41719  0.41719  0.00000  0.16562
      19     H     0.42189  0.42189  0.00000  0.15623
      20     H     0.42087  0.42087  0.00000  0.15826

   Total alpha = 32.00000, Total beta = 32.00000, Total charge = -0.00000
