  ==> Input File <==

--------------------------------------------------------------------------
set {
	reference rhf
	basis 6-31G*
}

set_num_threads( 4 )
memory 2 gb

molecule MOL {
0 1

H	 1.149142	 -1.038396	 0.806801
O	 1.320291	 -0.617641	 -0.024779
C	 0.709265	 0.639550	 -0.033818
C	 -0.793441	 0.596080	 0.058728
H	 1.003275	 1.111979	 -0.964179
H	 1.098560	 1.264816	 0.769000
C	 -1.530462	 -0.493172	 -0.025500
H	 -1.268471	 1.554324	 0.202247
H	 -1.092586	 -1.461565	 -0.186463
H	 -2.602122	 -0.450675	 0.050101

	symmetry c1
}
set optking {
	frozen_dihedral = ("
		5 3 4 7
	")
}

ee = optimize('scf')
oeprop('DIPOLE', 'QUADRUPOLE', 'MULLIKEN_CHARGES')
f=open( 'psi4out.xyz', 'w' )
f.write( "10  " )
f.write( str(ee) + "\n" )
f.write( MOL.save_string_xyz() )
f.close()
--------------------------------------------------------------------------

    Molecular point group: c1
  Charge       = 0
  Multiplicity = 1
  Basis Set: 6-31G*
  Basis Set:
  @DF-RHF Final Energy:  -191.91724658604011
    Total Energy =                       -191.9172465860400507
    Molecular point group: c1
  Basis Set: 6-31G*
  Basis Set:
  Charge       = 0
  Multiplicity = 1
  Basis Set: 6-31G*
  Basis Set:

    Orbital Energies (a.u.)
    -----------------------

    Doubly Occupied:

       1A    -20.560551     2A    -11.278333     3A    -11.231106
       4A    -11.219471     5A     -1.369264     6A     -1.057932
       7A     -0.928448     8A     -0.768931     9A     -0.687609
      10A     -0.661667    11A     -0.615780    12A     -0.570745
      13A     -0.538336    14A     -0.491847    15A     -0.447871
      16A     -0.364851

  @DF-RHF Final Energy:  -191.91724711035462

   => Energetics <=

    Nuclear Repulsion Energy =            119.3993990911337448
    One-Electron Energy =                -497.0478082840747902
    Two-Electron Energy =                 185.7311620825864793
    DFT Exchange-Correlation Energy =       0.0000000000000000
    Empirical Dispersion Energy =           0.0000000000000000
    PCM Polarization Energy =               0.0000000000000000
    EFP Energy =                            0.0000000000000000
    Total Energy =                       -191.9172471103545377
    Molecular point group: c1
  Basis Set: 6-31G*
  Basis Set:

  -Total Gradient:
     Atom            X                  Y                   Z
    ------   -----------------  -----------------  -----------------
       1       -0.000031779182     0.000038194871    -0.000015939013
       2       -0.000064281854     0.000057514049    -0.000115507002
       3        0.000007792275     0.000163134161     0.000115584895
       4        0.000011730397    -0.000155511909     0.000266637341
       5        0.000055348606    -0.000194994415    -0.000081146950
       6       -0.000003619103     0.000040949193     0.000007364782
       7       -0.000014939005     0.000044998439    -0.000199265431
       8        0.000014262580     0.000010290623    -0.000021526518
       9        0.000031647055    -0.000006775552     0.000048279090
      10       -0.000006161767     0.000002200541    -0.000004481194

  **** Optimization is complete! (in 2 steps) ****
    Final optimized geometry and variables:
    Molecular point group: c1

    Geometry (in Angstrom), charge = 0, multiplicity = 1:

    H            1.143960191602    -1.041387426368     0.798101044967
    O            1.319146508018    -0.617677026527    -0.031154213488
    C            0.709105593209     0.639868668203    -0.037724752704
    C           -0.793652148365     0.595787574016     0.054358519124
    H            1.003305795775     1.111832399910    -0.968286895125
    H            1.099254855617     1.264080425670     0.765576653081
    C           -1.529713286085    -0.494122450923    -0.029478112782
    H           -1.269596411625     1.554017720729     0.194590956244
    H           -1.090535704027    -1.462482290187    -0.186911235635
    H           -2.601485709997    -0.452393997727     0.044304884273

  Mulliken Charges: (a.u.)
   Center  Symbol    Alpha    Beta     Spin     Total
       1     H     0.28094  0.28094  0.00000  0.43813
       2     O     4.36680  4.36680  0.00000 -0.73359
       3     C     3.00025  3.00025  0.00000 -0.00049
       4     C     3.09404  3.09404  0.00000 -0.18808
       5     H     0.40812  0.40812  0.00000  0.18376
       6     H     0.42571  0.42571  0.00000  0.14859
       7     C     3.19702  3.19702  0.00000 -0.39405
       8     H     0.41018  0.41018  0.00000  0.17964
       9     H     0.40597  0.40597  0.00000  0.18806
      10     H     0.41098  0.41098  0.00000  0.17803

   Total alpha = 16.00000, Total beta = 16.00000, Total charge =  0.00000
