                              Psi4 1.0.54 Driver

  ==> Input File <==

--------------------------------------------------------------------------
set {
	reference rhf
	basis cc-pvtz
}

set_num_threads( 4 )
memory 2 gb

molecule MOL {
0 1

O	 -2.440701	 -0.934798	 -0.415053
C	 -1.922978	 0.063265	 -0.045005
C	 -2.632749	 1.372204	 0.158357
O	 -0.637375	 0.157174	 0.243149
H	 -2.187724	 2.129143	 -0.474664
H	 -3.677681	 1.257276	 -0.079438
H	 -2.516788	 1.693160	 1.185542
C	 0.162530	 -1.009518	 0.097799
C	 1.587210	 -0.664190	 0.477086
H	 0.096803	 -1.356267	 -0.924704
H	 -0.233803	 -1.785900	 0.736810
C	 2.256770	 0.342732	 -0.454344
H	 2.154716	 -1.590834	 0.479041
H	 1.598751	 -0.289614	 1.496104
C	 2.156768	 -0.057366	 -1.922519
H	 1.797989	 1.317853	 -0.313783
H	 3.299388	 0.450009	 -0.178154
H	 2.635800	 0.675635	 -2.560973
H	 1.121947	 -0.143903	 -2.237239
H	 2.636328	 -1.014103	 -2.100544

	symmetry c1
}
set optking {
	frozen_dihedral = ("
		16 12 9 8
	")
}

ee,wfn = optimize('scf', return_wfn=True)
oeprop( wfn, 'DIPOLE', 'QUADRUPOLE', 'MULLIKEN_CHARGES')
f=open( 'psi4out.xyz', 'w' )
f.write( "20  " )
f.write( str(ee) + "\n" )
f.write( MOL.save_string_xyz() )
f.close()
--------------------------------------------------------------------------

    Molecular point group: c1
  Charge       = 0
  Multiplicity = 1
  Basis Set: CC-PVTZ
  Basis Set:
  @DF-RHF Final Energy:  -384.08436729192158
    Total Energy =                       -384.0843672919216942
    Molecular point group: c1
  Basis Set: CC-PVTZ
  Basis Set:
  Basis Set: CC-PVTZ
  Basis Set:
  @DF-RHF Final Energy:  -384.00779963102241
    Total Energy =                       -384.0077996310225217
  Basis Set: CC-PVTZ
  Basis Set:
  Basis Set: CC-PVTZ
  Basis Set:
  @DF-RHF Final Energy:  -384.04068535417588
    Total Energy =                       -384.0406853541759347
  Basis Set: CC-PVTZ
  Basis Set:
  Basis Set: CC-PVTZ
  Basis Set:
  @DF-RHF Final Energy:  -384.08097405679877
    Total Energy =                       -384.0809740567987092
  Basis Set: CC-PVTZ
  Basis Set:
  @DF-RHF Final Energy:  -384.08515409091183
    Total Energy =                       -384.0851540909113737
  @DF-RHF Final Energy:  -384.08555368439164
    Total Energy =                       -384.0855536843914706
  @DF-RHF Final Energy:  -384.08398622012726
    Total Energy =                       -384.0839862201274855
  @DF-RHF Final Energy:  -384.08567111704599
    Total Energy =                       -384.0856711170461040
  Basis Set: CC-PVTZ
  Basis Set:
  @DF-RHF Final Energy:  -384.08574626194792
    Total Energy =                       -384.0857462619480884
  Basis Set: CC-PVTZ
  Basis Set:
  Basis Set: CC-PVTZ
  Basis Set:
  @DF-RHF Final Energy:  -384.08575253991967
    Total Energy =                       -384.0857525399198948
  Basis Set: CC-PVTZ
  Basis Set:
  Basis Set: CC-PVTZ
  Basis Set:
  @DF-RHF Final Energy:  -384.08575382751297
    Total Energy =                       -384.0857538275124625
  Basis Set: CC-PVTZ
  Basis Set:
  Charge       = 0
  Multiplicity = 1
  Basis Set: CC-PVTZ
  Basis Set:

    Orbital Energies (a.u.)
    -----------------------

    Doubly Occupied:

       1A    -20.594276     2A    -20.532723     3A    -11.366681
       4A    -11.279251     5A    -11.231717     6A    -11.223898
       7A    -11.219173     8A    -11.211447     9A     -1.470903
      10A     -1.365110    11A     -1.086536    12A     -1.027648
      13A     -0.979871    14A     -0.892555    15A     -0.808043
      16A     -0.769385    17A     -0.693254    18A     -0.691067
      19A     -0.667429    20A     -0.623890    21A     -0.619819
      22A     -0.578961    23A     -0.574450    24A     -0.564267
      25A     -0.537189    26A     -0.529576    27A     -0.524085
      28A     -0.478681    29A     -0.477036    30A     -0.469582
      31A     -0.452842    32A     -0.441957

  @DF-RHF Final Energy:  -384.08575388035354

   => Energetics <=

    Nuclear Repulsion Energy =            392.6812458303671747
    One-Electron Energy =               -1301.5674023551555365
    Two-Electron Energy =                 524.8004026444345982
    DFT Exchange-Correlation Energy =       0.0000000000000000
    Empirical Dispersion Energy =           0.0000000000000000
    PCM Polarization Energy =               0.0000000000000000
    EFP Energy =                            0.0000000000000000
    Total Energy =                       -384.0857538803537636
    Molecular point group: c1
  Basis Set: CC-PVTZ
  Basis Set:

  -Total Gradient:
     Atom            X                  Y                   Z
    ------   -----------------  -----------------  -----------------
       1       -0.000009581297     0.000001361593     0.000000282706
       2        0.000011100021    -0.000009434727    -0.000004252919
       3       -0.000001754287    -0.000005820593    -0.000006221186
       4       -0.000012329742     0.000023959755    -0.000011445385
       5        0.000002282666     0.000001594029     0.000000056267
       6       -0.000005634565     0.000001167775     0.000002591132
       7        0.000002387250     0.000001290993     0.000005099955
       8        0.000245912929    -0.001075708383    -0.000932542781
       9        0.000082225015     0.001646231986     0.001538499853
      10       -0.000004908331     0.000008208329     0.000003774279
      11       -0.000001450530     0.000004796544    -0.000011341543
      12       -0.001992303016    -0.001246707395    -0.001207575787
      13        0.000000584756    -0.000000870803    -0.000003218939
      14       -0.000008162643    -0.000002660973    -0.000002772646
      15       -0.000001115213    -0.000003695916    -0.000010561924
      16        0.001691369613     0.000654121001     0.000644015929
      17       -0.000003869834    -0.000001161908    -0.000005064428
      18       -0.000001377772    -0.000004181202     0.000000904423
      19        0.000009272097     0.000006501202     0.000000134822
      20       -0.000002647123     0.000001008697    -0.000000361826

  **** Optimization is complete! (in 12 steps) ****
    Final optimized geometry and variables:
    Molecular point group: c1

    Geometry (in Angstrom), charge = 0, multiplicity = 1:

    O           -1.900277717640    -1.204200077242     0.919089756466
    C           -1.469928454849    -0.101819686263     0.943891859882
    C           -2.248801126745     1.112486820356     1.364031436601
    O           -0.232463724088     0.207793291607     0.601189578787
    H           -2.276426287771     1.825966306499     0.550527017676
    H           -3.250167463621     0.822764952107     1.637902286932
    H           -1.755613422573     1.588246122797     2.201842174380
    C            0.625095994608    -0.847734685508     0.184167672978
    C            1.981513964004    -0.260626223987    -0.148814689614
    H            0.180046868460    -1.348943658950    -0.662363196011
    H            0.707675964717    -1.569174409124     0.984700926060
    C            2.000170503753     0.781906083969    -1.269415820440
    H            2.623380423607    -1.094286531120    -0.421817193524
    H            2.404446098390     0.175627277860     0.749728159692
    C            1.379009672377     0.326450216148    -2.586368576138
    H            1.515640781546     1.688593667127    -0.925358504780
    H            3.037037436389     1.050866057844    -1.446500363426
    H            1.525114030815     1.076610953843    -3.354564431079
    H            0.312525677905     0.159610552431    -2.495535399502
    H            1.830992642803    -0.595968067496    -2.937322737787

  Mulliken Charges: (a.u.)
   Center  Symbol    Alpha    Beta     Spin     Total
       1     O     4.19717  4.19717  0.00000 -0.39434
       2     C     2.80965  2.80965  0.00000  0.38071
       3     C     3.13843  3.13843  0.00000 -0.27685
       4     O     4.15494  4.15494  0.00000 -0.30989
       5     H     0.44615  0.44615  0.00000  0.10771
       6     H     0.43781  0.43781  0.00000  0.12438
       7     H     0.44562  0.44562  0.00000  0.10876
       8     C     2.99758  2.99758  0.00000  0.00483
       9     C     3.09370  3.09370  0.00000 -0.18741
      10     H     0.44849  0.44849  0.00000  0.10302
      11     H     0.44018  0.44018  0.00000  0.11963
      12     C     3.08749  3.08749  0.00000 -0.17499
      13     H     0.45083  0.45083  0.00000  0.09834
      14     H     0.44712  0.44712  0.00000  0.10576
      15     C     3.15651  3.15651  0.00000 -0.31302
      16     H     0.44878  0.44878  0.00000  0.10243
      17     H     0.44866  0.44866  0.00000  0.10269
      18     H     0.44491  0.44491  0.00000  0.11018
      19     H     0.45220  0.45220  0.00000  0.09560
      20     H     0.45377  0.45377  0.00000  0.09246

   Total alpha = 32.00000, Total beta = 32.00000, Total charge =  0.00000

*** Psi4 exiting successfully. Buy a developer a beer!
