  ==> Input File <==

--------------------------------------------------------------------------
set {
	reference rhf
	basis 6-31G*
}

set_num_threads( 4 )
memory 2 gb

molecule MOL {
0 1

H	 1.843055	 0.069849	 1.064088
C	 1.049282	 -0.484033	 0.605803
C	 1.042359	 -1.867295	 0.601806
C	 0.000000	 0.183220	 0.000000
H	 1.848008	 -2.404452	 1.066948
C	 0.000000	 -2.555744	 0.000000
N	 0.000000	 1.642018	 0.000000
C	 -1.049282	 -0.484034	 -0.605803
H	 0.000000	 -3.630640	 0.000000
C	 -1.042359	 -1.867295	 -0.601806
O	 1.057097	 2.196749	 0.000000
O	 -1.057097	 2.196749	 0.000000
H	 -1.843055	 0.069849	 -1.064088
H	 -1.848008	 -2.404452	 -1.066948

	symmetry c1
}
set optking {
	frozen_dihedral = ("
		2 4 7 11
	")
}

ee = optimize('scf')
oeprop('DIPOLE', 'QUADRUPOLE', 'MULLIKEN_CHARGES')
f=open( 'psi4out.xyz', 'w' )
f.write( "14  " )
f.write( str(ee) + "\n" )
f.write( MOL.save_string_xyz() )
f.close()
--------------------------------------------------------------------------

    Molecular point group: c1
  Charge       = 0
  Multiplicity = 1
  Basis Set: 6-31G*
  Basis Set:
  @DF-RHF Final Energy:  -434.17239041070223
    Total Energy =                       -434.1723904107019507
    Molecular point group: c1
  Basis Set: 6-31G*
  Basis Set:
  Basis Set: 6-31G*
  Basis Set:
  @DF-RHF Final Energy:  -434.16531781395935
    Total Energy =                       -434.1653178139591773
  Basis Set: 6-31G*
  Basis Set:
  Basis Set: 6-31G*
  Basis Set:
  @DF-RHF Final Energy:  -434.17240652627288
    Total Energy =                       -434.1724065262729937
  Basis Set: 6-31G*
  Basis Set:
  Basis Set: 6-31G*
  Basis Set:
  @DF-RHF Final Energy:  -434.17260328173757
    Total Energy =                       -434.1726032817374517
  Basis Set: 6-31G*
  Basis Set:
  Basis Set: 6-31G*
  Basis Set:
  @DF-RHF Final Energy:  -434.17260411147191
    Total Energy =                       -434.1726041114718555
  Basis Set: 6-31G*
  Basis Set:
  Charge       = 0
  Multiplicity = 1
  Basis Set: 6-31G*
  Basis Set:

    Orbital Energies (a.u.)
    -----------------------

    Doubly Occupied:

       1A    -20.602307     2A    -20.602219     3A    -15.855390
       4A    -11.304698     5A    -11.271267     6A    -11.271101
       7A    -11.267286     8A    -11.261742     9A    -11.261601
      10A     -1.634680    11A     -1.418259    12A     -1.202052
      13A     -1.094936    14A     -1.053172    15A     -0.957961
      16A     -0.866580    17A     -0.825488    18A     -0.783127
      19A     -0.733314    20A     -0.728898    21A     -0.710873
      22A     -0.652985    23A     -0.649899    24A     -0.624492
      25A     -0.554864    26A     -0.538473    27A     -0.530264
      28A     -0.489145    29A     -0.488181    30A     -0.450826
      31A     -0.372463    32A     -0.366006

  @DF-RHF Final Energy:  -434.17260587204862

   => Energetics <=

    Nuclear Repulsion Energy =            417.1132650043432477
    One-Electron Energy =               -1417.7226432040567943
    Two-Electron Energy =                 566.4367723276648121
    DFT Exchange-Correlation Energy =       0.0000000000000000
    Empirical Dispersion Energy =           0.0000000000000000
    PCM Polarization Energy =               0.0000000000000000
    EFP Energy =                            0.0000000000000000
    Total Energy =                       -434.1726058720487345
    Molecular point group: c1
  Basis Set: 6-31G*
  Basis Set:

  -Total Gradient:
     Atom            X                  Y                   Z
    ------   -----------------  -----------------  -----------------
       1        0.000000714327    -0.000001811334    -0.000001808149
       2       -0.001633510878    -0.000074417619     0.002737652662
       3        0.000010941706     0.000013070672    -0.000004157528
       4        0.002377971318     0.000117855036    -0.005342781355
       5       -0.000000380721    -0.000000005889     0.000001166689
       6       -0.000009799621    -0.000000740800    -0.000011894873
       7       -0.000807453169    -0.000125799857     0.006247851837
       8        0.000015245938     0.000007527075    -0.000004216926
       9        0.000001029925     0.000000447077     0.000001736441
      10        0.000000029523    -0.000011118266     0.000015957487
      11        0.000068411526     0.000064981247    -0.003637398860
      12       -0.000022618732     0.000008749115     0.000000702378
      13       -0.000000496441    -0.000001771579    -0.000000714686
      14       -0.000000084707     0.000003035117    -0.000002095116

  **** Optimization is complete! (in 6 steps) ****
    Final optimized geometry and variables:
    Molecular point group: c1

    Geometry (in Angstrom), charge = 0, multiplicity = 1:

    H            1.853493815492     0.074259727674     1.046255810221
    C            1.055098008286    -0.481301487512     0.595993336315
    C            1.041109535302    -1.864801059868     0.604220266239
    C            0.009972143970     0.183243909838    -0.016796457665
    H            1.840309850598    -2.402288275922     1.079912753065
    C           -0.000668802889    -2.552478628063     0.000377457162
    N           -0.000914775408     1.639686320974     0.008051622997
    C           -1.051206223180    -0.480285904559    -0.602665808751
    H           -0.003385155675    -3.627343331016     0.004140854261
    C           -1.041543850788    -1.863774140389    -0.604224182675
    O            1.054311440474     2.197686012945     0.035328939517
    O           -1.062388385544     2.184817162994    -0.026110180409
    H           -1.854004288643     0.075372196848    -1.044548000987
    H           -1.847457819166    -2.400847710864    -1.068949038950

  Mulliken Charges: (a.u.)
   Center  Symbol    Alpha    Beta     Spin     Total
       1     H     0.36769  0.36769  0.00000  0.26461
       2     C     3.08605  3.08605  0.00000 -0.17210
       3     C     3.10786  3.10786  0.00000 -0.21573
       4     C     2.91421  2.91421  0.00000  0.17158
       5     H     0.38846  0.38846  0.00000  0.22308
       6     C     3.08740  3.08740  0.00000 -0.17480
       7     N     3.24991  3.24991  0.00000  0.50017
       8     C     3.08477  3.08477  0.00000 -0.16954
       9     H     0.38913  0.38913  0.00000  0.22174
      10     C     3.10806  3.10806  0.00000 -0.21611
      11     O     4.22961  4.22961  0.00000 -0.45922
      12     O     4.23079  4.23079  0.00000 -0.46157
      13     H     0.36762  0.36762  0.00000  0.26477
      14     H     0.38845  0.38845  0.00000  0.22311

   Total alpha = 32.00000, Total beta = 32.00000, Total charge =  0.00000
