  ==> Input File <==

--------------------------------------------------------------------------
set {
	reference rhf
	basis cc-pvtz
}

set_num_threads( 4 )
memory 2 gb

molecule MOL {
0 1

O	 -2.440701	 -0.934798	 -0.415053
C	 -1.922978	 0.063265	 -0.045005
C	 -2.632749	 1.372204	 0.158357
O	 -0.637375	 0.157174	 0.243149
H	 -2.187724	 2.129143	 -0.474664
H	 -3.677681	 1.257276	 -0.079438
H	 -2.516788	 1.693160	 1.185542
C	 0.162530	 -1.009518	 0.097799
C	 1.587210	 -0.664190	 0.477086
H	 0.096803	 -1.356267	 -0.924704
H	 -0.233803	 -1.785900	 0.736810
C	 2.256770	 0.342732	 -0.454344
H	 2.154716	 -1.590834	 0.479041
H	 1.598751	 -0.289614	 1.496104
C	 2.218437	 1.765730	 0.092669
H	 3.289587	 0.045949	 -0.616537
H	 1.772014	 0.313787	 -1.423373
H	 2.703384	 2.458338	 -0.585201
H	 2.723304	 1.832783	 1.050795
H	 1.196979	 2.102762	 0.234263

	symmetry c1
}
set optking {
	frozen_dihedral = ("
		16 12 9 8
	")
}

ee = optimize('scf')
oeprop('DIPOLE', 'QUADRUPOLE', 'MULLIKEN_CHARGES')
f=open( 'psi4out.xyz', 'w' )
f.write( "20  " )
f.write( str(ee) + "\n" )
f.write( MOL.save_string_xyz() )
f.close()
--------------------------------------------------------------------------

    Molecular point group: c1
  Charge       = 0
  Multiplicity = 1
  Basis Set: CC-PVTZ
  Basis Set:
  @DF-RHF Final Energy:  -384.08300406357796
    Total Energy =                       -384.0830040635777323
    Molecular point group: c1
  Basis Set: CC-PVTZ
  Basis Set:
  Basis Set: CC-PVTZ
  Basis Set:
  @DF-RHF Final Energy:  -384.08337685776928
    Total Energy =                       -384.0833768577695082
  Basis Set: CC-PVTZ
  Basis Set:
  Basis Set: CC-PVTZ
  Basis Set:
  @DF-RHF Final Energy:  -384.08333375023233
    Total Energy =                       -384.0833337502321001
  Basis Set: CC-PVTZ
  Basis Set:
  Basis Set: CC-PVTZ
  Basis Set:
  @DF-RHF Final Energy:  -384.08341051746044
    Total Energy =                       -384.0834105174601518
  Basis Set: CC-PVTZ
  Basis Set:
  Basis Set: CC-PVTZ
  Basis Set:
  @DF-RHF Final Energy:  -384.08344359208485
    Total Energy =                       -384.0834435920851320
  Basis Set: CC-PVTZ
  Basis Set:
  Charge       = 0
  Multiplicity = 1
  Basis Set: CC-PVTZ
  Basis Set:

    Orbital Energies (a.u.)
    -----------------------

    Doubly Occupied:

       1A    -20.594838     2A    -20.533282     3A    -11.367216
       4A    -11.280539     5A    -11.232229     6A    -11.223989
       7A    -11.220042     8A    -11.207619     9A     -1.471545
      10A     -1.365735    11A     -1.085026    12A     -1.028075
      13A     -0.981692    14A     -0.884749    15A     -0.807177
      16A     -0.778667    17A     -0.693936    18A     -0.688703
      19A     -0.670264    20A     -0.620036    21A     -0.604077
      22A     -0.597607    23A     -0.575727    24A     -0.556085
      25A     -0.540689    26A     -0.534787    27A     -0.512351
      28A     -0.480944    29A     -0.477121    30A     -0.469026
      31A     -0.452243    32A     -0.441690

  @DF-RHF Final Energy:  -384.08344431433602

   => Energetics <=

    Nuclear Repulsion Energy =            392.4133561129178815
    One-Electron Energy =               -1301.0381860803024665
    Two-Electron Energy =                 524.5413856530489056
    DFT Exchange-Correlation Energy =       0.0000000000000000
    Empirical Dispersion Energy =           0.0000000000000000
    PCM Polarization Energy =               0.0000000000000000
    EFP Energy =                            0.0000000000000000
    Total Energy =                       -384.0834443143356793
    Molecular point group: c1
  Basis Set: CC-PVTZ
  Basis Set:

  -Total Gradient:
     Atom            X                  Y                   Z
    ------   -----------------  -----------------  -----------------
       1       -0.000007591586     0.000004202437    -0.000019726902
       2       -0.000005362465    -0.000053645415     0.000142261030
       3        0.000013390288     0.000023618220    -0.000070954605
       4        0.000092150505     0.000010533415     0.000026097825
       5       -0.000005492335     0.000015719131     0.000010553655
       6       -0.000000505703     0.000000368028    -0.000002741991
       7        0.000002733545    -0.000016130164     0.000000919029
       8        0.000452826835    -0.000976845317    -0.000935388009
       9       -0.000758401160     0.001139572748     0.000787478509
      10        0.000033698219     0.000010644634     0.000063796671
      11       -0.000076184088    -0.000017879541     0.000034283823
      12        0.000763862225     0.000675678364     0.001383189984
      13       -0.000047769257    -0.000043694964     0.000035903862
      14       -0.000019751755    -0.000002015165    -0.000010500916
      15        0.000041831007    -0.000029352233    -0.000097266614
      16       -0.000457894427    -0.000853852545    -0.001396853303
      17        0.000027180281     0.000064661253     0.000051108242
      18       -0.000008520935     0.000071701469     0.000016380053
      19       -0.000018690973    -0.000025869599    -0.000027346052
      20       -0.000021508220     0.000002585244     0.000008805708

  **** Optimization is complete! (in 6 steps) ****
    Final optimized geometry and variables:
    Molecular point group: c1

    Geometry (in Angstrom), charge = 0, multiplicity = 1:

    O           -2.256050898111    -1.093584846022    -0.413740171988
    C           -1.738837123218    -0.088355726196    -0.063348703424
    C           -2.449968197040     1.222697846488     0.118607623446
    O           -0.451488963144     0.012326826717     0.216358209810
    H           -2.011861163602     1.967124238524    -0.533799180570
    H           -3.496441438728     1.100654085793    -0.108622676755
    H           -2.326655570792     1.564995818022     1.137955034507
    C            0.347943719935    -1.156692075674     0.085413725241
    C            1.779113009199    -0.819719860858     0.448732513057
    H            0.278055634262    -1.516172644139    -0.932063867533
    H           -0.047271821485    -1.924253539840     0.735987583746
    C            2.454140602972     0.215925380980    -0.466873547894
    H            2.325916161426    -1.756278106019     0.404280788665
    H            1.818980372685    -0.490756501131     1.481921597684
    C            2.435458716767     1.641446062033     0.077296488333
    H            3.481250116151    -0.084190071333    -0.643783452125
    H            1.973807992045     0.198074720481    -1.440718396110
    H            2.913394861567     2.326289977886    -0.614192425585
    H            2.967851162508     1.701391103844     1.020791724411
    H            1.422861936643     1.984447801625     0.245519307884

  Mulliken Charges: (a.u.)
   Center  Symbol    Alpha    Beta     Spin     Total
       1     O     4.19750  4.19750  0.00000 -0.39501
       2     C     2.80794  2.80794  0.00000  0.38413
       3     C     3.14139  3.14139  0.00000 -0.28278
       4     O     4.15380  4.15380  0.00000 -0.30761
       5     H     0.44589  0.44589  0.00000  0.10822
       6     H     0.43593  0.43593  0.00000  0.12814
       7     H     0.44527  0.44527  0.00000  0.10947
       8     C     2.99212  2.99212  0.00000  0.01577
       9     C     3.09258  3.09258  0.00000 -0.18516
      10     H     0.45175  0.45175  0.00000  0.09650
      11     H     0.44465  0.44465  0.00000  0.11070
      12     C     3.08834  3.08834  0.00000 -0.17668
      13     H     0.44510  0.44510  0.00000  0.10979
      14     H     0.45231  0.45231  0.00000  0.09539
      15     C     3.14772  3.14772  0.00000 -0.29545
      16     H     0.44737  0.44737  0.00000  0.10526
      17     H     0.45452  0.45452  0.00000  0.09095
      18     H     0.45014  0.45014  0.00000  0.09971
      19     H     0.45649  0.45649  0.00000  0.08702
      20     H     0.44919  0.44919  0.00000  0.10163

   Total alpha = 32.00000, Total beta = 32.00000, Total charge = -0.00000
