                              Psi4 1.0.54 Driver

  ==> Input File <==

--------------------------------------------------------------------------
set {
	reference rhf
	basis cc-pvtz
}

set_num_threads( 4 )
memory 2 gb

molecule MOL {
0 1

H	 -3.144994	 -1.202467	 -0.018751
O	 -2.321472	 -0.864941	 -0.318626
C	 -2.021813	 0.336996	 0.342658
C	 -0.669613	 0.837286	 -0.127252
H	 -2.780861	 1.084746	 0.127159
H	 -2.006390	 0.184138	 1.420053
C	 0.490865	 -0.082543	 0.241244
H	 -0.708709	 0.967192	 -1.204587
H	 -0.507562	 1.822272	 0.303070
C	 0.233425	 -0.889609	 1.510486
H	 1.390123	 0.510133	 0.364235
H	 0.681781	 -0.765230	 -0.584353
C	 1.389535	 -1.814900	 1.875223
H	 0.044673	 -0.208218	 2.335581
H	 -0.672793	 -1.477423	 1.388283
H	 2.302793	 -1.252591	 2.038577
H	 1.177332	 -2.371865	 2.780797
H	 1.581874	 -2.531817	 1.083717

	symmetry c1
}
set optking {
	frozen_dihedral = ("
		10 7 4 8
	")
}

ee,wfn = optimize('scf', return_wfn=True)
oeprop( wfn, 'DIPOLE', 'QUADRUPOLE', 'MULLIKEN_CHARGES')
f=open( 'psi4out.xyz', 'w' )
f.write( "18  " )
f.write( str(ee) + "\n" )
f.write( MOL.save_string_xyz() )
f.close()
--------------------------------------------------------------------------

    Molecular point group: c1
  Charge       = 0
  Multiplicity = 1
  Basis Set: CC-PVTZ
  Basis Set:
  @DF-RHF Final Energy:  -271.27875829571508
    Total Energy =                       -271.2787582957149084
    Molecular point group: c1
  Basis Set: CC-PVTZ
  Basis Set:
  Basis Set: CC-PVTZ
  Basis Set:
  @DF-RHF Final Energy:  -271.23486521672083
    Total Energy =                       -271.2348652167208911
  Basis Set: CC-PVTZ
  Basis Set:
  Basis Set: CC-PVTZ
  Basis Set:
  @DF-RHF Final Energy:  -271.27819184157079
    Total Energy =                       -271.2781918415709583
  Basis Set: CC-PVTZ
  Basis Set:
  Basis Set: CC-PVTZ
  Basis Set:
  @DF-RHF Final Energy:  -271.28108041673443
    Total Energy =                       -271.2810804167345964
  Basis Set: CC-PVTZ
  Basis Set:
  @DF-RHF Final Energy:  -271.28135296130506
    Total Energy =                       -271.2813529613049468
  Basis Set: CC-PVTZ
  Basis Set:
  @DF-RHF Final Energy:  -271.28137246056758
    Total Energy =                       -271.2813724605679226
  Basis Set: CC-PVTZ
  Basis Set:
  Basis Set: CC-PVTZ
  Basis Set:
  @DF-RHF Final Energy:  -271.28137571993614
    Total Energy =                       -271.2813757199363636
  Basis Set: CC-PVTZ
  Basis Set:
  Basis Set: CC-PVTZ
  Basis Set:
  @DF-RHF Final Energy:  -271.28137874967365
    Total Energy =                       -271.2813787496736495
  Basis Set: CC-PVTZ
  Basis Set:
  Charge       = 0
  Multiplicity = 1
  Basis Set: CC-PVTZ
  Basis Set:

    Orbital Energies (a.u.)
    -----------------------

    Doubly Occupied:

       1A    -20.547201     2A    -11.265202     3A    -11.211320
       4A    -11.206810     5A    -11.206142     6A    -11.201724
       7A     -1.364674     8A     -1.073740     9A     -1.007412
      10A     -0.913930    11A     -0.834149    12A     -0.766073
      13A     -0.708987    14A     -0.645510    15A     -0.628287
      16A     -0.585144    17A     -0.562427    18A     -0.554451
      19A     -0.538661    20A     -0.497269    21A     -0.492536
      22A     -0.464763    23A     -0.455258    24A     -0.446036
      25A     -0.431729

  @DF-RHF Final Energy:  -271.28137878038058

   => Energetics <=

    Nuclear Repulsion Energy =            255.4981062928983420
    One-Electron Energy =                -874.3401044604653407
    Two-Electron Energy =                 347.5606193871864207
    DFT Exchange-Correlation Energy =       0.0000000000000000
    Empirical Dispersion Energy =           0.0000000000000000
    PCM Polarization Energy =               0.0000000000000000
    EFP Energy =                            0.0000000000000000
    Total Energy =                       -271.2813787803805781
    Molecular point group: c1
  Basis Set: CC-PVTZ
  Basis Set:

  -Total Gradient:
     Atom            X                  Y                   Z
    ------   -----------------  -----------------  -----------------
       1       -0.000003354287    -0.000003521361    -0.000003929101
       2       -0.000001444291     0.000013871105     0.000012366679
       3        0.000006686134    -0.000019006843    -0.000003131047
       4        0.002412125558     0.005205775673    -0.000158243451
       5       -0.000003333311    -0.000002374675    -0.000002704544
       6       -0.000001833118    -0.000000526114     0.000004670562
       7        0.000458003809     0.003939700538     0.003682056219
       8       -0.002204458545    -0.005545678512    -0.000848448754
       9        0.000001628808     0.000003596017     0.000001848661
      10       -0.000667641329    -0.003591133372    -0.002681129460
      11        0.000000094434     0.000000081338     0.000002394145
      12        0.000001612729    -0.000001245193    -0.000002411486
      13        0.000001132378    -0.000003325543    -0.000003553594
      14       -0.000002268524     0.000001291940     0.000002728760
      15        0.000002770305     0.000002225583    -0.000000851618
      16       -0.000001220603     0.000001426312     0.000000421599
      17       -0.000001008446    -0.000000405237    -0.000001267347
      18        0.000002508294    -0.000000751656    -0.000000816222

  **** Optimization is complete! (in 9 steps) ****
    Final optimized geometry and variables:
    Molecular point group: c1

    Geometry (in Angstrom), charge = 0, multiplicity = 1:

    H           -2.320077228402    -1.379013796461    -1.017325661342
    O           -1.559487138822    -0.843291267622    -1.146578299351
    C           -1.684519897882     0.357433961622    -0.427438761900
    C           -0.444116075067     1.202018753493    -0.663295973116
    H           -2.554558806337     0.911519975463    -0.770802987336
    H           -1.824911610559     0.155312455460     0.630103946932
    C            0.888661260753     0.597589802821    -0.181724921559
    H           -0.391528663166     1.345494559617    -1.736954557793
    H           -0.611262038133     2.169494939402    -0.200881511029
    C            0.824926749672    -0.307809741655     1.047269046250
    H            1.586992258465     1.408272444300     0.003212309112
    H            1.313954252570     0.015328642344    -0.992457299636
    C            2.204957930825    -0.801193658494     1.470916688926
    H            0.368590795730     0.223062826686     1.879827584350
    H            0.191578359163    -1.159431094400     0.834090127550
    H            2.857425000473     0.026603086989     1.728630478604
    H            2.140507659428    -1.452519387466     2.335241493776
    H            2.681331254001    -1.359302502684     0.671698734158

  Mulliken Charges: (a.u.)
   Center  Symbol    Alpha    Beta     Spin     Total
       1     H     0.39491  0.39491  0.00000  0.21019
       2     O     4.20226  4.20226  0.00000 -0.40453
       3     C     2.98512  2.98512  0.00000  0.02977
       4     C     3.09879  3.09879  0.00000 -0.19758
       5     H     0.45749  0.45749  0.00000  0.08502
       6     H     0.46552  0.46552  0.00000  0.06897
       7     C     3.08417  3.08417  0.00000 -0.16834
       8     H     0.44986  0.44986  0.00000  0.10029
       9     H     0.45133  0.45133  0.00000  0.09734
      10     C     3.08980  3.08980  0.00000 -0.17959
      11     H     0.45208  0.45208  0.00000  0.09585
      12     H     0.45139  0.45139  0.00000  0.09723
      13     C     3.15177  3.15177  0.00000 -0.30355
      14     H     0.45726  0.45726  0.00000  0.08547
      15     H     0.44805  0.44805  0.00000  0.10390
      16     H     0.45615  0.45615  0.00000  0.08769
      17     H     0.44969  0.44969  0.00000  0.10062
      18     H     0.45437  0.45437  0.00000  0.09125

   Total alpha = 25.00000, Total beta = 25.00000, Total charge = -0.00000

*** Psi4 exiting successfully. Buy a developer a beer!
