  ==> Input File <==

--------------------------------------------------------------------------
set {
	reference rhf
	basis 6-31G*
}

set_num_threads( 4 )
memory 2 gb

molecule MOL {
0 1

H	 2.450281	 0.717071	 0.592908
O	 1.545646	 0.838557	 0.842697
C	 0.702312	 0.627605	 -0.264544
C	 -0.714990	 0.596302	 0.266387
H	 0.930039	 -0.319411	 -0.746370
H	 0.812720	 1.424993	 -0.996327
O	 -1.405996	 -0.526611	 -0.195820
H	 -1.257453	 1.468809	 -0.075599
H	 -0.688972	 0.618407	 1.353696
H	 -0.890587	 -1.292708	 0.022039

	symmetry c1
}
set optking {
	frozen_dihedral = ("
		5 3 4 7
	")
}

ee = optimize('scf')
oeprop('DIPOLE', 'QUADRUPOLE', 'MULLIKEN_CHARGES')
f=open( 'psi4out.xyz', 'w' )
f.write( "10  " )
f.write( str(ee) + "\n" )
f.write( MOL.save_string_xyz() )
f.close()
--------------------------------------------------------------------------

    Molecular point group: c1
  Charge       = 0
  Multiplicity = 1
  Basis Set: 6-31G*
  Basis Set:
  @DF-RHF Final Energy:  -228.91430182942898
    Total Energy =                       -228.9143018294289504
    Molecular point group: c1
  Basis Set: 6-31G*
  Basis Set:
  Basis Set: 6-31G*
  Basis Set:
  @DF-RHF Final Energy:  -228.91583887115644
    Total Energy =                       -228.9158388711564953
  Basis Set: 6-31G*
  Basis Set:
  Basis Set: 6-31G*
  Basis Set:
  @DF-RHF Final Energy:  -228.91643716563934
    Total Energy =                       -228.9164371656393087
  Basis Set: 6-31G*
  Basis Set:
  Basis Set: 6-31G*
  Basis Set:
  @DF-RHF Final Energy:  -228.91646572564395
    Total Energy =                       -228.9164657256438886
  Basis Set: 6-31G*
  Basis Set:
  Charge       = 0
  Multiplicity = 1
  Basis Set: 6-31G*
  Basis Set:

    Orbital Energies (a.u.)
    -----------------------

    Doubly Occupied:

       1A    -20.562452     2A    -20.556548     3A    -11.273496
       4A    -11.268893     5A     -1.373739     6A     -1.358791
       7A     -0.994921     8A     -0.846847     9A     -0.726704
      10A     -0.665418    11A     -0.655619    12A     -0.607945
      13A     -0.573128    14A     -0.525364    15A     -0.492249
      16A     -0.445823    17A     -0.434008

  @DF-RHF Final Energy:  -228.91646692305810

   => Energetics <=

    Nuclear Repulsion Energy =            131.1944108106264082
    One-Electron Energy =                -573.4978592538207067
    Two-Electron Energy =                 213.3869815201361462
    DFT Exchange-Correlation Energy =       0.0000000000000000
    Empirical Dispersion Energy =           0.0000000000000000
    PCM Polarization Energy =               0.0000000000000000
    EFP Energy =                            0.0000000000000000
    Total Energy =                       -228.9164669230581239
    Molecular point group: c1
  Basis Set: 6-31G*
  Basis Set:

  -Total Gradient:
     Atom            X                  Y                   Z
    ------   -----------------  -----------------  -----------------
       1       -0.000003556040     0.000003349741     0.000007083655
       2        0.000000070679    -0.000009492650    -0.000006904774
       3        0.000852632721    -0.001152107432     0.002324828134
       4       -0.000729646558     0.001257434499    -0.001892687366
       5       -0.000586138810     0.000755511453    -0.001549025334
       6        0.000017507332    -0.000000963881    -0.000016514713
       7        0.000395241334    -0.000875149587     0.001128215806
       8        0.000051926879     0.000027187122     0.000014343792
       9        0.000014969225     0.000027922480     0.000008070462
      10       -0.000013006760    -0.000033691743    -0.000017409661

  **** Optimization is complete! (in 5 steps) ****
    Final optimized geometry and variables:
    Molecular point group: c1

    Geometry (in Angstrom), charge = 0, multiplicity = 1:

    H            2.411731073916     0.565608050716     0.407537324473
    O            1.519399215668     0.450408902027     0.701738878579
    C            0.674112475657     0.268723153762    -0.405085645138
    C           -0.775054520539     0.224445501295     0.094588937561
    H            0.894196855401    -0.659629445185    -0.927199457164
    H            0.808309613065     1.076002140775    -1.121283809458
    O           -1.498091105599    -0.860061181762    -0.424578310999
    H           -1.315238065052     1.111319051723    -0.205538759880
    H           -0.754616773094     0.198870597641     1.179482171005
    H           -1.180658238576    -1.662766126883    -0.034705702967

  Mulliken Charges: (a.u.)
   Center  Symbol    Alpha    Beta     Spin     Total
       1     H     0.27940  0.27940  0.00000  0.44120
       2     O     4.37268  4.37268  0.00000 -0.74535
       3     C     3.01302  3.01302  0.00000 -0.02605
       4     C     3.00841  3.00841  0.00000 -0.01682
       5     H     0.42450  0.42450  0.00000  0.15101
       6     H     0.42579  0.42579  0.00000  0.14843
       7     O     4.37107  4.37107  0.00000 -0.74214
       8     H     0.41209  0.41209  0.00000  0.17583
       9     H     0.41189  0.41189  0.00000  0.17623
      10     H     0.28116  0.28116  0.00000  0.43767

   Total alpha = 17.00000, Total beta = 17.00000, Total charge =  0.00000
