                              Psi4 1.0.54 Driver

  ==> Input File <==

--------------------------------------------------------------------------
set {
	reference rhf
	basis cc-pvtz
}

set_num_threads( 4 )
memory 2 gb

molecule MOL {
0 1

H	 3.062882	 -1.243848	 -0.772056
O	 2.157179	 -1.492060	 -0.811029
C	 1.356045	 -0.487588	 -0.405213
C	 1.856289	 0.737908	 0.007819
C	 -0.005763	 -0.710028	 -0.409579
H	 2.917414	 0.909479	 0.010590
C	 0.995107	 1.736699	 0.414927
H	 -0.395213	 -1.655424	 -0.728010
C	 -0.861704	 0.296439	 0.000000
H	 1.393549	 2.680779	 0.732386
C	 -0.368499	 1.522231	 0.413528
C	 -2.330689	 0.069587	 0.000000
H	 -1.040619	 2.297002	 0.729554
O	 -2.848621	 -0.993976	 0.000000
H	 -2.934306	 0.982410	 0.000000

	symmetry c1
}
set optking {
	frozen_dihedral = ("
		11 9 12 14
	")
}

ee,wfn = optimize('scf', return_wfn=True)
oeprop( wfn, 'DIPOLE', 'QUADRUPOLE', 'MULLIKEN_CHARGES')
f=open( 'psi4out.xyz', 'w' )
f.write( "15  " )
f.write( str(ee) + "\n" )
f.write( MOL.save_string_xyz() )
f.close()
--------------------------------------------------------------------------

    Molecular point group: c1
  Charge       = 0
  Multiplicity = 1
  Basis Set: CC-PVTZ
  Basis Set:
  @DF-RHF Final Energy:  -418.43760939497645
    Total Energy =                       -418.4376093949761071
    Molecular point group: c1
  Basis Set: CC-PVTZ
  Basis Set:
  Basis Set: CC-PVTZ
  Basis Set:
  @DF-RHF Final Energy:  -418.43648178761134
    Total Energy =                       -418.4364817876115694
  Basis Set: CC-PVTZ
  Basis Set:
  Basis Set: CC-PVTZ
  Basis Set:
  @DF-RHF Final Energy:  -418.43770968945938
    Total Energy =                       -418.4377096894598935
  Basis Set: CC-PVTZ
  Basis Set:
  Basis Set: CC-PVTZ
  Basis Set:
  @DF-RHF Final Energy:  -418.43780483583566
    Total Energy =                       -418.4378048358354363
  Basis Set: CC-PVTZ
  Basis Set:
  Charge       = 0
  Multiplicity = 1
  Basis Set: CC-PVTZ
  Basis Set:

    Orbital Energies (a.u.)
    -----------------------

    Doubly Occupied:

       1A    -20.595762     2A    -20.555275     3A    -11.327928
       4A    -11.311794     5A    -11.251170     6A    -11.250908
       7A    -11.246904     8A    -11.242665     9A    -11.237300
      10A     -1.427545    11A     -1.410906    12A     -1.174109
      13A     -1.051956    14A     -1.030683    15A     -0.902644
      16A     -0.849906    17A     -0.817274    18A     -0.740459
      19A     -0.706101    20A     -0.689577    21A     -0.645590
      22A     -0.641329    23A     -0.615180    24A     -0.608440
      25A     -0.580813    26A     -0.554805    27A     -0.545253
      28A     -0.516555    29A     -0.493043    30A     -0.426984
      31A     -0.358213    32A     -0.330554

  @DF-RHF Final Energy:  -418.43780537531364

   => Energetics <=

    Nuclear Repulsion Energy =            404.0838674465849749
    One-Electron Energy =               -1370.7680947062178802
    Two-Electron Energy =                 548.2464218843193748
    DFT Exchange-Correlation Energy =       0.0000000000000000
    Empirical Dispersion Energy =           0.0000000000000000
    PCM Polarization Energy =               0.0000000000000000
    EFP Energy =                            0.0000000000000000
    Total Energy =                       -418.4378053753135873
    Molecular point group: c1
  Basis Set: CC-PVTZ
  Basis Set:

  -Total Gradient:
     Atom            X                  Y                   Z
    ------   -----------------  -----------------  -----------------
       1       -0.000002005620     0.000011273474    -0.000021806748
       2       -0.000010065382    -0.000002714957     0.000017502696
       3        0.000018702863     0.000012183208     0.000048442507
       4       -0.000007953728     0.000009303885    -0.000070935065
       5       -0.000023711516    -0.000007542538     0.000011030063
       6       -0.000000554897     0.000008978495     0.000007591048
       7       -0.000000182519    -0.000016828041     0.000079907880
       8       -0.000005057980     0.000019658288    -0.000012190999
       9       -0.000309530016     0.001356511068    -0.002157633234
      10        0.000011958442     0.000003022037    -0.000011735724
      11        0.000312138587    -0.000919375329     0.002505882120
      12       -0.000118798394    -0.000422656977    -0.003761751469
      13        0.000003181481    -0.000005867470    -0.000007155651
      14        0.000102144353     0.000041981585     0.003383683469
      15        0.000029734320    -0.000087926731    -0.000010830894

  **** Optimization is complete! (in 5 steps) ****
    Final optimized geometry and variables:
    Molecular point group: c1

    Geometry (in Angstrom), charge = 0, multiplicity = 1:

    H            3.062113242592    -1.253765673736    -0.688661679242
    O            2.156706245176    -1.504389932665    -0.722259844110
    C            1.356039010947    -0.499911655479    -0.316676624459
    C            1.855568550824     0.729736803910     0.084616458309
    C           -0.004965259242    -0.728331711823    -0.304049494214
    H            2.916254825782     0.904200328664     0.079298418682
    C            0.993914254117     1.728174131799     0.491280424401
    H           -0.391733385453    -1.683203906270    -0.597007428966
    C           -0.861666979814     0.283043048804     0.090723884752
    H            1.391724485310     2.673865131201     0.804852732525
    C           -0.369804847268     1.513374951075     0.491734726947
    C           -2.327122522489     0.035404122698     0.151646274579
    H           -1.042177889195     2.290797082885     0.800922802966
    O           -2.826962611299    -1.036293648111     0.166136767069
    H           -2.942460376675     0.937965925363     0.219584871097

  Mulliken Charges: (a.u.)
   Center  Symbol    Alpha    Beta     Spin     Total
       1     H     0.38725  0.38725  0.00000  0.22551
       2     O     4.16978  4.16978  0.00000 -0.33955
       3     C     2.84118  2.84118  0.00000  0.31765
       4     C     3.12771  3.12771  0.00000 -0.25542
       5     C     3.11996  3.11996  0.00000 -0.23991
       6     H     0.43138  0.43138  0.00000  0.13724
       7     C     3.06262  3.06262  0.00000 -0.12525
       8     H     0.40624  0.40624  0.00000  0.18753
       9     C     2.96401  2.96401  0.00000  0.07197
      10     H     0.41937  0.41937  0.00000  0.16127
      11     C     3.11057  3.11057  0.00000 -0.22115
      12     C     2.91270  2.91270  0.00000  0.17461
      13     H     0.42351  0.42351  0.00000  0.15297
      14     O     4.16696  4.16696  0.00000 -0.33392
      15     H     0.45677  0.45677  0.00000  0.08646

   Total alpha = 32.00000, Total beta = 32.00000, Total charge =  0.00000

*** Psi4 exiting successfully. Buy a developer a beer!
