  ==> Input File <==

--------------------------------------------------------------------------
set {
	reference rhf
	basis 6-31G*
}

set_num_threads( 4 )
memory 2 gb

molecule MOL {
0 1

H	 2.591676	 2.013956	 0.335017
O	 3.341076	 1.666752	 -0.126416
C	 3.569581	 0.339145	 0.272707
C	 2.539767	 -0.640285	 -0.279495
H	 4.553106	 0.084646	 -0.100901
H	 3.608576	 0.269204	 1.359154
C	 1.115811	 -0.397273	 0.226630
H	 2.556196	 -0.582511	 -1.364741
H	 2.852081	 -1.648031	 -0.010655
C	 0.748357	 1.088699	 0.267641
H	 1.012318	 -0.824177	 1.220314
H	 0.408686	 -0.922441	 -0.415642
C	 -0.696691	 1.383361	 0.686390
H	 1.430403	 1.607738	 0.938656
H	 0.913914	 1.513525	 -0.720192
C	 -1.034907	 1.019485	 2.134728
H	 -0.884184	 2.445483	 0.543000
H	 -1.378527	 0.863389	 0.015148
C	 -2.453720	 1.428303	 2.536318
H	 -0.321072	 1.500641	 2.801840
H	 -0.921401	 -0.050999	 2.287974
C	 -2.796119	 1.060464	 3.979620
H	 -2.571267	 2.501206	 2.400126
H	 -3.167868	 0.956186	 1.864765
H	 -2.119158	 1.543690	 4.678506
H	 -3.806642	 1.364731	 4.234376
H	 -2.723825	 -0.011779	 4.139096

	symmetry c1
}
set optking {
	frozen_dihedral = ("
		10 7 4 8
	")
}

ee = optimize('scf')
oeprop('DIPOLE', 'QUADRUPOLE', 'MULLIKEN_CHARGES')
f=open( 'psi4out.xyz', 'w' )
f.write( "27  " )
f.write( str(ee) + "\n" )
f.write( MOL.save_string_xyz() )
f.close()
--------------------------------------------------------------------------

    Molecular point group: c1
  Charge       = 0
  Multiplicity = 1
  Basis Set: 6-31G*
  Basis Set:
  @DF-RHF Final Energy:  -388.26032961805385
    Total Energy =                       -388.2603296180536745
    Molecular point group: c1
  Basis Set: 6-31G*
  Basis Set:
  Basis Set: 6-31G*
  Basis Set:
  @DF-RHF Final Energy:  -388.27266822877954
    Total Energy =                       -388.2726682287799349
  Basis Set: 6-31G*
  Basis Set:
  Basis Set: 6-31G*
  Basis Set:
  @DF-RHF Final Energy:  -388.27586496354962
    Total Energy =                       -388.2758649635499069
  Basis Set: 6-31G*
  Basis Set:
  Basis Set: 6-31G*
  Basis Set:
  @DF-RHF Final Energy:  -388.27636892527687
    Total Energy =                       -388.2763689252759605
  Basis Set: 6-31G*
  Basis Set:
  @DF-RHF Final Energy:  -388.27665957762247
    Total Energy =                       -388.2766595776220129
  @DF-RHF Final Energy:  -388.27681333701418
    Total Energy =                       -388.2768133370142323
  @DF-RHF Final Energy:  -388.27688501979941
    Total Energy =                       -388.2768850197992379
  Basis Set: 6-31G*
  Basis Set:
  @DF-RHF Final Energy:  -388.27689458485196
    Total Energy =                       -388.2768945848516751
  Basis Set: 6-31G*
  Basis Set:
  Basis Set: 6-31G*
  Basis Set:
  @DF-RHF Final Energy:  -388.27689646011419
    Total Energy =                       -388.2768964601136759
  Basis Set: 6-31G*
  Basis Set:
  Basis Set: 6-31G*
  Basis Set:
  @DF-RHF Final Energy:  -388.27689790495390
    Total Energy =                       -388.2768979049544669
  Basis Set: 6-31G*
  Basis Set:
  Charge       = 0
  Multiplicity = 1
  Basis Set: 6-31G*
  Basis Set:

    Orbital Energies (a.u.)
    -----------------------

    Doubly Occupied:

       1A    -20.549189     2A    -11.266707     3A    -11.223519
       4A    -11.220079     5A    -11.218965     6A    -11.217648
       7A    -11.216437     8A    -11.215185     9A    -11.210627
      10A     -1.356788    11A     -1.096980    12A     -1.060855
      13A     -1.013120    14A     -0.949106    15A     -0.891779
      16A     -0.827067    17A     -0.801690    18A     -0.776176
      19A     -0.695500    20A     -0.650180    21A     -0.630249
      22A     -0.623181    23A     -0.598470    24A     -0.583191
      25A     -0.568412    26A     -0.562801    27A     -0.550513
      28A     -0.527744    29A     -0.517460    30A     -0.499561
      31A     -0.482029    32A     -0.475699    33A     -0.468726
      34A     -0.463655    35A     -0.448824    36A     -0.439158
      37A     -0.422274

  @DF-RHF Final Energy:  -388.27689796039260

   => Energetics <=

    Nuclear Repulsion Energy =            466.0779315762679289
    One-Electron Energy =               -1450.0705692036267465
    Two-Electron Energy =                 595.7157396669662148
    DFT Exchange-Correlation Energy =       0.0000000000000000
    Empirical Dispersion Energy =           0.0000000000000000
    PCM Polarization Energy =               0.0000000000000000
    EFP Energy =                            0.0000000000000000
    Total Energy =                       -388.2768979603926027
    Molecular point group: c1
  Basis Set: 6-31G*
  Basis Set:

  -Total Gradient:
     Atom            X                  Y                   Z
    ------   -----------------  -----------------  -----------------
       1        0.000096720469     0.000034015937     0.000099352013
       2       -0.000166992392    -0.000045868247    -0.000079424338
       3        0.000024378427     0.000008365014     0.000033471504
       4        0.001681686049     0.005372954729     0.001142203909
       5        0.000016381935     0.000051422894    -0.000038931096
       6       -0.000004489846    -0.000048281782     0.000005441909
       7       -0.002132839322    -0.001447799159    -0.004061726313
       8       -0.000851814810    -0.004251359738     0.000047045982
       9       -0.000040149695     0.000008461274     0.000031247358
      10        0.001329045202     0.000324217771     0.002851531606
      11        0.000030104298    -0.000003528001     0.000008964367
      12        0.000029098028    -0.000006057388    -0.000035113491
      13       -0.000003528798     0.000005182625    -0.000027377247
      14       -0.000008043911    -0.000000232406     0.000013021377
      15        0.000003039006     0.000001919136     0.000010948739
      16        0.000002549615     0.000001426776     0.000002753698
      17       -0.000005016428    -0.000000530663    -0.000007385520
      18        0.000000391081    -0.000004441640     0.000003793375
      19        0.000000609725     0.000000428640    -0.000001145273
      20        0.000000549291    -0.000001278861     0.000002912406
      21       -0.000000420439     0.000001502922    -0.000000425605
      22        0.000000282386    -0.000000316817    -0.000000469411
      23       -0.000001356273    -0.000000041463    -0.000001027639
      24       -0.000000635822    -0.000000100028     0.000000704899
      25        0.000000101127    -0.000000122213    -0.000000116540
      26        0.000000227191     0.000000080551    -0.000000471060
      27        0.000000123901    -0.000000019862     0.000000220391

  **** Optimization is complete! (in 11 steps) ****
    Final optimized geometry and variables:
    Molecular point group: c1

    Geometry (in Angstrom), charge = 0, multiplicity = 1:

    H            2.548230511217     1.311432942163    -1.199286039718
    O            3.214564874173     0.729179262081    -1.530309567797
    C            3.139957000938    -0.511768842057    -0.876167946065
    C            1.969314887139    -1.384648201396    -1.322466855936
    H            4.065712603713    -1.016947234192    -1.119314996571
    H            3.123838795897    -0.378688361130     0.204999045999
    C            0.583099155430    -1.070390311513    -0.732057419042
    H            1.926485716266    -1.387705231660    -2.408273930842
    H            2.208179661837    -2.409835064059    -1.043264510634
    C            0.173952020336     0.407493457017    -0.706990866993
    H            0.550834701571    -1.455564760509     0.284006381089
    H           -0.159161864310    -1.634630304158    -1.291611361743
    C           -1.288951213284     0.648244939871    -0.314286887606
    H            0.809632226145     0.952820931509    -0.010121767340
    H            0.337366250089     0.841273664738    -1.691156858301
    C           -1.646735855089     0.245609035737     1.118881986042
    H           -1.508637175895     1.705989630464    -0.443633613231
    H           -1.936006584019     0.117700877733    -1.010504396122
    C           -3.085058197582     0.606554374813     1.496245322734
    H           -0.961879680837     0.733647707931     1.811376492377
    H           -1.505905837071    -0.823898217287     1.252913301529
    C           -3.448046599007     0.200448745387     2.924129996027
    H           -3.230411159745     1.678185212384     1.378047449300
    H           -3.770307441994     0.127639958071     0.799982838154
    H           -2.800942620089     0.688931476629     3.647268126041
    H           -4.472240548104     0.470763079562     3.161778529061
    H           -3.348286006761    -0.872222274327     3.064360370061

  Mulliken Charges: (a.u.)
   Center  Symbol    Alpha    Beta     Spin     Total
       1     H     0.27550  0.27550  0.00000  0.44901
       2     O     4.37507  4.37507  0.00000 -0.75015
       3     C     2.99779  2.99779  0.00000  0.00441
       4     C     3.16649  3.16649  0.00000 -0.33297
       5     H     0.41461  0.41461  0.00000  0.17079
       6     H     0.43147  0.43147  0.00000  0.13706
       7     C     3.15577  3.15577  0.00000 -0.31153
       8     H     0.41343  0.41343  0.00000  0.17313
       9     H     0.42244  0.42244  0.00000  0.15512
      10     C     3.16781  3.16781  0.00000 -0.33561
      11     H     0.42100  0.42100  0.00000  0.15801
      12     H     0.41927  0.41927  0.00000  0.16147
      13     C     3.15203  3.15203  0.00000 -0.30406
      14     H     0.43037  0.43037  0.00000  0.13926
      15     H     0.41604  0.41604  0.00000  0.16791
      16     C     3.15344  3.15344  0.00000 -0.30687
      17     H     0.42110  0.42110  0.00000  0.15781
      18     H     0.42186  0.42186  0.00000  0.15628
      19     C     3.15140  3.15140  0.00000 -0.30280
      20     H     0.42494  0.42494  0.00000  0.15011
      21     H     0.42103  0.42103  0.00000  0.15793
      22     C     3.23930  3.23930  0.00000 -0.47860
      23     H     0.42284  0.42284  0.00000  0.15431
      24     H     0.42259  0.42259  0.00000  0.15483
      25     H     0.42177  0.42177  0.00000  0.15647
      26     H     0.41888  0.41888  0.00000  0.16224
      27     H     0.42177  0.42177  0.00000  0.15646

   Total alpha = 37.00000, Total beta = 37.00000, Total charge = -0.00000
