                              Psi4 1.0.54 Driver

  ==> Input File <==

--------------------------------------------------------------------------
set {
	reference rhf
	basis cc-pvtz
}

set_num_threads( 4 )
memory 2 gb

molecule MOL {
0 1

H	 -2.498963	 -0.741158	 -0.729149
O	 -2.346257	 -0.289210	 0.080372
C	 -1.183935	 0.486039	 -0.009831
C	 0.062853	 -0.375310	 0.027457
H	 -1.178881	 1.094526	 -0.908634
H	 -1.184406	 1.155156	 0.838676
O	 1.172093	 0.457955	 -0.054438
H	 0.052476	 -1.081302	 -0.804627
H	 0.076323	 -0.955658	 0.947560
C	 2.205524	 -0.029231	 -0.845571
H	 1.883316	 -0.176137	 -1.874101
H	 3.004148	 0.697882	 -0.831675
H	 2.585041	 -0.974730	 -0.465415

	symmetry c1
}
set optking {
	frozen_dihedral = ("
		10 7 4 8
	")
}

ee,wfn = optimize('scf', return_wfn=True)
oeprop( wfn, 'DIPOLE', 'QUADRUPOLE', 'MULLIKEN_CHARGES')
f=open( 'psi4out.xyz', 'w' )
f.write( "13  " )
f.write( str(ee) + "\n" )
f.write( MOL.save_string_xyz() )
f.close()
--------------------------------------------------------------------------

    Molecular point group: c1
  Charge       = 0
  Multiplicity = 1
  Basis Set: CC-PVTZ
  Basis Set:
  @DF-RHF Final Energy:  -268.05939158969647
    Total Energy =                       -268.0593915896963608
    Molecular point group: c1
  Basis Set: CC-PVTZ
  Basis Set:
  Basis Set: CC-PVTZ
  Basis Set:
  @DF-RHF Final Energy:  -268.05952459223124
    Total Energy =                       -268.0595245922312415
  Basis Set: CC-PVTZ
  Basis Set:
  Basis Set: CC-PVTZ
  Basis Set:
  @DF-RHF Final Energy:  -268.05965812941707
    Total Energy =                       -268.0596581294170164
  Basis Set: CC-PVTZ
  Basis Set:
  Basis Set: CC-PVTZ
  Basis Set:
  @DF-RHF Final Energy:  -268.05966029037262
    Total Energy =                       -268.0596602903725625
  Basis Set: CC-PVTZ
  Basis Set:
  Charge       = 0
  Multiplicity = 1
  Basis Set: CC-PVTZ
  Basis Set:

    Orbital Energies (a.u.)
    -----------------------

    Doubly Occupied:

       1A    -20.554045     2A    -20.553099     3A    -11.269093
       4A    -11.268875     5A    -11.267466     6A     -1.389070
       7A     -1.369143     8A     -1.019215     9A     -0.916259
      10A     -0.842693    11A     -0.712039    12A     -0.670831
      13A     -0.663586    14A     -0.643615    15A     -0.591356
      16A     -0.572121    17A     -0.553328    18A     -0.491041
      19A     -0.476515    20A     -0.455575    21A     -0.414308

  @DF-RHF Final Energy:  -268.05966060765218

   => Energetics <=

    Nuclear Repulsion Energy =            190.5212647594782709
    One-Electron Energy =                -743.7753039419631023
    Two-Electron Energy =                 285.1943785748326263
    DFT Exchange-Correlation Energy =       0.0000000000000000
    Empirical Dispersion Energy =           0.0000000000000000
    PCM Polarization Energy =               0.0000000000000000
    EFP Energy =                            0.0000000000000000
    Total Energy =                       -268.0596606076521766
    Molecular point group: c1
  Basis Set: CC-PVTZ
  Basis Set:

  -Total Gradient:
     Atom            X                  Y                   Z
    ------   -----------------  -----------------  -----------------
       1        0.000000170598     0.000008181404     0.000006047664
       2       -0.000015901285    -0.000022819227     0.000009986537
       3        0.000041011752     0.000002619528    -0.000019891007
       4       -0.001741213582     0.002493722031    -0.002543991860
       5        0.000003040351     0.000009852512     0.000007028082
       6       -0.000013079580    -0.000000482691    -0.000000484220
       7        0.001226814463    -0.001746052555     0.002796678690
       8        0.001146475015    -0.001645170991     0.001409212949
       9       -0.000005858783     0.000011164830     0.000005211621
      10       -0.000642918333     0.000888289181    -0.001673654492
      11        0.000000446015    -0.000001446154     0.000006322747
      12        0.000001027314    -0.000002403657     0.000000146621
      13       -0.000000013943     0.000004545789    -0.000002613334

  **** Optimization is complete! (in 5 steps) ****
    Final optimized geometry and variables:
    Molecular point group: c1

    Geometry (in Angstrom), charge = 0, multiplicity = 1:

    H           -2.506030800905    -0.716737388803    -0.556223566685
    O           -2.336838858674    -0.222837964035     0.225023855265
    C           -1.141632909865     0.494719075514     0.096046987648
    C            0.069648457046    -0.413882633497     0.178712644639
    H           -1.113570721313     1.059403665054    -0.831150379385
    H           -1.110141503811     1.203985892737     0.910748756674
    O            1.223925401896     0.367877392462     0.145352203122
    H            0.063985416447    -1.133639334753    -0.638363782430
    H            0.028543786737    -0.985919636820     1.101737184466
    C            2.292462869103    -0.154470514433    -0.574250046088
    H            2.031578624445    -0.308534181973    -1.618462938880
    H            3.103509729110     0.557086908456    -0.520247684277
    H            2.632842234913    -1.100778620014    -0.160193361832

  Mulliken Charges: (a.u.)
   Center  Symbol    Alpha    Beta     Spin     Total
       1     H     0.39506  0.39506  0.00000  0.20988
       2     O     4.20101  4.20101  0.00000 -0.40203
       3     C     2.97215  2.97215  0.00000  0.05569
       4     C     2.96921  2.96921  0.00000  0.06157
       5     H     0.46924  0.46924  0.00000  0.06152
       6     H     0.45254  0.45254  0.00000  0.09492
       7     O     4.17934  4.17934  0.00000 -0.35868
       8     H     0.48204  0.48204  0.00000  0.03592
       9     H     0.46018  0.46018  0.00000  0.07964
      10     C     3.03013  3.03013  0.00000 -0.06027
      11     H     0.47226  0.47226  0.00000  0.05549
      12     H     0.44767  0.44767  0.00000  0.10467
      13     H     0.46916  0.46916  0.00000  0.06167

   Total alpha = 21.00000, Total beta = 21.00000, Total charge = -0.00000

*** Psi4 exiting successfully. Buy a developer a beer!
