                              Psi4 1.0.54 Driver

  ==> Input File <==

--------------------------------------------------------------------------
set {
	reference rhf
	basis cc-pvtz
}

set_num_threads( 4 )
memory 2 gb

molecule MOL {
0 1

O	 -2.440701	 -0.934798	 -0.415053
C	 -1.922978	 0.063265	 -0.045005
C	 -2.632749	 1.372204	 0.158357
O	 -0.637375	 0.157174	 0.243149
H	 -2.187724	 2.129143	 -0.474664
H	 -3.677681	 1.257276	 -0.079438
H	 -2.516788	 1.693160	 1.185542
C	 0.162530	 -1.009518	 0.097799
C	 1.587210	 -0.664190	 0.477086
H	 0.096803	 -1.356267	 -0.924704
H	 -0.233803	 -1.785900	 0.736810
C	 2.256770	 0.342732	 -0.454344
H	 2.154716	 -1.590834	 0.479041
H	 1.598751	 -0.289614	 1.496104
C	 2.009488	 1.787612	 -0.033880
H	 3.326299	 0.151116	 -0.476455
H	 1.895848	 0.192649	 -1.465311
H	 2.498546	 2.480306	 -0.708700
H	 2.387697	 1.976932	 0.965374
H	 0.949533	 2.018942	 -0.034227

	symmetry c1
}
set optking {
	frozen_dihedral = ("
		16 12 9 8
	")
}

ee,wfn = optimize('scf', return_wfn=True)
oeprop( wfn, 'DIPOLE', 'QUADRUPOLE', 'MULLIKEN_CHARGES')
f=open( 'psi4out.xyz', 'w' )
f.write( "20  " )
f.write( str(ee) + "\n" )
f.write( MOL.save_string_xyz() )
f.close()
--------------------------------------------------------------------------

    Molecular point group: c1
  Charge       = 0
  Multiplicity = 1
  Basis Set: CC-PVTZ
  Basis Set:
  @DF-RHF Final Energy:  -384.08318246819664
    Total Energy =                       -384.0831824681972648
    Molecular point group: c1
  Basis Set: CC-PVTZ
  Basis Set:
  Basis Set: CC-PVTZ
  Basis Set:
  @DF-RHF Final Energy:  -384.08359936092336
    Total Energy =                       -384.0835993609233583
  Basis Set: CC-PVTZ
  Basis Set:
  Basis Set: CC-PVTZ
  Basis Set:
  @DF-RHF Final Energy:  -384.08385915390170
    Total Energy =                       -384.0838591539015852
  Basis Set: CC-PVTZ
  Basis Set:
  Basis Set: CC-PVTZ
  Basis Set:
  @DF-RHF Final Energy:  -384.08261049477841
    Total Energy =                       -384.0826104947783506
  Basis Set: CC-PVTZ
  Basis Set:
  Basis Set: CC-PVTZ
  Basis Set:
  @DF-RHF Final Energy:  -384.08393385901871
    Total Energy =                       -384.0839338590182024
  Basis Set: CC-PVTZ
  Basis Set:
  Basis Set: CC-PVTZ
  Basis Set:
  @DF-RHF Final Energy:  -384.08393796595618
    Total Energy =                       -384.0839379659562383
  Basis Set: CC-PVTZ
  Basis Set:
  Charge       = 0
  Multiplicity = 1
  Basis Set: CC-PVTZ
  Basis Set:

    Orbital Energies (a.u.)
    -----------------------

    Doubly Occupied:

       1A    -20.594759     2A    -20.533285     3A    -11.367226
       4A    -11.280599     5A    -11.232260     6A    -11.224398
       7A    -11.220399     8A    -11.206862     9A     -1.471575
      10A     -1.365717    11A     -1.085082    12A     -1.028128
      13A     -0.981524    14A     -0.886633    15A     -0.805051
      16A     -0.778986    17A     -0.693996    18A     -0.689145
      19A     -0.670279    20A     -0.620554    21A     -0.601464
      22A     -0.598669    23A     -0.575612    24A     -0.556592
      25A     -0.541826    26A     -0.535351    27A     -0.511910
      28A     -0.481360    29A     -0.476887    30A     -0.469554
      31A     -0.451274    32A     -0.441592

  @DF-RHF Final Energy:  -384.08393820126253

   => Energetics <=

    Nuclear Repulsion Energy =            392.7159824139990860
    One-Electron Energy =               -1301.6427452179104876
    Two-Electron Energy =                 524.8428246026489887
    DFT Exchange-Correlation Energy =       0.0000000000000000
    Empirical Dispersion Energy =           0.0000000000000000
    PCM Polarization Energy =               0.0000000000000000
    EFP Energy =                            0.0000000000000000
    Total Energy =                       -384.0839382012624128
    Molecular point group: c1
  Basis Set: CC-PVTZ
  Basis Set:

  -Total Gradient:
     Atom            X                  Y                   Z
    ------   -----------------  -----------------  -----------------
       1       -0.000008799850    -0.000017865196     0.000002555108
       2        0.000062778376     0.000030525388     0.000045483971
       3       -0.000002270844     0.000011785124    -0.000044598370
       4       -0.000063942805     0.000004342257    -0.000021814117
       5        0.000000329635     0.000006093846     0.000018310284
       6       -0.000010027710     0.000001134254     0.000002917164
       7       -0.000004270907    -0.000011186034     0.000006161284
       8        0.000336646623    -0.000635672068    -0.000591290590
       9       -0.000457195412     0.000747907736     0.000595267825
      10        0.000001094520    -0.000000996212     0.000004985424
      11        0.000001434426     0.000003778461     0.000003225805
      12        0.000279072143     0.000530933448     0.000936401367
      13        0.000007210441    -0.000001448600     0.000004548795
      14        0.000002401737     0.000001619586     0.000005660982
      15        0.000001757353    -0.000015098360     0.000007992401
      16       -0.000144312678    -0.000654009328    -0.000973719279
      17       -0.000000601627    -0.000000524523    -0.000007267894
      18        0.000000009652    -0.000003774449     0.000000021576
      19       -0.000003218099     0.000003275843     0.000008568536
      20        0.000001905024    -0.000000821172    -0.000003410271

  **** Optimization is complete! (in 7 steps) ****
    Final optimized geometry and variables:
    Molecular point group: c1

    Geometry (in Angstrom), charge = 0, multiplicity = 1:

    O           -2.225508867801    -1.082953421651    -0.507916237656
    C           -1.732028308649    -0.106396914386    -0.056634209828
    C           -2.473911802078     1.162864799585     0.253777930956
    O           -0.447695119174    -0.004693237147     0.236130381708
    H           -2.058350541921     1.977257872956    -0.325811475043
    H           -3.518364916020     1.037302974463     0.019237116744
    H           -2.352791932667     1.408871051176     1.300744330124
    C            0.376694043355    -1.138317586181    -0.004467638541
    C            1.800547920543    -0.827974330769     0.410890279283
    H            0.323522582554    -1.393341331123    -1.054233765256
    H           -0.012002117418    -1.975112793717     0.558547988819
    C            2.514670327483     0.252396303468    -0.413194883651
    H            2.344731250117    -1.762483328196     0.313490833547
    H            1.819848555563    -0.570192397229     1.465098044700
    C            2.311428221621     1.681303214794     0.083958486302
    H            3.577085198752     0.032539762647    -0.418492105042
    H            2.194749146053     0.179327359848    -1.449101922455
    H            2.863664058554     2.382261355005    -0.531897838123
    H            2.666964085968     1.788545086728     1.103527583807
    H            1.268464450507     1.965656136967     0.065930081861

  Mulliken Charges: (a.u.)
   Center  Symbol    Alpha    Beta     Spin     Total
       1     O     4.19751  4.19751  0.00000 -0.39501
       2     C     2.80810  2.80810  0.00000  0.38381
       3     C     3.14134  3.14134  0.00000 -0.28268
       4     O     4.15315  4.15315  0.00000 -0.30630
       5     H     0.44629  0.44629  0.00000  0.10742
       6     H     0.43568  0.43568  0.00000  0.12865
       7     H     0.44515  0.44515  0.00000  0.10970
       8     C     2.99142  2.99142  0.00000  0.01716
       9     C     3.09209  3.09209  0.00000 -0.18417
      10     H     0.45210  0.45210  0.00000  0.09580
      11     H     0.44491  0.44491  0.00000  0.11017
      12     C     3.08887  3.08887  0.00000 -0.17774
      13     H     0.44546  0.44546  0.00000  0.10907
      14     H     0.45229  0.45229  0.00000  0.09542
      15     C     3.14672  3.14672  0.00000 -0.29344
      16     H     0.44781  0.44781  0.00000  0.10439
      17     H     0.45504  0.45504  0.00000  0.08992
      18     H     0.44991  0.44991  0.00000  0.10018
      19     H     0.45697  0.45697  0.00000  0.08606
      20     H     0.44921  0.44921  0.00000  0.10159

   Total alpha = 32.00000, Total beta = 32.00000, Total charge = -0.00000

*** Psi4 exiting successfully. Buy a developer a beer!
