                              Psi4 1.0.54 Driver

  ==> Input File <==

--------------------------------------------------------------------------
set {
	reference rhf
	basis cc-pvtz
}

set_num_threads( 4 )
memory 2 gb

molecule MOL {
0 1

O	 2.154255	 -0.260167	 -0.432013
C	 1.121787	 0.124983	 0.000110
C	 -0.170912	 -0.649867	 -0.000147
O	 0.967579	 1.316891	 0.553239
C	 -1.413045	 0.229353	 0.001137
H	 -0.152877	 -1.303435	 -0.866175
H	 -0.152278	 -1.305116	 0.864586
C	 -2.702562	 -0.586401	 0.000228
H	 -1.390744	 0.882001	 -0.864365
H	 -1.390549	 0.879837	 0.868264
C	 -3.953810	 0.284959	 -0.000782
H	 -2.717793	 -1.238567	 -0.869075
H	 -2.719108	 -1.238472	 0.869576
H	 -3.983727	 0.924403	 -0.876454
H	 -4.852989	 -0.320147	 -0.001515
H	 -3.985140	 0.924399	 0.874841
C	 2.104821	 2.153268	 0.620127
H	 2.886598	 1.688100	 1.202083
H	 1.777526	 3.063096	 1.096530
H	 2.481055	 2.365225	 -0.369693

	symmetry c1
}
set optking {
	frozen_dihedral = ("
		1 2 3 6
	")
}

ee,wfn = optimize('scf', return_wfn=True)
oeprop( wfn, 'DIPOLE', 'QUADRUPOLE', 'MULLIKEN_CHARGES')
f=open( 'psi4out.xyz', 'w' )
f.write( "20  " )
f.write( str(ee) + "\n" )
f.write( MOL.save_string_xyz() )
f.close()
--------------------------------------------------------------------------

    Molecular point group: c1
  Charge       = 0
  Multiplicity = 1
  Basis Set: CC-PVTZ
  Basis Set:
  @DF-RHF Final Energy:  -384.08010738835753
    Total Energy =                       -384.0801073883573054
    Molecular point group: c1
  Basis Set: CC-PVTZ
  Basis Set:
  Basis Set: CC-PVTZ
  Basis Set:
  @DF-RHF Final Energy:  -384.07915606436262
    Total Energy =                       -384.0791560643627918
  Basis Set: CC-PVTZ
  Basis Set:
  Basis Set: CC-PVTZ
  Basis Set:
  @DF-RHF Final Energy:  -384.08041309074690
    Total Energy =                       -384.0804130907471290
  Basis Set: CC-PVTZ
  Basis Set:
  Basis Set: CC-PVTZ
  Basis Set:
  @DF-RHF Final Energy:  -384.08108669359956
    Total Energy =                       -384.0810866935993317
  Basis Set: CC-PVTZ
  Basis Set:
  Basis Set: CC-PVTZ
  Basis Set:
  @DF-RHF Final Energy:  -384.08110689368914
    Total Energy =                       -384.0811068936890251
  Basis Set: CC-PVTZ
  Basis Set:
  Basis Set: CC-PVTZ
  Basis Set:
  @DF-RHF Final Energy:  -384.08111114885861
    Total Energy =                       -384.0811111488584402
  Basis Set: CC-PVTZ
  Basis Set:
  Charge       = 0
  Multiplicity = 1
  Basis Set: CC-PVTZ
  Basis Set:

    Orbital Energies (a.u.)
    -----------------------

    Doubly Occupied:

       1A    -20.598666     2A    -20.530647     3A    -11.364606
       4A    -11.279304     5A    -11.233922     6A    -11.222829
       7A    -11.220960     8A    -11.211798     9A     -1.473138
      10A     -1.364314    11A     -1.092945    12A     -1.025230
      13A     -0.967670    14A     -0.893082    15A     -0.806941
      16A     -0.776765    17A     -0.695346    18A     -0.686242
      19A     -0.675579    20A     -0.649087    21A     -0.595363
      22A     -0.593263    23A     -0.581664    24A     -0.545656
      25A     -0.532394    26A     -0.524660    27A     -0.505842
      28A     -0.493337    29A     -0.480392    30A     -0.474371
      31A     -0.457589    32A     -0.431104

  @DF-RHF Final Energy:  -384.08111150346542

   => Energetics <=

    Nuclear Repulsion Energy =            384.2443482614511368
    One-Electron Energy =               -1284.6815055661738825
    Two-Electron Energy =                 516.3560458012568688
    DFT Exchange-Correlation Energy =       0.0000000000000000
    Empirical Dispersion Energy =           0.0000000000000000
    PCM Polarization Energy =               0.0000000000000000
    EFP Energy =                            0.0000000000000000
    Total Energy =                       -384.0811115034658769
    Molecular point group: c1
  Basis Set: CC-PVTZ
  Basis Set:

  -Total Gradient:
     Atom            X                  Y                   Z
    ------   -----------------  -----------------  -----------------
       1        0.000175278446    -0.000288938730     0.000848287052
       2       -0.000292186478     0.000558051532    -0.001323523978
       3        0.000458837997    -0.000823355155     0.001002512473
       4        0.000025671786     0.000027682787     0.000012720479
       5       -0.000002080214    -0.000005517242     0.000010824110
       6       -0.000330528904     0.000600563916    -0.000535347752
       7       -0.000004345700    -0.000021297484     0.000034004529
       8       -0.000001594601    -0.000006114238    -0.000034391262
       9       -0.000000423576     0.000009330430    -0.000026550583
      10        0.000015293267     0.000015700111     0.000011764186
      11        0.000010103197    -0.000003712086     0.000023448976
      12       -0.000005595042    -0.000011547299    -0.000026752106
      13       -0.000001612629    -0.000008094816     0.000014550510
      14        0.000003706132     0.000001249884    -0.000019812022
      15       -0.000006259631    -0.000012539831     0.000006172362
      16       -0.000002936336     0.000020879120     0.000018427179
      17       -0.000057661863    -0.000047799569    -0.000029997734
      18        0.000028740575    -0.000030233528     0.000035742004
      19       -0.000024105680     0.000019349428     0.000010925175
      20        0.000011699255     0.000006342766    -0.000033003600

  **** Optimization is complete! (in 7 steps) ****
    Final optimized geometry and variables:
    Molecular point group: c1

    Geometry (in Angstrom), charge = 0, multiplicity = 1:

    O            2.343365716096    -0.694698715094    -0.387005890649
    C            1.323635895536    -0.212998624206    -0.024662326912
    C            0.004625569214    -0.947818526877    -0.032297319081
    O            1.239373008801     1.010210484071     0.466296615738
    C           -1.250950340568    -0.086693555222    -0.136368076360
    H            0.057810435975    -1.654548698759    -0.849451687814
    H           -0.017228895861    -1.532126197902     0.883505920601
    C           -2.522050015017    -0.929867075495    -0.187371587651
    H           -1.192794237475     0.531755684980    -1.027250577483
    H           -1.298339476869     0.593602094453     0.705028050379
    C           -3.788484863573    -0.086976858338    -0.290263402475
    H           -2.471840967942    -1.609653425372    -1.033392504398
    H           -2.575594191881    -1.553266499948     0.701198018125
    H           -3.781001413793     0.522004326003    -1.188017818811
    H           -4.673280051237    -0.711950298966    -0.322157996603
    H           -3.884525569736     0.580109389299     0.559784965123
    C            2.436387785315     1.757433543992     0.551569563496
    H            3.149557073824     1.261518202299     1.193081716265
    H            2.161088710705     2.712910138008     0.967804408163
    H            2.873760514820     1.888067198956    -0.426940069606

  Mulliken Charges: (a.u.)
   Center  Symbol    Alpha    Beta     Spin     Total
       1     O     4.20209  4.20209  0.00000 -0.40419
       2     C     2.81474  2.81474  0.00000  0.37052
       3     C     3.08509  3.08509  0.00000 -0.17018
       4     O     4.14330  4.14330  0.00000 -0.28659
       5     C     3.08747  3.08747  0.00000 -0.17493
       6     H     0.43616  0.43616  0.00000  0.12769
       7     H     0.44409  0.44409  0.00000  0.11181
       8     C     3.08884  3.08884  0.00000 -0.17769
       9     H     0.45082  0.45082  0.00000  0.09836
      10     H     0.44512  0.44512  0.00000  0.10975
      11     C     3.14929  3.14929  0.00000 -0.29857
      12     H     0.45300  0.45300  0.00000  0.09399
      13     H     0.45402  0.45402  0.00000  0.09196
      14     H     0.45432  0.45432  0.00000  0.09136
      15     H     0.44740  0.44740  0.00000  0.10519
      16     H     0.45444  0.45444  0.00000  0.09111
      17     C     3.03627  3.03627  0.00000 -0.07255
      18     H     0.45344  0.45344  0.00000  0.09311
      19     H     0.44660  0.44660  0.00000  0.10679
      20     H     0.45348  0.45348  0.00000  0.09303

   Total alpha = 32.00000, Total beta = 32.00000, Total charge = -0.00000

*** Psi4 exiting successfully. Buy a developer a beer!
