                              Psi4 1.0.54 Driver

  ==> Input File <==

--------------------------------------------------------------------------
set {
	reference rhf
	basis cc-pvtz
}

set_num_threads( 4 )
memory 2 gb

molecule MOL {
0 1

H	 -3.162190	 0.493205	 -0.000107
C	 -2.363908	 -0.234727	 0.000005
O	 -1.158738	 0.454634	 -0.000087
H	 -2.464314	 -0.863616	 -0.882153
H	 -2.464327	 -0.863359	 0.882345
C	 -0.028611	 -0.359694	 0.000037
C	 1.007105	 0.223928	 0.939755
H	 0.378688	 -0.434122	 -1.008529
H	 -0.295081	 -1.368980	 0.314647
C	 2.279826	 -0.613539	 0.996161
H	 1.237822	 1.232801	 0.615919
H	 0.569425	 0.305322	 1.928574
H	 2.747878	 -0.687739	 0.020196
H	 3.001532	 -0.174283	 1.673816
H	 2.075067	 -1.621311	 1.341902

	symmetry c1
}
set optking {
	frozen_dihedral = ("
		8 6 3 2
	")
}

ee,wfn = optimize('scf', return_wfn=True)
oeprop( wfn, 'DIPOLE', 'QUADRUPOLE', 'MULLIKEN_CHARGES')
f=open( 'psi4out.xyz', 'w' )
f.write( "15  " )
f.write( str(ee) + "\n" )
f.write( MOL.save_string_xyz() )
f.close()
--------------------------------------------------------------------------

    Molecular point group: c1
  Charge       = 0
  Multiplicity = 1
  Basis Set: CC-PVTZ
  Basis Set:
  @DF-RHF Final Energy:  -232.22512747051189
    Total Energy =                       -232.2251274705119499
    Molecular point group: c1
  Basis Set: CC-PVTZ
  Basis Set:
  Basis Set: CC-PVTZ
  Basis Set:
  @DF-RHF Final Energy:  -232.22531282612812
    Total Energy =                       -232.2253128261282882
  Basis Set: CC-PVTZ
  Basis Set:
  Basis Set: CC-PVTZ
  Basis Set:
  @DF-RHF Final Energy:  -232.22538349688566
    Total Energy =                       -232.2253834968857404
  Basis Set: CC-PVTZ
  Basis Set:
  Charge       = 0
  Multiplicity = 1
  Basis Set: CC-PVTZ
  Basis Set:

    Orbital Energies (a.u.)
    -----------------------

    Doubly Occupied:

       1A    -20.545067     2A    -11.264110     3A    -11.262382
       4A    -11.212356     5A    -11.210588     6A     -1.378080
       7A     -1.057775     8A     -0.956679     9A     -0.878107
      10A     -0.808614    11A     -0.674049    12A     -0.654812
      13A     -0.634475    14A     -0.604275    15A     -0.567172
      16A     -0.540708    17A     -0.503920    18A     -0.491780
      19A     -0.480890    20A     -0.463827    21A     -0.409849

  @DF-RHF Final Energy:  -232.22538431427213

   => Energetics <=

    Nuclear Repulsion Energy =            190.0144897280481189
    One-Electron Energy =                -691.2807169956425923
    Two-Electron Energy =                 269.0408429533224535
    DFT Exchange-Correlation Energy =       0.0000000000000000
    Empirical Dispersion Energy =           0.0000000000000000
    PCM Polarization Energy =               0.0000000000000000
    EFP Energy =                            0.0000000000000000
    Total Energy =                       -232.2253843142719916
    Molecular point group: c1
  Basis Set: CC-PVTZ
  Basis Set:

  -Total Gradient:
     Atom            X                  Y                   Z
    ------   -----------------  -----------------  -----------------
       1       -0.000008279142    -0.000011867211    -0.000002730698
       2       -0.000189262277    -0.000022616251     0.002044856867
       3        0.000503859200     0.000498240245    -0.002825330754
       4        0.000038847486     0.000023069510     0.000025747606
       5        0.000040315416     0.000018635161    -0.000019581801
       6       -0.001864491179    -0.002451683220     0.000327943996
       7        0.000001569499     0.000001709959    -0.000071619611
       8        0.001456032146     0.001985457420     0.000508405825
       9        0.000002961148    -0.000016025604     0.000000146014
      10        0.000022884006    -0.000031613863     0.000025471308
      11       -0.000004588555     0.000007067336     0.000005993875
      12       -0.000010743783    -0.000006624792    -0.000017676888
      13       -0.000004514421     0.000003354066     0.000008355018
      14        0.000002869662    -0.000004749707     0.000001510761
      15        0.000012540797     0.000007646952    -0.000011491519

  **** Optimization is complete! (in 4 steps) ****
    Final optimized geometry and variables:
    Molecular point group: c1

    Geometry (in Angstrom), charge = 0, multiplicity = 1:

    H           -3.071619336715     0.678242711025    -0.422501432635
    C           -2.300559387149    -0.078835123520    -0.417043414357
    O           -1.072151455275     0.568671078770    -0.381000203782
    H           -2.410071720586    -0.690346634325    -1.310256170825
    H           -2.442083447035    -0.714316645828     0.453998426222
    C            0.053329963631    -0.260001341305    -0.357839546545
    C            1.091861964092     0.313945442411     0.589079204776
    H            0.475341220205    -0.323244014947    -1.358912884722
    H           -0.217191151936    -1.266142419357    -0.046849270652
    C            2.379724507478    -0.502035213858     0.607224396796
    H            1.301350721274     1.335024997072     0.289476767942
    H            0.665788824739     0.363112196195     1.585663932054
    H            2.837533705976    -0.538505349988    -0.375701869148
    H            3.101849100233    -0.071305303466     1.290074928259
    H            2.196714101372    -1.523721806665     0.923973920321

  Mulliken Charges: (a.u.)
   Center  Symbol    Alpha    Beta     Spin     Total
       1     H     0.44923  0.44923  0.00000  0.10154
       2     C     3.03157  3.03157  0.00000 -0.06313
       3     O     4.17685  4.17685  0.00000 -0.35370
       4     H     0.47091  0.47091  0.00000  0.05818
       5     H     0.47230  0.47230  0.00000  0.05539
       6     C     2.96115  2.96115  0.00000  0.07769
       7     C     3.07951  3.07951  0.00000 -0.15902
       8     H     0.46440  0.46440  0.00000  0.07121
       9     H     0.47570  0.47570  0.00000  0.04860
      10     C     3.15562  3.15562  0.00000 -0.31124
      11     H     0.45035  0.45035  0.00000  0.09930
      12     H     0.45437  0.45437  0.00000  0.09126
      13     H     0.45535  0.45535  0.00000  0.08929
      14     H     0.44646  0.44646  0.00000  0.10708
      15     H     0.45623  0.45623  0.00000  0.08755

   Total alpha = 21.00000, Total beta = 21.00000, Total charge = -0.00000

*** Psi4 exiting successfully. Buy a developer a beer!
