  ==> Input File <==

--------------------------------------------------------------------------
set {
	reference rhf
	basis 6-31G*
}

set_num_threads( 4 )
memory 2 gb

molecule MOL {
0 1

H	 2.723015	 -0.071844	 -0.601856
N	 1.744605	 0.137684	 -0.615048
C	 1.255537	 0.362635	 0.732884
C	 1.007342	 -0.922890	 -1.277120
H	 1.820667	 1.172543	 1.181712
H	 1.365049	 -0.518439	 1.369560
C	 -0.216875	 0.740452	 0.672172
H	 1.392735	 -1.043931	 -2.283892
H	 1.101822	 -1.881824	 -0.762183
C	 -0.464916	 -0.544277	 -1.336586
H	 -0.317346	 1.704199	 0.164041
H	 -0.604008	 0.855703	 1.679343
N	 -0.975995	 -0.298722	 0.000000
H	 -1.031175	 -1.356814	 -1.780073
H	 -0.582005	 0.333398	 -1.979297
C	 -2.393863	 -0.024976	 0.000000
H	 -2.854032	 -0.467193	 -0.876721
H	 -2.854032	 -0.467193	 0.876721
H	 -2.623281	 1.044943	 0.000000

	symmetry c1
}
set optking {
	frozen_dihedral = ("
		7 13 16 19
	")
}

ee = optimize('scf')
oeprop('DIPOLE', 'QUADRUPOLE', 'MULLIKEN_CHARGES')
f=open( 'psi4out.xyz', 'w' )
f.write( "19  " )
f.write( str(ee) + "\n" )
f.write( MOL.save_string_xyz() )
f.close()
--------------------------------------------------------------------------

    Molecular point group: c1
  Charge       = 0
  Multiplicity = 1
  Basis Set: 6-31G*
  Basis Set:
  @DF-RHF Final Energy:  -305.19566458692788
    Total Energy =                       -305.1956645869280464
    Molecular point group: c1
  Basis Set: 6-31G*
  Basis Set:
  Basis Set: 6-31G*
  Basis Set:
  @DF-RHF Final Energy:  -305.19590968579143
    Total Energy =                       -305.1959096857914915
  Basis Set: 6-31G*
  Basis Set:
  Basis Set: 6-31G*
  Basis Set:
  @DF-RHF Final Energy:  -305.19596225265394
    Total Energy =                       -305.1959622526539988
  Basis Set: 6-31G*
  Basis Set:
  Charge       = 0
  Multiplicity = 1
  Basis Set: 6-31G*
  Basis Set:

    Orbital Energies (a.u.)
    -----------------------

    Doubly Occupied:

       1A    -15.540339     2A    -15.536183     3A    -11.238169
       4A    -11.238085     5A    -11.237025     6A    -11.237011
       7A    -11.234774     8A     -1.245769     9A     -1.184353
      10A     -1.022263    11A     -0.964036    12A     -0.859904
      13A     -0.857822    14A     -0.757627    15A     -0.690702
      16A     -0.631243    17A     -0.624889    18A     -0.606831
      19A     -0.603043    20A     -0.579115    21A     -0.543742
      22A     -0.531273    23A     -0.513153    24A     -0.489171
      25A     -0.465130    26A     -0.455773    27A     -0.362791
      28A     -0.344488

  @DF-RHF Final Energy:  -305.19596392321591

   => Energetics <=

    Nuclear Repulsion Energy =            339.6089567307570860
    One-Electron Energy =               -1086.4204357087860444
    Two-Electron Energy =                 441.6155150548132724
    DFT Exchange-Correlation Energy =       0.0000000000000000
    Empirical Dispersion Energy =           0.0000000000000000
    PCM Polarization Energy =               0.0000000000000000
    EFP Energy =                            0.0000000000000000
    Total Energy =                       -305.1959639232156860
    Molecular point group: c1
  Basis Set: 6-31G*
  Basis Set:

  -Total Gradient:
     Atom            X                  Y                   Z
    ------   -----------------  -----------------  -----------------
       1       -0.000032279727    -0.000002314130     0.000010256375
       2       -0.000033010200     0.000008078430     0.000005071941
       3        0.000045690273    -0.000015161972     0.000037551589
       4        0.000055617391     0.000013667089    -0.000038622060
       5        0.000018567933    -0.000000888459    -0.000005010085
       6        0.000011130744    -0.000003081900     0.000001768115
       7        0.000328798372     0.001844185569    -0.003488883316
       8        0.000048169292    -0.000003429736    -0.000012412936
       9       -0.000018762077     0.000021551959    -0.000006991038
      10       -0.000023213016    -0.000032277432     0.000147804555
      11       -0.000020014968     0.000023807837     0.000000021822
      12        0.000016644541     0.000001138464    -0.000008223005
      13       -0.000531746829    -0.002582155665     0.006108051693
      14       -0.000004154611     0.000014648284     0.000008631296
      15        0.000017526961    -0.000012319896    -0.000003216250
      16        0.000108777915     0.000735767522    -0.008058877939
      17       -0.000004267500    -0.000002079755    -0.000007055723
      18       -0.000004014859    -0.000002880964     0.000026383044
      19        0.000020540364    -0.000006255245     0.005283751921

  **** Optimization is complete! (in 4 steps) ****
    Final optimized geometry and variables:
    Molecular point group: c1

    Geometry (in Angstrom), charge = 0, multiplicity = 1:

    H            2.743029635940    -0.003404770590    -0.325329386838
    N            1.766160461759     0.212451397379    -0.346038455154
    C            1.266971467132     0.438187512202     0.997823382029
    C            1.027452586792    -0.841604925338    -1.016580530218
    H            1.827088024694     1.250067537621     1.449661236323
    H            1.372817776185    -0.441304927213     1.637158401712
    C           -0.205099867521     0.813421124278     0.923844054270
    H            1.418273558579    -0.960536681937    -2.021671102572
    H            1.114011702366    -1.803057229865    -0.504976208542
    C           -0.443567606271    -0.458906326886    -1.083358801272
    H           -0.305348193279     1.771228904997     0.405634735202
    H           -0.597381125898     0.939163096255     1.928362964011
    N           -0.963474160251    -0.230311993313     0.256032195396
    H           -1.003504460017    -1.268058241165    -1.539550356236
    H           -0.552500144534     0.424390881062    -1.719339062994
    C           -2.388730121203     0.048351675230     0.269049004836
    H           -2.878160970887    -0.409096705567    -0.581284577385
    H           -2.837041411036    -0.361715847577     1.170013338457
    H           -2.607630350816     1.117045314213     0.271031025342

  Mulliken Charges: (a.u.)
   Center  Symbol    Alpha    Beta     Spin     Total
       1     H     0.32961  0.32961  0.00000  0.34079
       2     N     3.85428  3.85428  0.00000 -0.70857
       3     C     3.06283  3.06283  0.00000 -0.12565
       4     C     3.06327  3.06327  0.00000 -0.12655
       5     H     0.41776  0.41776  0.00000  0.16448
       6     H     0.42754  0.42754  0.00000  0.14493
       7     C     3.05777  3.05777  0.00000 -0.11553
       8     H     0.41781  0.41781  0.00000  0.16437
       9     H     0.42761  0.42761  0.00000  0.14477
      10     C     3.05700  3.05700  0.00000 -0.11399
      11     H     0.42710  0.42710  0.00000  0.14579
      12     H     0.41816  0.41816  0.00000  0.16368
      13     N     3.78799  3.78799  0.00000 -0.57597
      14     H     0.41844  0.41844  0.00000  0.16313
      15     H     0.42803  0.42803  0.00000  0.14394
      16     C     3.14055  3.14055  0.00000 -0.28111
      17     H     0.41880  0.41880  0.00000  0.16239
      18     H     0.41626  0.41626  0.00000  0.16748
      19     H     0.42919  0.42919  0.00000  0.14162

   Total alpha = 28.00000, Total beta = 28.00000, Total charge =  0.00000
