  ==> Input File <==

--------------------------------------------------------------------------
set {
	reference rhf
	basis 6-31G*
}

set_num_threads( 4 )
memory 2 gb

molecule MOL {
0 1

O	 1.415913	 0.973913	 -0.775174
C	 1.122059	 0.121804	 -0.000188
C	 -0.170150	 -0.657997	 -0.000612
O	 1.915103	 -0.262730	 0.991875
C	 -1.412532	 0.227344	 -0.000452
H	 -0.153702	 -1.313099	 -0.867402
H	 -0.153924	 -1.313811	 0.865644
C	 -2.706999	 -0.587347	 -0.000541
H	 -1.388000	 0.879466	 -0.868000
H	 -1.387972	 0.879138	 0.867341
C	 -3.956778	 0.291888	 0.000910
H	 -2.726114	 -1.239230	 -0.871609
H	 -2.725217	 -1.240844	 0.869333
H	 -3.985213	 0.933254	 -0.875158
H	 -4.860123	 -0.309979	 0.000519
H	 -3.984618	 0.931166	 0.878514
C	 3.165231	 0.392458	 1.106115
H	 3.755866	 0.242385	 0.213861
H	 3.655008	 -0.052801	 1.958061
H	 3.025801	 1.451979	 1.265740

	symmetry c1
}
set optking {
	frozen_dihedral = ("
		1 2 3 6
	")
}

ee = optimize('scf')
oeprop('DIPOLE', 'QUADRUPOLE', 'MULLIKEN_CHARGES')
f=open( 'psi4out.xyz', 'w' )
f.write( "20  " )
f.write( str(ee) + "\n" )
f.write( MOL.save_string_xyz() )
f.close()
--------------------------------------------------------------------------

    Molecular point group: c1
  Charge       = 0
  Multiplicity = 1
  Basis Set: 6-31G*
  Basis Set:
  @DF-RHF Final Energy:  -383.93970188927869
    Total Energy =                       -383.9397018892785809
    Molecular point group: c1
  Basis Set: 6-31G*
  Basis Set:
  Basis Set: 6-31G*
  Basis Set:
  @DF-RHF Final Energy:  -383.94024664929606
    Total Energy =                       -383.9402466492958865
  Basis Set: 6-31G*
  Basis Set:
  Basis Set: 6-31G*
  Basis Set:
  @DF-RHF Final Energy:  -383.93941306906049
    Total Energy =                       -383.9394130690607199
  Basis Set: 6-31G*
  Basis Set:
  Basis Set: 6-31G*
  Basis Set:
  @DF-RHF Final Energy:  -383.94034159777402
    Total Energy =                       -383.9403415977743634
  Basis Set: 6-31G*
  Basis Set:
  Basis Set: 6-31G*
  Basis Set:
  @DF-RHF Final Energy:  -383.94034364739707
    Total Energy =                       -383.9403436473968441
  Basis Set: 6-31G*
  Basis Set:
  Charge       = 0
  Multiplicity = 1
  Basis Set: 6-31G*
  Basis Set:

    Orbital Energies (a.u.)
    -----------------------

    Doubly Occupied:

       1A    -20.606032     2A    -20.542650     3A    -11.371896
       4A    -11.280926     5A    -11.234349     6A    -11.224364
       7A    -11.221825     8A    -11.212137     9A     -1.469861
      10A     -1.361704    11A     -1.089866    12A     -1.024052
      13A     -0.969634    14A     -0.887194    15A     -0.805034
      16A     -0.771118    17A     -0.695615    18A     -0.681422
      19A     -0.672530    20A     -0.646826    21A     -0.597978
      22A     -0.592378    23A     -0.575482    24A     -0.549486
      25A     -0.534026    26A     -0.522964    27A     -0.503485
      28A     -0.478818    29A     -0.476105    30A     -0.472333
      31A     -0.454400    32A     -0.433538

  @DF-RHF Final Energy:  -383.94034426348622

   => Energetics <=

    Nuclear Repulsion Energy =            381.4635872414343680
    One-Electron Energy =               -1278.8878096586352058
    Two-Electron Energy =                 513.4838781537143859
    DFT Exchange-Correlation Energy =       0.0000000000000000
    Empirical Dispersion Energy =           0.0000000000000000
    PCM Polarization Energy =               0.0000000000000000
    EFP Energy =                            0.0000000000000000
    Total Energy =                       -383.9403442634863950
    Molecular point group: c1
  Basis Set: 6-31G*
  Basis Set:

  -Total Gradient:
     Atom            X                  Y                   Z
    ------   -----------------  -----------------  -----------------
       1        0.000336945596    -0.000604955938    -0.000465785607
       2       -0.000599616837     0.000992218236     0.000580163458
       3        0.000617536900    -0.000958935779     0.000273566393
       4        0.000017115425    -0.000014367155     0.000011676547
       5       -0.000004113206     0.000032421753     0.000010504402
       6       -0.000357936180     0.000577862017    -0.000405993768
       7       -0.000001227172     0.000005111818     0.000006784477
       8        0.000000020092    -0.000014218342    -0.000008352098
       9       -0.000009575921    -0.000002112989     0.000011907863
      10        0.000014585620    -0.000008425665    -0.000002041859
      11        0.000009218349     0.000007334198    -0.000010359802
      12        0.000003010233    -0.000012569611     0.000002501699
      13        0.000000554026     0.000007240005     0.000004079171
      14       -0.000005705749     0.000004667050    -0.000001194363
      15        0.000001675435    -0.000001366376    -0.000001408889
      16        0.000001028287    -0.000000949501    -0.000001929103
      17       -0.000043553690    -0.000024704842    -0.000007611518
      18        0.000006060924     0.000002837310    -0.000001169104
      19        0.000010422011     0.000005947152     0.000002605736
      20        0.000003555847     0.000006966662     0.000002056365

  **** Optimization is complete! (in 6 steps) ****
    Final optimized geometry and variables:
    Molecular point group: c1

    Geometry (in Angstrom), charge = 0, multiplicity = 1:

    O            1.386713739602     0.916410074481    -0.898131507288
    C            1.152902684116     0.043650020834    -0.123981456344
    C           -0.126767242758    -0.758264158872    -0.106428630874
    O            2.008100158542    -0.343890628937     0.810944841070
    C           -1.366905153437     0.140661292958    -0.142523051414
    H           -0.111133091616    -1.386083644798    -0.993599614441
    H           -0.135380142576    -1.408733662991     0.758645018160
    C           -2.666836773335    -0.661848106634    -0.207825714381
    H           -1.295381337478     0.802471476426    -0.998623485852
    H           -1.377661796331     0.774815685384     0.741328817253
    C           -3.908050457285     0.228792969839    -0.242374275701
    H           -2.653574287075    -1.296951786812    -1.091075882883
    H           -2.725307599795    -1.330026365805     0.648692574293
    H           -3.894178125718     0.886075579939    -1.106828387858
    H           -4.815229692543    -0.365107199613    -0.291910373822
    H           -3.968314916620     0.851838056320     0.645348509092
    C            3.253775181299     0.328665099575     0.858963343678
    H            3.788754050431     0.203326460005    -0.071319289313
    H            3.802076939491    -0.123820500252     1.670441697648
    H            3.108568673474     1.382809322647     1.045991849113

  Mulliken Charges: (a.u.)
   Center  Symbol    Alpha    Beta     Spin     Total
       1     O     4.28716  4.28716  0.00000 -0.57432
       2     C     2.60661  2.60661  0.00000  0.78678
       3     C     3.20611  3.20611  0.00000 -0.41221
       4     O     4.30432  4.30432  0.00000 -0.60864
       5     C     3.15960  3.15960  0.00000 -0.31919
       6     H     0.40096  0.40096  0.00000  0.19809
       7     H     0.40037  0.40037  0.00000  0.19927
       8     C     3.15348  3.15348  0.00000 -0.30696
       9     H     0.40344  0.40344  0.00000  0.19312
      10     H     0.41777  0.41777  0.00000  0.16446
      11     C     3.23986  3.23986  0.00000 -0.47973
      12     H     0.42132  0.42132  0.00000  0.15737
      13     H     0.42205  0.42205  0.00000  0.15589
      14     H     0.41914  0.41914  0.00000  0.16171
      15     H     0.41816  0.41816  0.00000  0.16367
      16     H     0.42062  0.42062  0.00000  0.15877
      17     C     3.09364  3.09364  0.00000 -0.18727
      18     H     0.40860  0.40860  0.00000  0.18279
      19     H     0.40836  0.40836  0.00000  0.18328
      20     H     0.40844  0.40844  0.00000  0.18312

   Total alpha = 32.00000, Total beta = 32.00000, Total charge = -0.00000
