                              Psi4 1.0.54 Driver

  ==> Input File <==

--------------------------------------------------------------------------
set {
	reference rhf
	basis cc-pvtz
}

set_num_threads( 4 )
memory 2 gb

molecule MOL {
0 1

O	 2.969999	 1.184075	 0.597556
C	 2.841259	 0.166180	 -0.000295
C	 1.542794	 -0.614730	 -0.000853
C	 3.976097	 -0.422271	 -0.807817
C	 0.288398	 0.247429	 0.000314
H	 1.557171	 -1.273139	 -0.866508
H	 1.557484	 -1.274998	 0.863344
C	 -0.993089	 -0.581367	 -0.000217
H	 0.305153	 0.900562	 -0.864701
H	 0.305567	 0.898805	 0.866656
C	 -2.258482	 0.271340	 0.000669
H	 -1.002280	 -1.233920	 -0.870484
H	 -1.002061	 -1.235367	 0.868958
C	 -3.544441	 -0.550271	 -0.000253
H	 -2.250545	 0.925250	 -0.867923
H	 -2.250598	 0.923423	 0.870642
C	 -4.804551	 0.308747	 0.000556
H	 -3.553737	 -1.201524	 -0.870151
H	 -3.553831	 -1.203282	 0.868313
H	 -4.842050	 0.949078	 -0.874436
H	 -5.698404	 -0.304480	 -0.000254
H	 -4.842277	 0.947103	 0.876982
H	 3.682396	 -0.524172	 -1.846760
H	 4.844668	 0.214033	 -0.736451
H	 4.219291	 -1.414195	 -0.443145

	symmetry c1
}
set optking {
	frozen_dihedral = ("
		1 2 3 6
	")
}

ee,wfn = optimize('scf', return_wfn=True)
oeprop( wfn, 'DIPOLE', 'QUADRUPOLE', 'MULLIKEN_CHARGES')
f=open( 'psi4out.xyz', 'w' )
f.write( "25  " )
f.write( str(ee) + "\n" )
f.write( MOL.save_string_xyz() )
f.close()
--------------------------------------------------------------------------

    Molecular point group: c1
  Charge       = 0
  Multiplicity = 1
  Basis Set: CC-PVTZ
  Basis Set:
  @DF-RHF Final Energy:  -387.27314605950676
    Total Energy =                       -387.2731460595064163
    Molecular point group: c1
  Basis Set: CC-PVTZ
  Basis Set:
  Basis Set: CC-PVTZ
  Basis Set:
  @DF-RHF Final Energy:  -387.27199429382807
    Total Energy =                       -387.2719942938276745
  Basis Set: CC-PVTZ
  Basis Set:
  Basis Set: CC-PVTZ
  Basis Set:
  @DF-RHF Final Energy:  -387.27343879232865
    Total Energy =                       -387.2734387923289887
  Basis Set: CC-PVTZ
  Basis Set:
  Basis Set: CC-PVTZ
  Basis Set:
  @DF-RHF Final Energy:  -387.27361446123865
    Total Energy =                       -387.2736144612383669
  Basis Set: CC-PVTZ
  Basis Set:
  Basis Set: CC-PVTZ
  Basis Set:
  @DF-RHF Final Energy:  -387.27366446289983
    Total Energy =                       -387.2736644629001148
  Basis Set: CC-PVTZ
  Basis Set:
  Basis Set: CC-PVTZ
  Basis Set:
  @DF-RHF Final Energy:  -387.27367006280082
    Total Energy =                       -387.2736700628013295
  Basis Set: CC-PVTZ
  Basis Set:
  Basis Set: CC-PVTZ
  Basis Set:
  @DF-RHF Final Energy:  -387.27367145137009
    Total Energy =                       -387.2736714513699781
  Basis Set: CC-PVTZ
  Basis Set:
  Charge       = 0
  Multiplicity = 1
  Basis Set: CC-PVTZ
  Basis Set:

    Orbital Energies (a.u.)
    -----------------------

    Doubly Occupied:

       1A    -20.537455     2A    -11.320591     3A    -11.229496
       4A    -11.227174     5A    -11.217752     6A    -11.215793
       7A    -11.214084     8A    -11.212345     9A    -11.206908
      10A     -1.398081    11A     -1.095924    12A     -1.057783
      13A     -1.015675    14A     -0.970716    15A     -0.892118
      16A     -0.815402    17A     -0.792239    18A     -0.731522
      19A     -0.664601    20A     -0.652060    21A     -0.635687
      22A     -0.621015    23A     -0.599077    24A     -0.585806
      25A     -0.569019    26A     -0.560759    27A     -0.541450
      28A     -0.531312    29A     -0.512987    30A     -0.492698
      31A     -0.489399    32A     -0.473892    33A     -0.464679
      34A     -0.463963    35A     -0.453113    36A     -0.399492

  @DF-RHF Final Energy:  -387.27367152890588

   => Energetics <=

    Nuclear Repulsion Energy =            439.0491780406412090
    One-Electron Energy =               -1394.9215603245474995
    Two-Electron Energy =                 568.5987107550004112
    DFT Exchange-Correlation Energy =       0.0000000000000000
    Empirical Dispersion Energy =           0.0000000000000000
    PCM Polarization Energy =               0.0000000000000000
    EFP Energy =                            0.0000000000000000
    Total Energy =                       -387.2736715289058793
    Molecular point group: c1
  Basis Set: CC-PVTZ
  Basis Set:

  -Total Gradient:
     Atom            X                  Y                   Z
    ------   -----------------  -----------------  -----------------
       1        0.000413925820    -0.000779391210     0.001260401661
       2       -0.000431762113     0.000837810895    -0.001570895169
       3       -0.000604323704     0.001003337094    -0.000540677078
       4       -0.000010288699     0.000019399239     0.000018669510
       5       -0.000007899608     0.000012772283    -0.000005052014
       6        0.000626340293    -0.001082891694     0.000858009695
       7       -0.000001683567     0.000005030814    -0.000001435670
       8        0.000001206419    -0.000004000776    -0.000002411096
       9        0.000000883848    -0.000000598127    -0.000001882411
      10       -0.000001305459     0.000001124027    -0.000000571619
      11        0.000000853601     0.000003456240     0.000003616110
      12        0.000000303114     0.000001081701    -0.000002262797
      13        0.000000254141    -0.000002302528    -0.000000168596
      14        0.000001673510    -0.000002560672     0.000001780496
      15        0.000000322925    -0.000001518890    -0.000000702123
      16       -0.000000911284     0.000002588021     0.000000875267
      17        0.000002660275     0.000001778167     0.000000496017
      18        0.000000603842     0.000000003239    -0.000000534368
      19       -0.000000022763    -0.000000736401     0.000000444282
      20       -0.000000217385     0.000000440367    -0.000000505393
      21        0.000001404415    -0.000000770137    -0.000000027132
      22       -0.000000358890     0.000000395929     0.000000323136
      23       -0.000000078806    -0.000003729212    -0.000012251496
      24        0.000007571319    -0.000004135968    -0.000004474290
      25        0.000000848747    -0.000006582402    -0.000000764924

  **** Optimization is complete! (in 8 steps) ****
    Final optimized geometry and variables:
    Molecular point group: c1

    Geometry (in Angstrom), charge = 0, multiplicity = 1:

    O            2.924750983559     1.177495526681     0.640644229433
    C            2.842121503039     0.164414046502     0.026368484347
    C            1.549364761589    -0.628069471166    -0.034492753697
    C            4.031883521111    -0.421795781536    -0.694863664076
    C            0.292386574105     0.235024959283    -0.022903564493
    H            1.565982805895    -1.292558768408    -0.891921183658
    H            1.561740619421    -1.276190020596     0.840477652467
    C           -0.989860598883    -0.591662887980     0.001875200321
    H            0.293351347986     0.877576092896    -0.898864615245
    H            0.327391384931     0.892612726887     0.836074227637
    C           -2.253938273965     0.262953459826     0.005476118040
    H           -1.010346540927    -1.257685900318    -0.857827544177
    H           -0.987286466273    -1.231245561731     0.881489319146
    C           -3.540607463742    -0.556924410001     0.036954869933
    H           -2.258004766791     0.901551218742    -0.874666331848
    H           -2.232772407387     0.929980412127     0.863703147141
    C           -4.799630426200     0.303634249908     0.039956342202
    H           -3.562655435328    -1.223652814962    -0.820932284713
    H           -3.538477542069    -1.194162192827     0.917136663085
    H           -4.848959687949     0.928048608068    -0.845938976902
    H           -5.693988814723    -0.308409443328     0.062931274925
    H           -4.824253458671     0.957769917074     0.905118390068
    H            3.848731807628    -0.407051923182    -1.764439440544
    H            4.920457287604     0.148392648390    -0.471580700062
    H            4.173292692751    -1.458400210057    -0.408482228875

  Mulliken Charges: (a.u.)
   Center  Symbol    Alpha    Beta     Spin     Total
       1     O     4.17398  4.17398  0.00000 -0.34796
       2     C     2.85981  2.85981  0.00000  0.28038
       3     C     3.11018  3.11018  0.00000 -0.22035
       4     C     3.15306  3.15306  0.00000 -0.30612
       5     C     3.08885  3.08885  0.00000 -0.17770
       6     H     0.44525  0.44525  0.00000  0.10950
       7     H     0.44451  0.44451  0.00000  0.11099
       8     C     3.09010  3.09010  0.00000 -0.18020
       9     H     0.45251  0.45251  0.00000  0.09499
      10     H     0.43860  0.43860  0.00000  0.12280
      11     C     3.08637  3.08637  0.00000 -0.17275
      12     H     0.45591  0.45591  0.00000  0.08818
      13     H     0.45451  0.45451  0.00000  0.09097
      14     C     3.08436  3.08436  0.00000 -0.16872
      15     H     0.45464  0.45464  0.00000  0.09073
      16     H     0.45302  0.45302  0.00000  0.09397
      17     C     3.15037  3.15037  0.00000 -0.30074
      18     H     0.45529  0.45529  0.00000  0.08943
      19     H     0.45473  0.45473  0.00000  0.09053
      20     H     0.45507  0.45507  0.00000  0.08985
      21     H     0.44856  0.44856  0.00000  0.10288
      22     H     0.45451  0.45451  0.00000  0.09097
      23     H     0.44946  0.44946  0.00000  0.10108
      24     H     0.43617  0.43617  0.00000  0.12766
      25     H     0.45019  0.45019  0.00000  0.09962

   Total alpha = 36.00000, Total beta = 36.00000, Total charge = -0.00000

*** Psi4 exiting successfully. Buy a developer a beer!
