  ==> Input File <==

--------------------------------------------------------------------------
set {
	reference rhf
	basis 6-31G*
}

set_num_threads( 1 )
memory 2 gb

molecule MOL {
0 1

O	 1.094331	 0.402474	 -0.976976
C	 1.705091	 0.115954	 0.001797
C	 1.442756	 0.650283	 1.388715
O	 2.721346	 -0.737485	 -0.000216
C	 0.280369	 1.636649	 1.448565
H	 1.268561	 -0.203438	 2.037969
H	 2.364281	 1.105856	 1.740799
C	 0.036388	 2.160959	 2.864416
H	 -0.617143	 1.154780	 1.073781
H	 0.480122	 2.465942	 0.777237
C	 -1.126902	 3.151134	 2.942963
H	 -0.159771	 1.324370	 3.533472
H	 0.940712	 2.640921	 3.235516
C	 -1.369418	 3.675588	 4.357666
H	 -2.031623	 2.672367	 2.574991
H	 -0.932022	 3.987839	 2.275816
H	 -1.601363	 2.864671	 5.042377
H	 -2.199416	 4.374893	 4.380601
H	 -0.492782	 4.190237	 4.741017
C	 4.024888	 -0.184556	 -0.001949
H	 4.179030	 0.422472	 -0.882452
H	 4.701782	 -1.024608	 -0.003642
H	 4.181981	 0.421185	 0.878906

	symmetry c1
}
set optking {
	frozen_dihedral = ("
		15 11 8 12,
		9 5 8 12,
		1 2 3 6,
		9 5 3 6
	")
}

ee = energy('scf')
oeprop('DIPOLE', 'QUADRUPOLE', 'MULLIKEN_CHARGES')
f=open( 'psi4out.xyz', 'w' )
f.write( "23  " )
f.write( str(ee) + "\n" )
f.write( MOL.save_string_xyz() )
f.close()
--------------------------------------------------------------------------

    Molecular point group: c1

    Geometry (in Angstrom), charge = 0, multiplicity = 1:

       Center              X                  Y                   Z               Mass
    ------------   -----------------  -----------------  -----------------  -----------------
           O          0.086557282328    -0.794439530365    -2.299412108449    15.994914619560
           C          0.697317282328    -1.080959530365    -1.320639108449    12.000000000000
           C          0.434982282328    -0.546630530365     0.066278891551    12.000000000000
           O          1.713572282328    -1.934398530365    -1.322652108449    15.994914619560
           C         -0.727404717672     0.439735469635     0.126128891551    12.000000000000
           H          0.260787282328    -1.400351530365     0.715532891551     1.007825032070
           H          1.356507282328    -0.091057530365     0.418362891551     1.007825032070
           C         -0.971385717672     0.964045469635     1.541979891551    12.000000000000
           H         -1.624916717672    -0.042133530365    -0.248655108449     1.007825032070
           H         -0.527651717672     1.269028469635    -0.545199108449     1.007825032070
           C         -2.134675717672     1.954220469635     1.620526891551    12.000000000000
           H         -1.167544717672     0.127456469635     2.211035891551     1.007825032070
           H         -0.067061717672     1.444007469635     1.913079891551     1.007825032070
           C         -2.377191717672     2.478674469635     3.035229891551    12.000000000000
           H         -3.039396717672     1.475453469635     1.252554891551     1.007825032070
           H         -1.939795717672     2.790925469635     0.953379891551     1.007825032070
           H         -2.609136717672     1.667757469635     3.719940891551     1.007825032070
           H         -3.207189717672     3.177979469635     3.058164891551     1.007825032070
           H         -1.500555717672     2.993323469635     3.418580891551     1.007825032070
           C          3.017114282328    -1.381469530365    -1.324385108449    12.000000000000
           H          3.171256282328    -0.774441530365    -2.204888108449     1.007825032070
           H          3.694008282328    -2.221521530365    -1.326078108449     1.007825032070
           H          3.174207282328    -0.775728530365    -0.443530108449     1.007825032070

  Charge       = 0
  Multiplicity = 1
  Basis Set: 6-31G*
  Basis Set:

    Orbital Energies (a.u.)
    -----------------------

    Doubly Occupied:

       1A    -20.588231     2A    -20.554922     3A    -11.373770
       4A    -11.296483     5A    -11.237531     6A    -11.220674
       7A    -11.219511     8A    -11.217776     9A    -11.210904
      10A     -1.464073    11A     -1.368092    12A     -1.094098
      13A     -1.041282    14A     -0.986686    15A     -0.945957
      16A     -0.851178    17A     -0.797105    18A     -0.768387
      19A     -0.695501    20A     -0.682311    21A     -0.677832
      22A     -0.650799    23A     -0.620906    24A     -0.605517
      25A     -0.579592    26A     -0.567917    27A     -0.557898
      28A     -0.539740    29A     -0.509968    30A     -0.493936
      31A     -0.484554    32A     -0.481202    33A     -0.470194
      34A     -0.467207    35A     -0.451112    36A     -0.429884

  @DF-RHF Final Energy:  -422.95328204947066

   => Energetics <=

    Nuclear Repulsion Energy =            454.7681845256553288
    One-Electron Energy =               -1477.0376552340831040
    Two-Electron Energy =                 599.3161886589537062
    DFT Exchange-Correlation Energy =       0.0000000000000000
    Empirical Dispersion Energy =           0.0000000000000000
    PCM Polarization Energy =               0.0000000000000000
    EFP Energy =                            0.0000000000000000
    Total Energy =                       -422.9532820494740690

  Mulliken Charges: (a.u.)
   Center  Symbol    Alpha    Beta     Spin     Total
       1     O     4.25786  4.25786  0.00000 -0.51572
       2     C     2.61397  2.61397  0.00000  0.77206
       3     C     3.21562  3.21562  0.00000 -0.43123
       4     O     4.30901  4.30901  0.00000 -0.61803
       5     C     3.15253  3.15253  0.00000 -0.30506
       6     H     0.39850  0.39850  0.00000  0.20300
       7     H     0.40838  0.40838  0.00000  0.18324
       8     C     3.15297  3.15297  0.00000 -0.30595
       9     H     0.41010  0.41010  0.00000  0.17980
      10     H     0.41293  0.41293  0.00000  0.17414
      11     C     3.15160  3.15160  0.00000 -0.30321
      12     H     0.42380  0.42380  0.00000  0.15240
      13     H     0.42550  0.42550  0.00000  0.14900
      14     C     3.23959  3.23959  0.00000 -0.47917
      15     H     0.42078  0.42078  0.00000  0.15844
      16     H     0.42151  0.42151  0.00000  0.15699
      17     H     0.42166  0.42166  0.00000  0.15668
      18     H     0.41821  0.41821  0.00000  0.16359
      19     H     0.42221  0.42221  0.00000  0.15557
      20     C     3.09407  3.09407  0.00000 -0.18814
      21     H     0.40864  0.40864  0.00000  0.18273
      22     H     0.40000  0.40000  0.00000  0.20000
      23     H     0.42057  0.42057  0.00000  0.15887

   Total alpha = 36.00000, Total beta = 36.00000, Total charge = -0.00000
