  ==> Input File <==

--------------------------------------------------------------------------
set {
	reference rhf
	basis 6-31G*
}

set_num_threads( 1 )
memory 2 gb

molecule MOL {
0 1

H	 0.744080	 -3.237517	 -1.050189
O	 1.029526	 -2.547632	 -0.459143
C	 0.240371	 -1.490025	 -0.646538
C	 0.624473	 -0.343591	 0.253101
O	 -0.645701	 -1.495688	 -1.437651
C	 -0.265902	 0.883932	 0.072916
H	 0.601922	 -0.718357	 1.271146
H	 1.665312	 -0.107447	 0.046599
C	 -1.728698	 0.646073	 0.462102
H	 -0.209144	 1.219470	 -0.958188
H	 0.135059	 1.692851	 0.673903
C	 -2.482460	 -0.343073	 -0.431425
H	 -2.245265	 1.602650	 0.432430
H	 -1.779332	 0.308348	 1.496285
C	 -3.960546	 -0.461025	 -0.060175
H	 -2.395034	 -0.026811	 -1.468912
H	 -2.024850	 -1.327147	 -0.371646
H	 -4.472726	 -1.168004	 -0.705284
H	 -4.465146	 0.496508	 -0.151489
H	 -4.081218	 -0.800940	 0.964585

	symmetry c1
}
set optking {
	frozen_dihedral = ("
		16 12 9 6,
		12 9 6 10,
		5 3 4 7,
		1 2 3 5
	")
}

ee = energy('scf')
oeprop('DIPOLE', 'QUADRUPOLE', 'MULLIKEN_CHARGES')
f=open( 'psi4out.xyz', 'w' )
f.write( "20  " )
f.write( str(ee) + "\n" )
f.write( MOL.save_string_xyz() )
f.close()
--------------------------------------------------------------------------

    Molecular point group: c1

    Geometry (in Angstrom), charge = 0, multiplicity = 1:

       Center              X                  Y                   Z               Mass
    ------------   -----------------  -----------------  -----------------  -----------------
           H          1.634861227063    -2.547948943789    -0.754207438816     1.007825032070
           O          1.920307227063    -1.858063943789    -0.163161438816    15.994914619560
           C          1.131152227063    -0.800456943789    -0.350556438816    12.000000000000
           C          1.515254227063     0.345977056211     0.549082561184    12.000000000000
           O          0.245080227063    -0.806119943789    -1.141669438816    15.994914619560
           C          0.624879227063     1.573500056211     0.368897561184    12.000000000000
           H          1.492703227063    -0.028788943789     1.567127561184     1.007825032070
           H          2.556093227063     0.582121056211     0.342580561184     1.007825032070
           C         -0.837916772937     1.335641056211     0.758083561184    12.000000000000
           H          0.681637227063     1.909038056211    -0.662206438816     1.007825032070
           H          1.025840227063     2.382419056211     0.969884561184     1.007825032070
           C         -1.591678772937     0.346495056211    -0.135443438816    12.000000000000
           H         -1.354483772937     2.292218056211     0.728411561184     1.007825032070
           H         -0.888550772937     0.997916056211     1.792266561184     1.007825032070
           C         -3.069764772937     0.228543056211     0.235806561184    12.000000000000
           H         -1.504252772937     0.662757056211    -1.172930438816     1.007825032070
           H         -1.134068772937    -0.637578943789    -0.075664438816     1.007825032070
           H         -3.581944772937    -0.478435943789    -0.409302438816     1.007825032070
           H         -3.574364772937     1.186076056211     0.144492561184     1.007825032070
           H         -3.190436772937    -0.111371943789     1.260566561184     1.007825032070

  Charge       = 0
  Multiplicity = 1
  Basis Set: 6-31G*
  Basis Set:

    Orbital Energies (a.u.)
    -----------------------

    Doubly Occupied:

       1A    -20.615961     2A    -20.552473     3A    -11.384347
       4A    -11.243281     5A    -11.224547     6A    -11.210016
       7A    -11.191388     8A    -11.186238     9A     -1.480563
      10A     -1.374592    11A     -1.091260    12A     -1.030282
      13A     -0.951900    14A     -0.864733    15A     -0.817865
      16A     -0.766270    17A     -0.709299    18A     -0.692188
      19A     -0.672654    20A     -0.617277    21A     -0.601062
      22A     -0.589051    23A     -0.570047    24A     -0.543488
      25A     -0.541133    26A     -0.515362    27A     -0.494679
      28A     -0.486705    29A     -0.465856    30A     -0.446246
      31A     -0.437819    32A     -0.410598

  @DF-RHF Final Energy:  -383.91321702035918

   => Energetics <=

    Nuclear Repulsion Energy =            401.1649380929840163
    One-Electron Energy =               -1318.5977455796760296
    Two-Electron Energy =                 533.5195904663312376
    DFT Exchange-Correlation Energy =       0.0000000000000000
    Empirical Dispersion Energy =           0.0000000000000000
    PCM Polarization Energy =               0.0000000000000000
    EFP Energy =                            0.0000000000000000
    Total Energy =                       -383.9132170203607757

  Mulliken Charges: (a.u.)
   Center  Symbol    Alpha    Beta     Spin     Total
       1     H     0.26785  0.26785  0.00000  0.46430
       2     O     4.35019  4.35019  0.00000 -0.70038
       3     C     2.62319  2.62319  0.00000  0.75362
       4     C     3.21121  3.21121  0.00000 -0.42242
       5     O     4.27735  4.27735  0.00000 -0.55470
       6     C     3.15742  3.15742  0.00000 -0.31484
       7     H     0.39726  0.39726  0.00000  0.20547
       8     H     0.39498  0.39498  0.00000  0.21004
       9     C     3.15778  3.15778  0.00000 -0.31556
      10     H     0.41189  0.41189  0.00000  0.17621
      11     H     0.41525  0.41525  0.00000  0.16950
      12     C     3.14166  3.14166  0.00000 -0.28331
      13     H     0.42127  0.42127  0.00000  0.15746
      14     H     0.42740  0.42740  0.00000  0.14520
      15     C     3.23762  3.23762  0.00000 -0.47524
      16     H     0.41901  0.41901  0.00000  0.16198
      17     H     0.40928  0.40928  0.00000  0.18143
      18     H     0.42175  0.42175  0.00000  0.15649
      19     H     0.42867  0.42867  0.00000  0.14267
      20     H     0.42895  0.42895  0.00000  0.14209

   Total alpha = 32.00000, Total beta = 32.00000, Total charge = -0.00000
