                              Psi4 1.0.54 Driver

  ==> Input File <==

--------------------------------------------------------------------------
set {
	reference rhf
	basis cc-pvtz
}

set_num_threads( 4 )
memory 2 gb

molecule MOL {
0 1

H	 -0.939693	 0.000281	 1.681345
O	 -0.046262	 -0.000157	 1.387678
C	 -0.000837	 0.000006	 -0.025491
C	 1.118104	 0.924653	 -0.501040
C	 0.222658	 -1.424276	 -0.530088
C	 -1.358809	 0.523234	 -0.473076
H	 1.154320	 0.973479	 -1.583213
H	 2.083873	 0.570705	 -0.153072
H	 0.967186	 1.925226	 -0.115632
H	 0.226032	 -1.461438	 -1.613321
H	 1.176130	 -1.810547	 -0.182586
H	 -0.559087	 -2.078592	 -0.165108
H	 -1.421455	 0.560447	 -1.554269
H	 -1.523448	 1.519704	 -0.083007
H	 -2.148151	 -0.118911	 -0.103206

	symmetry c1
}
set optking {
	frozen_dihedral = ("
		4 3 2 1
	")
}

ee,wfn = optimize('scf', return_wfn=True)
oeprop( wfn, 'DIPOLE', 'QUADRUPOLE', 'MULLIKEN_CHARGES')
f=open( 'psi4out.xyz', 'w' )
f.write( "15  " )
f.write( str(ee) + "\n" )
f.write( MOL.save_string_xyz() )
f.close()
--------------------------------------------------------------------------

    Molecular point group: c1
  Charge       = 0
  Multiplicity = 1
  Basis Set: CC-PVTZ
  Basis Set:
  @DF-RHF Final Energy:  -232.24331038439280
    Total Energy =                       -232.2433103843928848
    Molecular point group: c1
  Basis Set: CC-PVTZ
  Basis Set:
  Basis Set: CC-PVTZ
  Basis Set:
  @DF-RHF Final Energy:  -232.20916781824550
    Total Energy =                       -232.2091678182454189
  Basis Set: CC-PVTZ
  Basis Set:
  Basis Set: CC-PVTZ
  Basis Set:
  @DF-RHF Final Energy:  -232.24397625025748
    Total Energy =                       -232.2439762502573899
  Basis Set: CC-PVTZ
  Basis Set:
  Basis Set: CC-PVTZ
  Basis Set:
  @DF-RHF Final Energy:  -232.24521558069173
    Total Energy =                       -232.2452155806917062
  Basis Set: CC-PVTZ
  Basis Set:
  Basis Set: CC-PVTZ
  Basis Set:
  @DF-RHF Final Energy:  -232.24523846200722
    Total Energy =                       -232.2452384620072507
  Basis Set: CC-PVTZ
  Basis Set:
  Basis Set: CC-PVTZ
  Basis Set:
  @DF-RHF Final Energy:  -232.24524020543501
    Total Energy =                       -232.2452402054352092
  Basis Set: CC-PVTZ
  Basis Set:
  Basis Set: CC-PVTZ
  Basis Set:
  @DF-RHF Final Energy:  -232.24524194252808
    Total Energy =                       -232.2452419425281960
  Basis Set: CC-PVTZ
  Basis Set:
  Charge       = 0
  Multiplicity = 1
  Basis Set: CC-PVTZ
  Basis Set:

    Orbital Energies (a.u.)
    -----------------------

    Doubly Occupied:

       1A    -20.540713     2A    -11.281060     3A    -11.215303
       4A    -11.204309     5A    -11.203380     6A     -1.363288
       7A     -1.065653     8A     -0.945521     9A     -0.937407
      10A     -0.778580    11A     -0.672012    12A     -0.624532
      13A     -0.622937    14A     -0.576290    15A     -0.557545
      16A     -0.534232    17A     -0.517074    18A     -0.511327
      19A     -0.503704    20A     -0.457980    21A     -0.427345

  @DF-RHF Final Energy:  -232.24524194513918

   => Energetics <=

    Nuclear Repulsion Energy =            200.5999533620678221
    One-Electron Energy =                -712.6100071444272999
    Two-Electron Energy =                 279.7648118372200088
    DFT Exchange-Correlation Energy =       0.0000000000000000
    Empirical Dispersion Energy =           0.0000000000000000
    PCM Polarization Energy =               0.0000000000000000
    EFP Energy =                            0.0000000000000000
    Total Energy =                       -232.2452419451394690
    Molecular point group: c1
  Basis Set: CC-PVTZ
  Basis Set:

  -Total Gradient:
     Atom            X                  Y                   Z
    ------   -----------------  -----------------  -----------------
       1        0.000100715797     0.001577930321     0.000502971466
       2       -0.000278436723    -0.001724888896    -0.000572912298
       3        0.000769126162    -0.000658868148    -0.000013701739
       4       -0.000598833844     0.000779206610     0.000109279858
       5        0.000002764564     0.000013035715    -0.000012369745
       6        0.000002244393     0.000010855026    -0.000041568598
       7        0.000000067426    -0.000014742964     0.000004901345
       8        0.000004557073     0.000005358858     0.000009301795
       9       -0.000015862388    -0.000003224285    -0.000004286178
      10        0.000001504276    -0.000003254831     0.000007605119
      11       -0.000003629889     0.000001096530    -0.000001879224
      12        0.000008068359     0.000009850394     0.000000653233
      13       -0.000014582443     0.000000408292     0.000007396192
      14        0.000008367138     0.000001655063    -0.000000866772
      15        0.000013930101     0.000005582315     0.000005475543

  **** Optimization is complete! (in 8 steps) ****
    Final optimized geometry and variables:
    Molecular point group: c1

    Geometry (in Angstrom), charge = 0, multiplicity = 1:

    H           -1.175339679928    -0.406881055291     1.480103983385
    O           -0.252661119791    -0.405048003230     1.307506865670
    C            0.006926212301     0.003260633000    -0.024349700182
    C            1.236569870536     0.901816173357     0.034347179787
    C            0.281824390662    -1.239814624560    -0.866694647419
    C           -1.190698607806     0.773741343860    -0.574210968020
    H            1.535320319917     1.220089073193    -0.957897015592
    H            2.064221205362     0.370477361278     0.487570162927
    H            1.032418951567     1.780127374119     0.633857968601
    H            0.529136811003    -0.976910421212    -1.889223650230
    H            1.108166176899    -1.798335683687    -0.445420147442
    H           -0.587263327753    -1.887764253589    -0.882434749484
    H           -1.003459955604     1.115003842659    -1.584825093842
    H           -1.401573547815     1.640351310016     0.042069874017
    H           -2.075996859538     0.145108428330    -0.597306089398

  Mulliken Charges: (a.u.)
   Center  Symbol    Alpha    Beta     Spin     Total
       1     H     0.39271  0.39271  0.00000  0.21459
       2     O     4.21448  4.21448  0.00000 -0.42896
       3     C     2.87974  2.87974  0.00000  0.24052
       4     C     3.14012  3.14012  0.00000 -0.28025
       5     C     3.14192  3.14192  0.00000 -0.28384
       6     C     3.16061  3.16061  0.00000 -0.32121
       7     H     0.45945  0.45945  0.00000  0.08110
       8     H     0.44735  0.44735  0.00000  0.10529
       9     H     0.45198  0.45198  0.00000  0.09603
      10     H     0.45872  0.45872  0.00000  0.08257
      11     H     0.44819  0.44819  0.00000  0.10362
      12     H     0.45468  0.45468  0.00000  0.09064
      13     H     0.45122  0.45122  0.00000  0.09755
      14     H     0.44606  0.44606  0.00000  0.10787
      15     H     0.45276  0.45276  0.00000  0.09448

   Total alpha = 21.00000, Total beta = 21.00000, Total charge = -0.00000

*** Psi4 exiting successfully. Buy a developer a beer!
