  ==> Input File <==

--------------------------------------------------------------------------
set {
	reference rhf
	basis 6-31G*
}

set_num_threads( 1 )
memory 2 gb

molecule MOL {
0 1

H	 3.276176	 0.174363	 -0.109463
N	 2.434251	 -0.367735	 -0.081097
C	 1.267428	 0.496480	 0.024474
H	 2.501951	 -0.965776	 0.720575
C	 -0.016086	 -0.325158	 -0.029487
H	 1.288818	 1.183521	 -0.816092
H	 1.267576	 1.109062	 0.929528
C	 -1.282277	 0.529072	 0.046735
H	 -0.012495	 -0.908639	 -0.945788
H	 -0.015903	 -1.041248	 0.791956
C	 -2.339745	 -0.057586	 0.981238
H	 -1.704394	 0.637432	 -0.950292
H	 -1.025093	 1.532537	 0.379708
H	 -2.644169	 -1.047829	 0.654950
H	 -3.226637	 0.567612	 1.013990
H	 -1.960258	 -0.146943	 1.995252

	symmetry c1
}
set optking {
	frozen_dihedral = ("
		6 3 5 9,
		1 2 3 6
	")
}

ee = energy('scf')
oeprop('DIPOLE', 'QUADRUPOLE', 'MULLIKEN_CHARGES')
f=open( 'psi4out.xyz', 'w' )
f.write( "16  " )
f.write( str(ee) + "\n" )
f.write( MOL.save_string_xyz() )
f.close()
--------------------------------------------------------------------------

    Molecular point group: c1

    Geometry (in Angstrom), charge = 0, multiplicity = 1:

       Center              X                  Y                   Z               Mass
    ------------   -----------------  -----------------  -----------------  -----------------
           H          3.230112145688     0.124192367039    -0.312405711615     1.007825032070
           N          2.388187145688    -0.417905632961    -0.284039711615    14.003074004780
           C          1.221364145688     0.446309367039    -0.178468711615    12.000000000000
           H          2.455887145688    -1.015946632961     0.517632288385     1.007825032070
           C         -0.062149854312    -0.375328632961    -0.232429711615    12.000000000000
           H          1.242754145688     1.133350367039    -1.019034711615     1.007825032070
           H          1.221512145688     1.058891367039     0.726585288385     1.007825032070
           C         -1.328340854312     0.478901367039    -0.156207711615    12.000000000000
           H         -0.058558854312    -0.958809632961    -1.148730711615     1.007825032070
           H         -0.061966854312    -1.091418632961     0.589013288385     1.007825032070
           C         -2.385808854312    -0.107756632961     0.778295288385    12.000000000000
           H         -1.750457854312     0.587261367039    -1.153234711615     1.007825032070
           H         -1.071156854312     1.482366367039     0.176765288385     1.007825032070
           H         -2.690232854312    -1.097999632961     0.452007288385     1.007825032070
           H         -3.272700854312     0.517441367039     0.811047288385     1.007825032070
           H         -2.006321854312    -0.197113632961     1.792309288385     1.007825032070

  Charge       = 0
  Multiplicity = 1
  Basis Set: 6-31G*
  Basis Set:

    Orbital Energies (a.u.)
    -----------------------

    Doubly Occupied:

       1A    -15.532440     2A    -11.240368     3A    -11.213840
       4A    -11.208491     5A    -11.208292     6A     -1.176696
       7A     -1.059679     8A     -0.958091     9A     -0.845337
      10A     -0.791572    11A     -0.662316    12A     -0.638271
      13A     -0.597459    14A     -0.587980    15A     -0.562445
      16A     -0.518238    17A     -0.510434    18A     -0.469775
      19A     -0.460667    20A     -0.458184    21A     -0.381502

  @DF-RHF Final Energy:  -212.31252617888825

   => Energetics <=

    Nuclear Repulsion Energy =            186.7705108593541183
    One-Electron Energy =                -656.0019472712285733
    Two-Electron Energy =                 256.9189102329867183
    DFT Exchange-Correlation Energy =       0.0000000000000000
    Empirical Dispersion Energy =           0.0000000000000000
    PCM Polarization Energy =               0.0000000000000000
    EFP Energy =                            0.0000000000000000
    Total Energy =                       -212.3125261788877651

  Mulliken Charges: (a.u.)
   Center  Symbol    Alpha    Beta     Spin     Total
       1     H     0.33257  0.33257  0.00000  0.33486
       2     N     3.92193  3.92193  0.00000 -0.84385
       3     C     3.06312  3.06312  0.00000 -0.12624
       4     H     0.33525  0.33525  0.00000  0.32950
       5     C     3.15279  3.15279  0.00000 -0.30558
       6     H     0.42043  0.42043  0.00000  0.15914
       7     H     0.43444  0.43444  0.00000  0.13112
       8     C     3.15754  3.15754  0.00000 -0.31508
       9     H     0.41109  0.41109  0.00000  0.17782
      10     H     0.42582  0.42582  0.00000  0.14835
      11     C     3.24000  3.24000  0.00000 -0.48000
      12     H     0.41921  0.41921  0.00000  0.16158
      13     H     0.42214  0.42214  0.00000  0.15571
      14     H     0.42059  0.42059  0.00000  0.15882
      15     H     0.42054  0.42054  0.00000  0.15892
      16     H     0.42254  0.42254  0.00000  0.15492

   Total alpha = 21.00000, Total beta = 21.00000, Total charge = -0.00000
