                              Psi4 1.0.54 Driver

  ==> Input File <==

--------------------------------------------------------------------------
set {
	reference rhf
	basis cc-pvtz
}

set_num_threads( 4 )
memory 2 gb

molecule MOL {
0 1

H	 -1.303528	 0.354660	 -2.311941
C	 -1.072154	 -0.512550	 -1.697696
O	 -1.401606	 -0.295183	 -0.366624
H	 -1.653306	 -1.352516	 -2.049277
H	 -0.015301	 -0.745129	 -1.815398
C	 -0.718530	 0.758693	 0.228682
C	 0.718529	 0.758687	 -0.228709
H	 -1.176498	 1.708665	 -0.046615
H	 -0.748705	 0.673525	 1.312779
O	 1.401606	 -0.295166	 0.366636
H	 0.748705	 0.673477	 -1.312803
H	 1.176496	 1.708671	 0.046552
C	 2.714315	 -0.441627	 -0.061017
H	 2.765292	 -0.641548	 -1.128869
H	 3.305661	 0.447341	 0.150952
H	 3.143725	 -1.278506	 0.470147

	symmetry c1
}
set optking {
	frozen_dihedral = ("
		2 3 6 7
	")
}

ee,wfn = optimize('scf', return_wfn=True)
oeprop( wfn, 'DIPOLE', 'QUADRUPOLE', 'MULLIKEN_CHARGES')
f=open( 'psi4out.xyz', 'w' )
f.write( "16  " )
f.write( str(ee) + "\n" )
f.write( MOL.save_string_xyz() )
f.close()
--------------------------------------------------------------------------

    Molecular point group: c1
  Charge       = 0
  Multiplicity = 1
  Basis Set: CC-PVTZ
  Basis Set:
  @DF-RHF Final Energy:  -307.08107373269166
    Total Energy =                       -307.0810737326917774
    Molecular point group: c1
  Basis Set: CC-PVTZ
  Basis Set:
  Basis Set: CC-PVTZ
  Basis Set:
  @DF-RHF Final Energy:  -307.05931873556290
    Total Energy =                       -307.0593187355628970
  Basis Set: CC-PVTZ
  Basis Set:
  Basis Set: CC-PVTZ
  Basis Set:
  @DF-RHF Final Energy:  -307.08942805492262
    Total Energy =                       -307.0894280549227346
  Basis Set: CC-PVTZ
  Basis Set:
  Basis Set: CC-PVTZ
  Basis Set:
  @DF-RHF Final Energy:  -307.09225398265130
    Total Energy =                       -307.0922539826513002
  Basis Set: CC-PVTZ
  Basis Set:
  Basis Set: CC-PVTZ
  Basis Set:
  @DF-RHF Final Energy:  -307.09275807768830
    Total Energy =                       -307.0927580776884724
  Basis Set: CC-PVTZ
  Basis Set:
  Basis Set: CC-PVTZ
  Basis Set:
  @DF-RHF Final Energy:  -307.09286896063963
    Total Energy =                       -307.0928689606395778
  Basis Set: CC-PVTZ
  Basis Set:
  Basis Set: CC-PVTZ
  Basis Set:
  @DF-RHF Final Energy:  -307.09288650693185
    Total Energy =                       -307.0928865069320182
  Basis Set: CC-PVTZ
  Basis Set:
  Charge       = 0
  Multiplicity = 1
  Basis Set: CC-PVTZ
  Basis Set:

    Orbital Energies (a.u.)
    -----------------------

    Doubly Occupied:

       1A    -20.554931     2A    -20.543954     3A    -11.272757
       4A    -11.267603     5A    -11.267589     6A    -11.258451
       7A     -1.394130     8A     -1.371639     9A     -1.029958
      10A     -0.950484    11A     -0.900956    12A     -0.811421
      13A     -0.694493    14A     -0.683638    15A     -0.660741
      16A     -0.639337    17A     -0.630225    18A     -0.596726
      19A     -0.559595    20A     -0.534306    21A     -0.519290
      22A     -0.494017    23A     -0.451337    24A     -0.425607
      25A     -0.412123

  @DF-RHF Final Energy:  -307.09288702620518

   => Energetics <=

    Nuclear Repulsion Energy =            264.4033649183464831
    One-Electron Energy =                -943.1418887444335724
    Two-Electron Energy =                 371.6456367998817996
    DFT Exchange-Correlation Energy =       0.0000000000000000
    Empirical Dispersion Energy =           0.0000000000000000
    PCM Polarization Energy =               0.0000000000000000
    EFP Energy =                            0.0000000000000000
    Total Energy =                       -307.0928870262052897
    Molecular point group: c1
  Basis Set: CC-PVTZ
  Basis Set:

  -Total Gradient:
     Atom            X                  Y                   Z
    ------   -----------------  -----------------  -----------------
       1        0.000005354173    -0.000009437924     0.000008282803
       2        0.002132872471    -0.001566356863     0.001418508783
       3       -0.003348464970     0.002967348285    -0.003310288325
       4       -0.000001191643    -0.000007031994    -0.000007259246
       5       -0.000003345226     0.000017015324     0.000025830026
       6        0.001646237386    -0.002741921865     0.004246334661
       7       -0.000466823753     0.001417673116    -0.002443975442
       8        0.000011240388    -0.000003680545     0.000002833419
       9       -0.000004211415     0.000011817633     0.000015124293
      10        0.000093156588    -0.000028846141     0.000029816198
      11        0.000003175610    -0.000013699645     0.000009470686
      12        0.000008267234    -0.000016119335     0.000000214817
      13       -0.000075929785    -0.000038354767     0.000009717199
      14       -0.000005702949     0.000007576152     0.000000864648
      15       -0.000011514507     0.000001198374    -0.000006439956
      16        0.000016880392     0.000002820191     0.000000965437

  **** Optimization is complete! (in 8 steps) ****
    Final optimized geometry and variables:
    Molecular point group: c1

    Geometry (in Angstrom), charge = 0, multiplicity = 1:

    H           -1.183822408413    -0.168666065422    -2.298597274066
    C           -1.102037107697    -0.945161383374    -1.539645918556
    O           -1.633825552872    -0.539637224508    -0.320814143569
    H           -1.677885089999    -1.799028228505    -1.866147148637
    H           -0.063520423602    -1.242283656700    -1.450479395877
    C           -1.158885604194     0.642634363214     0.244088955049
    C            0.329258762916     0.903128706632     0.133907223674
    H           -1.664591609463     1.496488145109    -0.208927959688
    H           -1.435000901614     0.608188088581     1.288693838371
    O            1.043728263378    -0.098404336140     0.781097897121
    H            0.639998737728     0.979922938316    -0.905759907678
    H            0.522896209671     1.871052316784     0.596037338359
    C            2.421954133528     0.075017219880     0.762624080436
    H            2.808473104511     0.093100455545    -0.254332868754
    H            2.713600045764     0.999340092599     1.256765567066
    H            2.867323309950    -0.756410076869     1.288840789165

  Mulliken Charges: (a.u.)
   Center  Symbol    Alpha    Beta     Spin     Total
       1     H     0.47515  0.47515  0.00000  0.04970
       2     C     3.03537  3.03537  0.00000 -0.07073
       3     O     4.17504  4.17504  0.00000 -0.35008
       4     H     0.44299  0.44299  0.00000  0.11402
       5     H     0.46519  0.46519  0.00000  0.06963
       6     C     2.96668  2.96668  0.00000  0.06664
       7     C     2.99599  2.99599  0.00000  0.00801
       8     H     0.47250  0.47250  0.00000  0.05499
       9     H     0.45331  0.45331  0.00000  0.09338
      10     O     4.17245  4.17245  0.00000 -0.34491
      11     H     0.46634  0.46634  0.00000  0.06733
      12     H     0.45788  0.45788  0.00000  0.08424
      13     C     3.03619  3.03619  0.00000 -0.07238
      14     H     0.47164  0.47164  0.00000  0.05673
      15     H     0.46853  0.46853  0.00000  0.06294
      16     H     0.44475  0.44475  0.00000  0.11050

   Total alpha = 25.00000, Total beta = 25.00000, Total charge = -0.00000

*** Psi4 exiting successfully. Buy a developer a beer!
