                              Psi4 1.0.54 Driver

  ==> Input File <==

--------------------------------------------------------------------------
set {
	reference rhf
	basis cc-pvtz
}

set_num_threads( 4 )
memory 2 gb

molecule MOL {
0 1

O	 -1.122364	 -1.102771	 2.056748
C	 -0.439844	 -1.126239	 1.089554
C	 0.815782	 -1.946189	 0.931609
O	 -0.695554	 -0.422406	 0.000602
C	 1.154279	 -2.776244	 2.159372
H	 1.618413	 -1.259813	 0.685394
H	 0.682336	 -2.572161	 0.056231
H	 1.302744	 -2.146591	 3.026386
H	 2.062219	 -3.341408	 1.987373
H	 0.358155	 -3.470878	 2.391524
C	 -1.852370	 0.402254	 0.000718
C	 -3.063338	 -0.501097	 -0.000437
H	 -1.831732	 1.039442	 -0.872158
H	 -1.832493	 1.038301	 0.874430
H	 -3.071944	 -1.133732	 -0.879113
H	 -3.966302	 0.097976	 -0.000483
H	 -3.072764	 -1.134834	 0.877435

	symmetry c1
}
set optking {
	frozen_dihedral = ("
		2 4 11 13
	")
}

ee,wfn = optimize('scf', return_wfn=True)
oeprop( wfn, 'DIPOLE', 'QUADRUPOLE', 'MULLIKEN_CHARGES')
f=open( 'psi4out.xyz', 'w' )
f.write( "17  " )
f.write( str(ee) + "\n" )
f.write( MOL.save_string_xyz() )
f.close()
--------------------------------------------------------------------------

    Molecular point group: c1
  Charge       = 0
  Multiplicity = 1
  Basis Set: CC-PVTZ
  Basis Set:
  @DF-RHF Final Energy:  -345.03511957947359
    Total Energy =                       -345.0351195794735304
    Molecular point group: c1
  Basis Set: CC-PVTZ
  Basis Set:
  Basis Set: CC-PVTZ
  Basis Set:
  @DF-RHF Final Energy:  -345.03565026152609
    Total Energy =                       -345.0356502615263707
  Basis Set: CC-PVTZ
  Basis Set:
  Basis Set: CC-PVTZ
  Basis Set:
  @DF-RHF Final Energy:  -345.03872554558268
    Total Energy =                       -345.0387255455826789
  Basis Set: CC-PVTZ
  Basis Set:
  Basis Set: CC-PVTZ
  Basis Set:
  @DF-RHF Final Energy:  -345.03882755383211
    Total Energy =                       -345.0388275538321068
  Basis Set: CC-PVTZ
  Basis Set:
  Basis Set: CC-PVTZ
  Basis Set:
  @DF-RHF Final Energy:  -345.03882344307902
    Total Energy =                       -345.0388234430789112
  Basis Set: CC-PVTZ
  Basis Set:
  Basis Set: CC-PVTZ
  Basis Set:
  @DF-RHF Final Energy:  -345.03883506193284
    Total Energy =                       -345.0388350619321614
  Basis Set: CC-PVTZ
  Basis Set:
  Basis Set: CC-PVTZ
  Basis Set:
  @DF-RHF Final Energy:  -345.03883762195562
    Total Energy =                       -345.0388376219556221
  Basis Set: CC-PVTZ
  Basis Set:
  Charge       = 0
  Multiplicity = 1
  Basis Set: CC-PVTZ
  Basis Set:

    Orbital Energies (a.u.)
    -----------------------

    Doubly Occupied:

       1A    -20.592873     2A    -20.532809     3A    -11.364321
       4A    -11.283859     5A    -11.235589     6A    -11.214763
       7A    -11.213755     8A     -1.469389     9A     -1.364950
      10A     -1.069552    11A     -1.028504    12A     -0.917435
      13A     -0.855170    14A     -0.757264    15A     -0.704624
      16A     -0.683112    17A     -0.663518    18A     -0.623012
      19A     -0.612229    20A     -0.569562    21A     -0.546995
      22A     -0.532471    23A     -0.521793    24A     -0.517211
      25A     -0.497346    26A     -0.491887    27A     -0.453999
      28A     -0.437566

  @DF-RHF Final Energy:  -345.03883796690491

   => Energetics <=

    Nuclear Repulsion Energy =            319.7041005654454011
    One-Electron Energy =               -1103.9747638524358990
    Two-Electron Energy =                 439.2318253200858749
    DFT Exchange-Correlation Energy =       0.0000000000000000
    Empirical Dispersion Energy =           0.0000000000000000
    PCM Polarization Energy =               0.0000000000000000
    EFP Energy =                            0.0000000000000000
    Total Energy =                       -345.0388379669046230
    Molecular point group: c1
  Basis Set: CC-PVTZ
  Basis Set:

  -Total Gradient:
     Atom            X                  Y                   Z
    ------   -----------------  -----------------  -----------------
       1        0.000003370187    -0.000003424756     0.000029259122
       2       -0.001145292000    -0.002185632942    -0.001226433597
       3       -0.000029141666    -0.000053084573    -0.000024666574
       4        0.001474877835     0.002817884044     0.001451095287
       5       -0.000001554777     0.000016080554    -0.000002981265
       6        0.000004616891     0.000021684273     0.000015959373
       7        0.000019188979     0.000013960813     0.000002508202
       8       -0.000005000951     0.000001481769    -0.000006210536
       9       -0.000003796809    -0.000001061107    -0.000005426339
      10       -0.000003717017    -0.000008286845     0.000001312296
      11        0.000834289203     0.001598208571     0.001585072146
      12       -0.000035510361     0.000006784084     0.000004958892
      13       -0.001135054470    -0.002215342214    -0.001818580617
      14        0.000011849581    -0.000008318916     0.000001458978
      15        0.000010980176    -0.000003023029    -0.000006237547
      16       -0.000000489060    -0.000004476842     0.000002391598
      17        0.000000384263     0.000006567117    -0.000003479417

  **** Optimization is complete! (in 8 steps) ****
    Final optimized geometry and variables:
    Molecular point group: c1

    Geometry (in Angstrom), charge = 0, multiplicity = 1:

    O           -0.356691239157    -0.128323845979     1.196091199944
    C            0.330085693295    -0.044885503861     0.234858124433
    C            1.653935552440    -0.744261093408     0.053415132268
    O            0.031856339974     0.694042753261    -0.819281355845
    C            2.064536154807    -1.583317479801     1.252693051896
    H            2.392479193366     0.018333013741    -0.167153891268
    H            1.576062097806    -1.349214856286    -0.843291361613
    H            2.156795161274    -0.973529774105     2.141462899404
    H            3.019010012827    -2.059446920312     1.063939606796
    H            1.333217903908    -2.353457314281     1.458286245704
    C           -1.219608715074     1.369379523025    -0.860392130125
    C           -2.390742171557     0.427464537439    -1.065679962938
    H           -1.135072254960     2.025698790416    -1.713155877774
    H           -1.339030566964     1.955724195560     0.038580418344
    H           -2.244782754866    -0.168307586439    -1.959214991751
    H           -3.296096107944     1.010309969224    -1.193624073048
    H           -2.524866996753    -0.230670183541    -0.220686044086

  Mulliken Charges: (a.u.)
   Center  Symbol    Alpha    Beta     Spin     Total
       1     O     4.19946  4.19946  0.00000 -0.39892
       2     C     2.80159  2.80159  0.00000  0.39681
       3     C     3.09368  3.09368  0.00000 -0.18735
       4     O     4.15629  4.15629  0.00000 -0.31258
       5     C     3.13983  3.13983  0.00000 -0.27967
       6     H     0.44095  0.44095  0.00000  0.11811
       7     H     0.44252  0.44252  0.00000  0.11497
       8     H     0.44855  0.44855  0.00000  0.10290
       9     H     0.45053  0.45053  0.00000  0.09895
      10     H     0.44867  0.44867  0.00000  0.10266
      11     C     2.98632  2.98632  0.00000  0.02737
      12     C     3.15390  3.15390  0.00000 -0.30780
      13     H     0.44479  0.44479  0.00000  0.11042
      14     H     0.45128  0.45128  0.00000  0.09744
      15     H     0.45303  0.45303  0.00000  0.09394
      16     H     0.45067  0.45067  0.00000  0.09867
      17     H     0.43795  0.43795  0.00000  0.12410

   Total alpha = 28.00000, Total beta = 28.00000, Total charge = -0.00000

*** Psi4 exiting successfully. Buy a developer a beer!
