  ==> Input File <==

--------------------------------------------------------------------------
set {
	reference rhf
	basis cc-pvtz
}

set_num_threads( 4 )
memory 2 gb

molecule MOL {
0 1

O	 -0.694481	 1.313155	 -0.204815
C	 -0.862519	 0.151932	 -0.046791
C	 -2.171428	 -0.477048	 0.339095
O	 0.085519	 -0.757083	 -0.192238
H	 -2.467997	 -1.191667	 -0.417688
H	 -2.923379	 0.287970	 0.444097
H	 -2.053854	 -1.015120	 1.270901
C	 1.392036	 -0.330828	 -0.560749
C	 1.419713	 0.241402	 -1.962777
H	 2.076325	 -1.159356	 -0.465325
H	 1.649313	 0.423488	 0.167651
H	 2.413234	 0.615527	 -2.182775
H	 1.172137	 -0.515645	 -2.694193
H	 0.718706	 1.062184	 -2.054965

	symmetry c1
}
set optking {
	frozen_dihedral = ("
		10 8 4 2
	")
}

ee = optimize('scf')
oeprop('DIPOLE', 'QUADRUPOLE', 'MULLIKEN_CHARGES')
f=open( 'psi4out.xyz', 'w' )
f.write( "14  " )
f.write( str(ee) + "\n" )
f.write( MOL.save_string_xyz() )
f.close()
--------------------------------------------------------------------------

    Molecular point group: c1
  Charge       = 0
  Multiplicity = 1
  Basis Set: CC-PVTZ
  Basis Set:
  @DF-RHF Final Energy:  -305.98746990908279
    Total Energy =                       -305.9874699090826766
    Molecular point group: c1
  Basis Set: CC-PVTZ
  Basis Set:
  Basis Set: CC-PVTZ
  Basis Set:
  @DF-RHF Final Energy:  -305.98991233371424
    Total Energy =                       -305.9899123337143010
  Basis Set: CC-PVTZ
  Basis Set:
  Basis Set: CC-PVTZ
  Basis Set:
  @DF-RHF Final Energy:  -305.99023177095546
    Total Energy =                       -305.9902317709552904
  Basis Set: CC-PVTZ
  Basis Set:
  Basis Set: CC-PVTZ
  Basis Set:
  @DF-RHF Final Energy:  -305.99033517317298
    Total Energy =                       -305.9903351731727525
  Basis Set: CC-PVTZ
  Basis Set:
  Basis Set: CC-PVTZ
  Basis Set:
  @DF-RHF Final Energy:  -305.99039358067023
    Total Energy =                       -305.9903935806698883
  Basis Set: CC-PVTZ
  Basis Set:
  Basis Set: CC-PVTZ
  Basis Set:
  @DF-RHF Final Energy:  -305.99039771537355
    Total Energy =                       -305.9903977153736605
  Basis Set: CC-PVTZ
  Basis Set:
  Charge       = 0
  Multiplicity = 1
  Basis Set: CC-PVTZ
  Basis Set:

    Orbital Energies (a.u.)
    -----------------------

    Doubly Occupied:

       1A    -20.594442     2A    -20.533047     3A    -11.367862
       4A    -11.284640     5A    -11.231516     6A    -11.215242
       7A     -1.470547     8A     -1.365787     9A     -1.055587
      10A     -0.999099    11A     -0.885857    12A     -0.762697
      13A     -0.701448    14A     -0.685295    15A     -0.662454
      16A     -0.612955    17A     -0.588263    18A     -0.571267
      19A     -0.557344    20A     -0.530717    21A     -0.516734
      22A     -0.495995    23A     -0.455159    24A     -0.440603

  @DF-RHF Final Energy:  -305.99039855687948

   => Energetics <=

    Nuclear Repulsion Energy =            249.9040700624818214
    One-Electron Energy =                -912.6198193332794517
    Two-Electron Energy =                 356.7253507139181465
    DFT Exchange-Correlation Energy =       0.0000000000000000
    Empirical Dispersion Energy =           0.0000000000000000
    PCM Polarization Energy =               0.0000000000000000
    EFP Energy =                            0.0000000000000000
    Total Energy =                       -305.9903985568795406
    Molecular point group: c1
  Basis Set: CC-PVTZ
  Basis Set:

  -Total Gradient:
     Atom            X                  Y                   Z
    ------   -----------------  -----------------  -----------------
       1       -0.000016846201     0.000003198960     0.000023248285
       2       -0.000704216765    -0.000255798921    -0.002690836761
       3       -0.000032842608     0.000000672189    -0.000097117200
       4        0.000926740942     0.000228512752     0.003325582241
       5        0.000021209661    -0.000001744403     0.000039990097
       6       -0.000005654614    -0.000000555174     0.000014968795
       7        0.000000441110     0.000008124048     0.000040781174
       8        0.000412193427     0.000775606992     0.002298567699
       9        0.000007726146    -0.000047655674    -0.000011428305
      10       -0.000597581108    -0.000778942886    -0.002926550693
      11        0.000004340761     0.000005770340    -0.000022330368
      12       -0.000000797588     0.000006752809    -0.000002069414
      13       -0.000001214504     0.000015959475     0.000017323854
      14       -0.000013498661     0.000040099495    -0.000010129405

  **** Optimization is complete! (in 7 steps) ****
    Final optimized geometry and variables:
    Molecular point group: c1

    Geometry (in Angstrom), charge = 0, multiplicity = 1:

    O           -0.586770352730     1.293788731082     0.338844966735
    C           -0.736576293965     0.122084925703     0.418827742750
    C           -2.040006879322    -0.552048365216     0.742078788894
    O            0.233205170061    -0.758490400412     0.248168274450
    H           -2.315537641241    -1.216150998236    -0.066929259699
    H           -2.805426576237     0.192361697952     0.889342504032
    H           -1.926010638178    -1.152342924600     1.635453401727
    C            1.524856778990    -0.300145891133    -0.135230354342
    C            1.575171999228     0.183185434369    -1.572069225400
    H            2.153589560721    -1.170912919779    -0.028350246350
    H            1.848982185392     0.468628499412     0.550356211194
    H            2.601906848735     0.415951791500    -1.831604908632
    H            1.225309758578    -0.591566197566    -2.244288275974
    H            0.977311120718     1.070587223148    -1.714497131266

  Mulliken Charges: (a.u.)
   Center  Symbol    Alpha    Beta     Spin     Total
       1     O     4.19938  4.19938  0.00000 -0.39877
       2     C     2.80147  2.80147  0.00000  0.39706
       3     C     3.13792  3.13792  0.00000 -0.27583
       4     O     4.15678  4.15678  0.00000 -0.31355
       5     H     0.44629  0.44629  0.00000  0.10741
       6     H     0.43833  0.43833  0.00000  0.12333
       7     H     0.44521  0.44521  0.00000  0.10959
       8     C     2.98408  2.98408  0.00000  0.03185
       9     C     3.15324  3.15324  0.00000 -0.30648
      10     H     0.44468  0.44468  0.00000  0.11063
      11     H     0.45096  0.45096  0.00000  0.09808
      12     H     0.45079  0.45079  0.00000  0.09843
      13     H     0.45314  0.45314  0.00000  0.09372
      14     H     0.43774  0.43774  0.00000  0.12452

   Total alpha = 24.00000, Total beta = 24.00000, Total charge = -0.00000
