                              Psi4 1.0.54 Driver

  ==> Input File <==

--------------------------------------------------------------------------
set {
	reference rhf
	basis cc-pvtz
}

set_num_threads( 4 )
memory 2 gb

molecule MOL {
0 1

O	 -0.988175	 -1.402891	 0.050086
C	 -0.675048	 -0.248293	 -0.009686
C	 -1.742492	 0.826599	 -0.011538
N	 0.622280	 0.144970	 -0.099307
H	 -1.692153	 1.431066	 -0.908439
H	 -2.698310	 0.331559	 0.031353
H	 -1.642148	 1.483784	 0.843455
C	 1.288556	 0.069646	 -1.382409
C	 1.493021	 0.318165	 1.038923
H	 1.939082	 0.927328	 -1.502492
H	 0.556892	 0.063943	 -2.169693
H	 1.892790	 -0.830514	 -1.461437
H	 2.201681	 1.108625	 0.827713
H	 0.944339	 0.600390	 1.921075
H	 2.057713	 -0.584953	 1.259254

	symmetry c1
}
set optking {
	frozen_dihedral = ("
		8 4 2 3
	")
}

ee,wfn = optimize('scf', return_wfn=True)
oeprop( wfn, 'DIPOLE', 'QUADRUPOLE', 'MULLIKEN_CHARGES')
f=open( 'psi4out.xyz', 'w' )
f.write( "15  " )
f.write( str(ee) + "\n" )
f.write( MOL.save_string_xyz() )
f.close()
--------------------------------------------------------------------------

    Molecular point group: c1
  Charge       = 0
  Multiplicity = 1
  Basis Set: CC-PVTZ
  Basis Set:
  @DF-RHF Final Energy:  -286.10034450064177
    Total Energy =                       -286.1003445006415404
    Molecular point group: c1
  Basis Set: CC-PVTZ
  Basis Set:
  Basis Set: CC-PVTZ
  Basis Set:
  @DF-RHF Final Energy:  -285.75471108814520
    Total Energy =                       -285.7547110881453136
  Basis Set: CC-PVTZ
  Basis Set:
  Basis Set: CC-PVTZ
  Basis Set:
  @DF-RHF Final Energy:  -285.93279006994112
    Total Energy =                       -285.9327900699411771
  Basis Set: CC-PVTZ
  Basis Set:
  Basis Set: CC-PVTZ
  Basis Set:
  @DF-RHF Final Energy:  -286.07454286150329
    Total Energy =                       -286.0745428615030050
  Basis Set: CC-PVTZ
  Basis Set:
  @DF-RHF Final Energy:  -286.09896565444410
    Total Energy =                       -286.0989656544441004
  @DF-RHF Final Energy:  -286.10788529780200
    Total Energy =                       -286.1078852978017721
  @DF-RHF Final Energy:  -286.04451460203018
    Total Energy =                       -286.0445146020302900
  @DF-RHF Final Energy:  -286.10851863711542
    Total Energy =                       -286.1085186371154805
  @DF-RHF Final Energy:  -286.10104605384902
    Total Energy =                       -286.1010460538490747
  @DF-RHF Final Energy:  -286.11514282119572
    Total Energy =                       -286.1151428211956613
  @DF-RHF Final Energy:  -286.11612361307846
    Total Energy =                       -286.1161236130783436
  @DF-RHF Final Energy:  -286.11627408036077
    Total Energy =                       -286.1162740803604265
  Basis Set: CC-PVTZ
  Basis Set:
  @DF-RHF Final Energy:  -286.11664688285481
    Total Energy =                       -286.1166468828548091
  Basis Set: CC-PVTZ
  Basis Set:
  Basis Set: CC-PVTZ
  Basis Set:
  @DF-RHF Final Energy:  -286.11668769319886
    Total Energy =                       -286.1166876931991965
  Basis Set: CC-PVTZ
  Basis Set:
  Basis Set: CC-PVTZ
  Basis Set:
  @DF-RHF Final Energy:  -286.11672183004146
    Total Energy =                       -286.1167218300414561
  Basis Set: CC-PVTZ
  Basis Set:
  Charge       = 0
  Multiplicity = 1
  Basis Set: CC-PVTZ
  Basis Set:

    Orbital Energies (a.u.)
    -----------------------

    Doubly Occupied:

       1A    -20.542638     2A    -15.559237     3A    -11.344461
       4A    -11.254829     5A    -11.243654     6A    -11.227633
       7A     -1.415857     8A     -1.232992     9A     -1.014894
      10A     -0.964200    11A     -0.896691    12A     -0.738648
      13A     -0.682026    14A     -0.660549    15A     -0.641579
      16A     -0.604561    17A     -0.584447    18A     -0.575126
      19A     -0.556214    20A     -0.537246    21A     -0.523315
      22A     -0.497014    23A     -0.428493    24A     -0.382949

  @DF-RHF Final Energy:  -286.11672278111382

   => Energetics <=

    Nuclear Repulsion Energy =            252.9457407484280793
    One-Electron Energy =                -889.9064178176195128
    Two-Electron Energy =                 350.8439542880774979
    DFT Exchange-Correlation Energy =       0.0000000000000000
    Empirical Dispersion Energy =           0.0000000000000000
    PCM Polarization Energy =               0.0000000000000000
    EFP Energy =                            0.0000000000000000
    Total Energy =                       -286.1167227811139355
    Molecular point group: c1
  Basis Set: CC-PVTZ
  Basis Set:

  -Total Gradient:
     Atom            X                  Y                   Z
    ------   -----------------  -----------------  -----------------
       1        0.000018535647    -0.000017915660     0.000008115765
       2        0.000714081910    -0.000171364966    -0.007644687715
       3       -0.001100775757    -0.001128087435     0.005248968762
       4        0.002657624679     0.006263643005     0.003001442283
       5        0.000006663096     0.000001828863    -0.000006377156
       6        0.000010712179    -0.000002592624    -0.000008863703
       7        0.000011441142     0.000011883002    -0.000027210624
       8       -0.002318622889    -0.004921353359    -0.000608182250
       9        0.000001523101    -0.000059257532     0.000018341067
      10       -0.000007258522    -0.000000587389     0.000006416299
      11        0.000006981541     0.000000244863     0.000013209787
      12        0.000013715792     0.000001009025     0.000005382887
      13       -0.000006520150     0.000013207198    -0.000000805297
      14       -0.000006709789    -0.000000583116    -0.000006053927
      15       -0.000001391981     0.000009926125     0.000000303823

  **** Optimization is complete! (in 16 steps) ****
    Final optimized geometry and variables:
    Molecular point group: c1

    Geometry (in Angstrom), charge = 0, multiplicity = 1:

    O           -1.551399041199    -0.190673435498    -0.204802710602
    C           -0.564729787747     0.419003747657     0.030901403963
    C           -0.573083968455     1.890383126878     0.343434952677
    N            0.713385549260    -0.197635102186     0.164201119360
    H            0.244161864462     2.401309098406    -0.148951979084
    H           -1.518481710087     2.331970777706     0.068442977724
    H           -0.416035769433     1.994481962280     1.411055528874
    C            1.348123850756    -0.353179706112    -1.139713072559
    C            0.627605611976    -1.482735202847     0.846071996974
    H            2.359321968905    -0.710310489757    -1.001116021507
    H            1.400431068753     0.600736674018    -1.650139959708
    H            0.811519246882    -1.054570899735    -1.774805511866
    H            1.632513045108    -1.841037508653     1.026131921792
    H            0.136629895437    -1.359352105825     1.801651434793
    H            0.082821529521    -2.228639964341     0.275806493944

  Mulliken Charges: (a.u.)
   Center  Symbol    Alpha    Beta     Spin     Total
       1     O     4.17432  4.17432  0.00000 -0.34865
       2     C     2.83877  2.83877  0.00000  0.32246
       3     C     3.13253  3.13253  0.00000 -0.26506
       4     N     3.61831  3.61831  0.00000 -0.23662
       5     H     0.44885  0.44885  0.00000  0.10230
       6     H     0.44055  0.44055  0.00000  0.11889
       7     H     0.44726  0.44726  0.00000  0.10548
       8     C     3.09079  3.09079  0.00000 -0.18158
       9     C     3.09006  3.09006  0.00000 -0.18013
      10     H     0.45065  0.45065  0.00000  0.09870
      11     H     0.45225  0.45225  0.00000  0.09549
      12     H     0.45694  0.45694  0.00000  0.08612
      13     H     0.45289  0.45289  0.00000  0.09422
      14     H     0.45057  0.45057  0.00000  0.09886
      15     H     0.45524  0.45524  0.00000  0.08952

   Total alpha = 24.00000, Total beta = 24.00000, Total charge = -0.00000

*** Psi4 exiting successfully. Buy a developer a beer!
