  ==> Input File <==

--------------------------------------------------------------------------
set {
	reference rhf
	basis 6-31G*
}

set_num_threads( 4 )
memory 2 gb

molecule MOL {
0 1

H	 -3.650283	 0.221984	 0.000000
C	 -2.577024	 0.154109	 0.000000
C	 -1.960329	 -1.089307	 0.000000
C	 -1.811733	 1.307557	 0.000000
H	 -2.554473	 -1.985285	 0.000000
C	 -0.581547	 -1.175855	 0.000000
H	 -2.287118	 2.271701	 0.000000
C	 -0.428719	 1.219221	 0.000000
H	 -0.090826	 -2.129898	 0.000000
C	 0.198341	 -0.021559	 0.000000
H	 0.149947	 2.124040	 0.000000
C	 1.691355	 -0.173192	 0.000000
C	 2.490924	 0.410658	 1.146015
O	 2.243801	 -0.746784	 -0.891723
H	 2.342472	 1.483489	 1.215126
H	 3.537607	 0.204663	 0.974226
H	 2.189024	 -0.027398	 2.091924

	symmetry c1
}
set optking {
	frozen_dihedral = ("
		13 12 10 8
	")
}

ee = optimize('scf')
oeprop('DIPOLE', 'QUADRUPOLE', 'MULLIKEN_CHARGES')
f=open( 'psi4out.xyz', 'w' )
f.write( "17  " )
f.write( str(ee) + "\n" )
f.write( MOL.save_string_xyz() )
f.close()
--------------------------------------------------------------------------

    Molecular point group: c1
  Charge       = 0
  Multiplicity = 1
  Basis Set: 6-31G*
  Basis Set:
  @DF-RHF Final Energy:  -382.46831455701675
    Total Energy =                       -382.4683145570166971
    Molecular point group: c1
  Basis Set: 6-31G*
  Basis Set:
  Basis Set: 6-31G*
  Basis Set:
  @DF-RHF Final Energy:  -382.46787542183608
    Total Energy =                       -382.4678754218365384
  Basis Set: 6-31G*
  Basis Set:
  Basis Set: 6-31G*
  Basis Set:
  @DF-RHF Final Energy:  -382.46919741743017
    Total Energy =                       -382.4691974174302231
  Basis Set: 6-31G*
  Basis Set:
  Basis Set: 6-31G*
  Basis Set:
  @DF-RHF Final Energy:  -382.46939377101961
    Total Energy =                       -382.4693937710188720
  Basis Set: 6-31G*
  Basis Set:
  Basis Set: 6-31G*
  Basis Set:
  @DF-RHF Final Energy:  -382.46941023859137
    Total Energy =                       -382.4694102385914221
  Basis Set: 6-31G*
  Basis Set:
  Basis Set: 6-31G*
  Basis Set:
  @DF-RHF Final Energy:  -382.46942237936719
    Total Energy =                       -382.4694223793668471
  Basis Set: 6-31G*
  Basis Set:
  Charge       = 0
  Multiplicity = 1
  Basis Set: 6-31G*
  Basis Set:

    Orbital Energies (a.u.)
    -----------------------

    Doubly Occupied:

       1A    -20.554806     2A    -11.333115     3A    -11.246710
       4A    -11.245393     5A    -11.242261     6A    -11.241878
       7A    -11.240614     8A    -11.239187     9A    -11.230983
      10A     -1.400237    11A     -1.165618    12A     -1.049892
      13A     -1.025911    14A     -0.998015    15A     -0.859578
      16A     -0.836782    17A     -0.760953    18A     -0.704107
      19A     -0.660557    20A     -0.644621    21A     -0.623607
      22A     -0.619153    23A     -0.599530    24A     -0.589347
      25A     -0.559799    26A     -0.524813    27A     -0.513020
      28A     -0.502886    29A     -0.490983    30A     -0.410182
      31A     -0.343834    32A     -0.341531

  @DF-RHF Final Energy:  -382.46942270928480

   => Energetics <=

    Nuclear Repulsion Energy =            402.9351021118695826
    One-Electron Energy =               -1317.2092474741721162
    Two-Electron Energy =                 531.8047226530176204
    DFT Exchange-Correlation Energy =       0.0000000000000000
    Empirical Dispersion Energy =           0.0000000000000000
    PCM Polarization Energy =               0.0000000000000000
    EFP Energy =                            0.0000000000000000
    Total Energy =                       -382.4694227092849133
    Molecular point group: c1
  Basis Set: 6-31G*
  Basis Set:

  -Total Gradient:
     Atom            X                  Y                   Z
    ------   -----------------  -----------------  -----------------
       1        0.000000918766     0.000004045218     0.000001055553
       2       -0.000009006264    -0.000042642371     0.000032805021
       3       -0.000041696096     0.000017287661     0.000011250052
       4        0.000050952265     0.000026615360    -0.000068277915
       5        0.000001828710    -0.000002201884    -0.000005767284
       6        0.000031591214     0.000023562624    -0.000019055869
       7       -0.000004581819     0.000001831546     0.000004391763
       8       -0.000207355294    -0.000081367106    -0.004312151232
       9        0.000004012462    -0.000004564176     0.000007894818
      10        0.000080454221    -0.001403570359     0.007416203843
      11       -0.000005424059     0.000003497089    -0.000007468807
      12        0.000321717809     0.004732415883    -0.005108162495
      13       -0.000256645934    -0.003284707054     0.002019745387
      14        0.000003287342     0.000012183088     0.000017562408
      15        0.000002251907    -0.000009655117    -0.000002580560
      16        0.000022713686     0.000005449868     0.000020823970
      17        0.000004981083     0.000001819729    -0.000008268651

  **** Optimization is complete! (in 7 steps) ****
    Final optimized geometry and variables:
    Molecular point group: c1

    Geometry (in Angstrom), charge = 0, multiplicity = 1:

    H           -3.642314338153     0.271219433458    -0.064652248113
    C           -2.569980316143     0.193393282235    -0.048926395791
    C           -1.964498368092    -1.054134094475    -0.049384828032
    C           -1.792271799313     1.339159264826    -0.037655586104
    H           -2.566029148086    -1.945059980206    -0.068226030162
    C           -0.584573631478    -1.154661656196    -0.042741502235
    H           -2.257888361854     2.308089910063    -0.054806085256
    C           -0.410649865526     1.238340820706    -0.005626189067
    H           -0.110527354723    -2.118488757457    -0.075085096365
    C            0.200416351011    -0.008601851929     0.004429883853
    H            0.185146100653     2.134103358674     0.002805367812
    C            1.697629419472    -0.151146516611    -0.042905613115
    C            2.495423766941     0.478761739096     1.077068501276
    O            2.218556729449    -0.819976156256    -0.882411807080
    H            2.255796355738     1.529007848261     1.204406457463
    H            3.552648930131     0.364854907750     0.880994476575
    H            2.242263256753    -0.021347660019     2.007572005013

  Mulliken Charges: (a.u.)
   Center  Symbol    Alpha    Beta     Spin     Total
       1     H     0.39627  0.39627  0.00000  0.20746
       2     C     3.09651  3.09651  0.00000 -0.19303
       3     C     3.10093  3.10093  0.00000 -0.20186
       4     C     3.10023  3.10023  0.00000 -0.20046
       5     H     0.39567  0.39567  0.00000  0.20866
       6     C     3.09629  3.09629  0.00000 -0.19257
       7     H     0.39641  0.39641  0.00000  0.20719
       8     C     3.10353  3.10353  0.00000 -0.20707
       9     H     0.38663  0.38663  0.00000  0.22675
      10     C     3.03496  3.03496  0.00000 -0.06992
      11     H     0.39574  0.39574  0.00000  0.20851
      12     C     2.74763  2.74763  0.00000  0.50473
      13     C     3.28682  3.28682  0.00000 -0.57364
      14     O     4.25397  4.25397  0.00000 -0.50794
      15     H     0.40911  0.40911  0.00000  0.18177
      16     H     0.39711  0.39711  0.00000  0.20577
      17     H     0.40218  0.40218  0.00000  0.19564

   Total alpha = 32.00000, Total beta = 32.00000, Total charge = -0.00000
