  ==> Input File <==

--------------------------------------------------------------------------
set {
	reference rhf
	basis cc-pvtz
}

set_num_threads( 4 )
memory 2 gb

molecule MOL {
0 1

H	 -3.412771	 -0.933096	 -0.386883
O	 -3.112535	 -0.152320	 0.042771
C	 -1.774743	 -0.061958	 0.012028
C	 -0.983314	 -1.030559	 -0.592860
C	 -1.193968	 1.043636	 0.610815
H	 -1.441233	 -1.885462	 -1.055329
C	 0.384000	 -0.888658	 -0.595842
H	 -1.822417	 1.778924	 1.071708
C	 0.176694	 1.170815	 0.599177
H	 1.005627	 -1.628935	 -1.059177
C	 0.981121	 0.213562	 0.000000
H	 0.628335	 2.028144	 1.063425
C	 2.447402	 0.371303	 0.000000
O	 3.227427	 -0.521847	 0.000000
H	 2.796538	 1.409525	 0.000000

	symmetry c1
}
set optking {
	frozen_dihedral = ("
		7 11 13 14
	")
}

ee = optimize('scf')
oeprop('DIPOLE', 'QUADRUPOLE', 'MULLIKEN_CHARGES')
f=open( 'psi4out.xyz', 'w' )
f.write( "15  " )
f.write( str(ee) + "\n" )
f.write( MOL.save_string_xyz() )
f.close()
--------------------------------------------------------------------------

    Molecular point group: c1
  Charge       = 0
  Multiplicity = 1
  Basis Set: CC-PVTZ
  Basis Set:
  @DF-RHF Final Energy:  -418.43891844713528
    Total Energy =                       -418.4389184471353929
    Molecular point group: c1
  Basis Set: CC-PVTZ
  Basis Set:
  Basis Set: CC-PVTZ
  Basis Set:
  @DF-RHF Final Energy:  -418.43760233816977
    Total Energy =                       -418.4376023381693130
  Basis Set: CC-PVTZ
  Basis Set:
  Basis Set: CC-PVTZ
  Basis Set:
  @DF-RHF Final Energy:  -418.43928322378065
    Total Energy =                       -418.4392832237806488
  Basis Set: CC-PVTZ
  Basis Set:
  Basis Set: CC-PVTZ
  Basis Set:
  @DF-RHF Final Energy:  -418.43939467614456
    Total Energy =                       -418.4393946761442749
  Basis Set: CC-PVTZ
  Basis Set:
  Basis Set: CC-PVTZ
  Basis Set:
  @DF-RHF Final Energy:  -418.43939666327560
    Total Energy =                       -418.4393966632754882
  Basis Set: CC-PVTZ
  Basis Set:
  Charge       = 0
  Multiplicity = 1
  Basis Set: CC-PVTZ
  Basis Set:

    Orbital Energies (a.u.)
    -----------------------

    Doubly Occupied:

       1A    -20.603306     2A    -20.548692     3A    -11.324166
       4A    -11.320515     5A    -11.257005     6A    -11.254678
       7A    -11.241781     8A    -11.237982     9A    -11.236577
      10A     -1.436240    11A     -1.404360    12A     -1.174926
      13A     -1.044072    14A     -1.042210    15A     -0.891616
      16A     -0.870142    17A     -0.798291    18A     -0.761428
      19A     -0.717235    20A     -0.672145    21A     -0.648763
      22A     -0.631656    23A     -0.613976    24A     -0.610370
      25A     -0.589995    26A     -0.564778    27A     -0.548554
      28A     -0.508751    29A     -0.491793    30A     -0.422710
      31A     -0.361609    32A     -0.330904

  @DF-RHF Final Energy:  -418.43939812162250

   => Energetics <=

    Nuclear Repulsion Energy =            402.0550422468747911
    One-Electron Energy =               -1366.6664223536392910
    Two-Electron Energy =                 546.1719819851416560
    DFT Exchange-Correlation Energy =       0.0000000000000000
    Empirical Dispersion Energy =           0.0000000000000000
    PCM Polarization Energy =               0.0000000000000000
    EFP Energy =                            0.0000000000000000
    Total Energy =                       -418.4393981216228440
    Molecular point group: c1
  Basis Set: CC-PVTZ
  Basis Set:

  -Total Gradient:
     Atom            X                  Y                   Z
    ------   -----------------  -----------------  -----------------
       1       -0.000002855319     0.000005541722    -0.000006679742
       2        0.000003056956    -0.000032008439     0.000015766812
       3       -0.000019517538     0.000124409050    -0.000006587478
       4        0.000084403911    -0.000028238351    -0.000018143057
       5       -0.000062259141    -0.000087832746     0.000046286942
       6       -0.000010344332    -0.000003472172     0.000011928437
       7       -0.000524839330     0.002691112081    -0.004487093323
       8        0.000006446542    -0.000001249838     0.000003821092
       9        0.000073598288    -0.000006992606    -0.000100839708
      10        0.000005404278     0.000006189580     0.000003667007
      11        0.000744346933    -0.004029785119     0.009576616547
      12       -0.000000997559    -0.000008042380     0.000012708218
      13       -0.000526216799     0.001581225139    -0.011488792678
      14        0.000224241489    -0.000202651508     0.006442720990
      15        0.000005531618    -0.000008204416    -0.000005380060

  **** Optimization is complete! (in 6 steps) ****
    Final optimized geometry and variables:
    Molecular point group: c1

    Geometry (in Angstrom), charge = 0, multiplicity = 1:

    H           -3.416554866569    -0.930354728269    -0.386233955033
    O           -3.116038889603    -0.147709126600     0.039964384036
    C           -1.776979305516    -0.062129883133     0.013493507778
    C           -0.986344880812    -1.027977238959    -0.593031254614
    C           -1.194440938641     1.044021298529     0.610327449989
    H           -1.444129265549    -1.874684321119    -1.070606721506
    C            0.383420640961    -0.893659720066    -0.582472332288
    H           -1.822100633484     1.784277677696     1.064580903259
    C            0.175554730160     1.175484900086     0.591920317124
    H            1.002285794755    -1.638647503065    -1.042811763734
    C            0.981385678652     0.198301735138     0.027390472890
    H            0.624943071923     2.045635074042     1.034274216151
    C            2.449006799045     0.375328393526    -0.011501251691
    O            3.235060737403    -0.509928311221    -0.060479008971
    H            2.790304583536     1.413933373516     0.058085813441

  Mulliken Charges: (a.u.)
   Center  Symbol    Alpha    Beta     Spin     Total
       1     H     0.38556  0.38556  0.00000  0.22889
       2     O     4.16710  4.16710  0.00000 -0.33420
       3     C     2.84724  2.84724  0.00000  0.30552
       4     C     3.13008  3.13008  0.00000 -0.26016
       5     C     3.10607  3.10607  0.00000 -0.21214
       6     H     0.43131  0.43131  0.00000  0.13737
       7     C     3.07426  3.07426  0.00000 -0.14852
       8     H     0.41664  0.41664  0.00000  0.16672
       9     C     3.07010  3.07010  0.00000 -0.14021
      10     H     0.40937  0.40937  0.00000  0.18127
      11     C     2.98660  2.98660  0.00000  0.02679
      12     H     0.42196  0.42196  0.00000  0.15607
      13     C     2.91737  2.91737  0.00000  0.16526
      14     O     4.17515  4.17515  0.00000 -0.35029
      15     H     0.46119  0.46119  0.00000  0.07763

   Total alpha = 32.00000, Total beta = 32.00000, Total charge = -0.00000
