                              Psi4 1.0.54 Driver

  ==> Input File <==

--------------------------------------------------------------------------
set {
	reference rhf
	basis cc-pvtz
}

set_num_threads( 4 )
memory 2 gb

molecule MOL {
0 1

O	 0.965652	 -0.102080	 -0.701540
C	 0.029490	 0.077183	 0.000078
C	 -1.232113	 -0.748027	 0.000015
O	 -0.030524	 1.048580	 0.895633
C	 -2.501422	 0.088592	 -0.000052
H	 -1.188777	 -1.400384	 -0.865133
H	 -1.188857	 -1.400312	 0.865225
H	 -2.548170	 0.725504	 -0.873205
H	 -3.371613	 -0.556398	 -0.000040
H	 -2.548215	 0.725571	 0.873047
C	 1.090600	 1.902535	 1.002796
H	 1.972124	 1.341833	 1.276225
H	 0.849068	 2.615764	 1.774024
H	 1.272664	 2.411575	 0.067929

	symmetry c1
}
set optking {
	frozen_dihedral = ("
		4 2 3 6
	")
}

ee,wfn = optimize('scf', return_wfn=True)
oeprop( wfn, 'DIPOLE', 'QUADRUPOLE', 'MULLIKEN_CHARGES')
f=open( 'psi4out.xyz', 'w' )
f.write( "14  " )
f.write( str(ee) + "\n" )
f.write( MOL.save_string_xyz() )
f.close()
--------------------------------------------------------------------------

    Molecular point group: c1
  Charge       = 0
  Multiplicity = 1
  Basis Set: CC-PVTZ
  Basis Set:
  @DF-RHF Final Energy:  -305.98553561630689
    Total Energy =                       -305.9855356163068336
    Molecular point group: c1
  Basis Set: CC-PVTZ
  Basis Set:
  Basis Set: CC-PVTZ
  Basis Set:
  @DF-RHF Final Energy:  -305.98521094397819
    Total Energy =                       -305.9852109439779042
  Basis Set: CC-PVTZ
  Basis Set:
  Basis Set: CC-PVTZ
  Basis Set:
  @DF-RHF Final Energy:  -305.98565925711483
    Total Energy =                       -305.9856592571149463
  Basis Set: CC-PVTZ
  Basis Set:
  Basis Set: CC-PVTZ
  Basis Set:
  @DF-RHF Final Energy:  -305.98585605855351
    Total Energy =                       -305.9858560585531677
  Basis Set: CC-PVTZ
  Basis Set:
  Basis Set: CC-PVTZ
  Basis Set:
  @DF-RHF Final Energy:  -305.98591543101656
    Total Energy =                       -305.9859154310165650
  Basis Set: CC-PVTZ
  Basis Set:
  Charge       = 0
  Multiplicity = 1
  Basis Set: CC-PVTZ
  Basis Set:

    Orbital Energies (a.u.)
    -----------------------

    Doubly Occupied:

       1A    -20.598346     2A    -20.533132     3A    -11.364773
       4A    -11.279628     5A    -11.236903     6A    -11.222409
       7A     -1.473315     8A     -1.365483     9A     -1.068108
      10A     -0.976267    11A     -0.887160    12A     -0.776760
      13A     -0.698016    14A     -0.683692    15A     -0.676860
      16A     -0.621653    17A     -0.588447    18A     -0.568123
      19A     -0.546765    20A     -0.522127    21A     -0.515298
      22A     -0.501216    23A     -0.460581    24A     -0.437465

  @DF-RHF Final Energy:  -305.98591696914559

   => Energetics <=

    Nuclear Repulsion Energy =            248.7829176887098868
    One-Electron Energy =                -910.3326144207326251
    Two-Electron Energy =                 355.5637797628774592
    DFT Exchange-Correlation Energy =       0.0000000000000000
    Empirical Dispersion Energy =           0.0000000000000000
    PCM Polarization Energy =               0.0000000000000000
    EFP Energy =                            0.0000000000000000
    Total Energy =                       -305.9859169691453076
    Molecular point group: c1
  Basis Set: CC-PVTZ
  Basis Set:

  -Total Gradient:
     Atom            X                  Y                   Z
    ------   -----------------  -----------------  -----------------
       1        0.000089964064     0.000026364054     0.000008466265
       2        0.000063678555    -0.000274163624     0.000481478354
       3        0.000189125157    -0.000396373422     0.000347618699
       4       -0.000117276058     0.000256142538    -0.000496730239
       5        0.000034160369    -0.000048959942    -0.000013603117
       6       -0.000273911532     0.000410400446    -0.000401652191
       7       -0.000015549205    -0.000037189641     0.000003243340
       8        0.000007347671     0.000013273270    -0.000009270595
       9       -0.000025026021    -0.000010503094     0.000005717720
      10        0.000006068090     0.000006973800     0.000010886514
      11        0.000006904113     0.000029949484     0.000086175815
      12        0.000018498830    -0.000008897030     0.000000942882
      13        0.000027494923     0.000036800548     0.000008050182
      14       -0.000011478952    -0.000003817385    -0.000031323630

  **** Optimization is complete! (in 6 steps) ****
    Final optimized geometry and variables:
    Molecular point group: c1

    Geometry (in Angstrom), charge = 0, multiplicity = 1:

    O            1.237972387367    -0.645363977808    -0.787996950005
    C            0.276231780463    -0.342329475293    -0.167150771111
    C           -1.034246046766    -1.088181991809    -0.209419763904
    O            0.246872887431     0.686808960818     0.662086572888
    C           -2.265872857977    -0.195834551323    -0.345337315051
    H           -0.967460385614    -1.784832480707    -1.031881702427
    H           -1.097150972652    -1.666168577101     0.707254128427
    H           -2.215309301837     0.404921862400    -1.246018219374
    H           -3.157723298998    -0.807120208222    -0.404019517338
    H           -2.365138642447     0.471142196824     0.499155492866
    C            1.433688041708     1.442226257949     0.800941911579
    H            2.237167790936     0.823892026163     1.172681469056
    H            1.207867426864     2.224596742359     1.507231281890
    H            1.726403396198     1.868088927307    -0.147158907950

  Mulliken Charges: (a.u.)
   Center  Symbol    Alpha    Beta     Spin     Total
       1     O     4.19918  4.19918  0.00000 -0.39836
       2     C     2.80363  2.80363  0.00000  0.39275
       3     C     3.08603  3.08603  0.00000 -0.17206
       4     O     4.14829  4.14829  0.00000 -0.29658
       5     C     3.14674  3.14674  0.00000 -0.29348
       6     H     0.43542  0.43542  0.00000  0.12916
       7     H     0.44743  0.44743  0.00000  0.10513
       8     H     0.45120  0.45120  0.00000  0.09760
       9     H     0.44843  0.44843  0.00000  0.10315
      10     H     0.44580  0.44580  0.00000  0.10840
      11     C     3.03473  3.03473  0.00000 -0.06947
      12     H     0.45333  0.45333  0.00000  0.09334
      13     H     0.44590  0.44590  0.00000  0.10819
      14     H     0.45388  0.45388  0.00000  0.09224

   Total alpha = 24.00000, Total beta = 24.00000, Total charge =  0.00000

*** Psi4 exiting successfully. Buy a developer a beer!
