  ==> Input File <==

--------------------------------------------------------------------------
set {
	reference rhf
	basis 6-31G*
}

set_num_threads( 1 )
memory 2 gb

molecule MOL {
0 1

H	 -3.185215	 -2.496920	 2.238962
C	 -2.863623	 -1.740803	 1.549377
C	 -1.643817	 -1.773515	 1.064605
H	 -3.557745	 -0.969821	 1.272444
O	 -1.180634	 -0.819263	 0.215062
H	 -0.935885	 -2.540919	 1.323679
C	 0.051604	 -1.018856	 -0.387932
C	 1.043764	 0.054862	 -0.001873
H	 -0.017620	 -1.041351	 -1.469781
H	 0.437898	 -1.966374	 -0.042284
F	 2.212596	 -0.199467	 -0.571921
F	 0.652529	 1.252447	 -0.405055
F	 1.230877	 0.110694	 1.300533

	symmetry c1
}
set optking {
	frozen_dihedral = ("
		11 8 7 9,
		6 3 2 1,
		6 3 5 7
	")
}

ee = energy('scf')
oeprop('DIPOLE', 'QUADRUPOLE', 'MULLIKEN_CHARGES')
f=open( 'psi4out.xyz', 'w' )
f.write( "13  " )
f.write( str(ee) + "\n" )
f.write( MOL.save_string_xyz() )
f.close()
--------------------------------------------------------------------------

    Molecular point group: c1

    Geometry (in Angstrom), charge = 0, multiplicity = 1:

       Center              X                  Y                   Z               Mass
    ------------   -----------------  -----------------  -----------------  -----------------
           H         -3.269902706245    -2.069862243380     1.924542041219     1.007825032070
           C         -2.948310706245    -1.313745243380     1.234957041219    12.000000000000
           C         -1.728504706245    -1.346457243380     0.750185041219    12.000000000000
           H         -3.642432706245    -0.542763243380     0.958024041219     1.007825032070
           O         -1.265321706245    -0.392205243380    -0.099357958781    15.994914619560
           H         -1.020572706245    -2.113861243380     1.009259041219     1.007825032070
           C         -0.033083706245    -0.591798243380    -0.702351958781    12.000000000000
           C          0.959076293755     0.481919756620    -0.316292958781    12.000000000000
           H         -0.102307706245    -0.614293243380    -1.784200958781     1.007825032070
           H          0.353210293755    -1.539316243380    -0.356703958781     1.007825032070
           F          2.127908293755     0.227590756620    -0.886340958781    18.998403224000
           F          0.567841293755     1.679504756620    -0.719474958781    18.998403224000
           F          1.146189293755     0.537751756620     0.986113041219    18.998403224000

  Charge       = 0
  Multiplicity = 1
  Basis Set: 6-31G*
  Basis Set:

    Orbital Energies (a.u.)
    -----------------------

    Doubly Occupied:

       1A    -26.344566     2A    -26.342104     3A    -26.337495
       4A    -20.608184     5A    -11.503514     6A    -11.319300
       7A    -11.302889     8A    -11.217995     9A     -1.740270
      10A     -1.639743    11A     -1.635039    12A     -1.438586
      13A     -1.085738    14A     -1.016827    15A     -0.923999
      16A     -0.836445    17A     -0.830220    18A     -0.812890
      19A     -0.800614    20A     -0.722826    21A     -0.710824
      22A     -0.697900    23A     -0.677114    24A     -0.658410
      25A     -0.653295    26A     -0.641292    27A     -0.632449
      28A     -0.586291    29A     -0.560212    30A     -0.526387
      31A     -0.515476    32A     -0.353089

  @DF-RHF Final Energy:  -527.53306476116995

   => Energetics <=

    Nuclear Repulsion Energy =            408.2225091002134718
    One-Electron Energy =               -1540.1672395860978213
    Two-Electron Energy =                 604.4116657247147941
    DFT Exchange-Correlation Energy =       0.0000000000000000
    Empirical Dispersion Energy =           0.0000000000000000
    PCM Polarization Energy =               0.0000000000000000
    EFP Energy =                            0.0000000000000000
    Total Energy =                       -527.5330647611694985

  Mulliken Charges: (a.u.)
   Center  Symbol    Alpha    Beta     Spin     Total
       1     H     0.40686  0.40686  0.00000  0.18627
       2     C     3.23581  3.23581  0.00000 -0.47162
       3     C     2.89671  2.89671  0.00000  0.20659
       4     H     0.40079  0.40079  0.00000  0.19842
       5     O     4.30304  4.30304  0.00000 -0.60609
       6     H     0.40647  0.40647  0.00000  0.18705
       7     C     3.05270  3.05270  0.00000 -0.10540
       8     C     2.45463  2.45463  0.00000  1.09075
       9     H     0.39611  0.39611  0.00000  0.20779
      10     H     0.40984  0.40984  0.00000  0.18032
      11     F     4.68277  4.68277  0.00000 -0.36555
      12     F     4.67769  4.67769  0.00000 -0.35538
      13     F     4.67657  4.67657  0.00000 -0.35315

   Total alpha = 32.00000, Total beta = 32.00000, Total charge =  0.00000
