  ==> Input File <==

--------------------------------------------------------------------------
set {
	reference rhf
	basis cc-pvtz
}

set_num_threads( 4 )
memory 2 gb

molecule MOL {
0 1

H	 -2.498963	 -0.741158	 -0.729149
O	 -2.346257	 -0.289210	 0.080372
C	 -1.183935	 0.486039	 -0.009831
C	 0.062853	 -0.375310	 0.027457
H	 -1.178881	 1.094526	 -0.908634
H	 -1.184406	 1.155156	 0.838676
O	 1.172093	 0.457955	 -0.054438
H	 0.052476	 -1.081302	 -0.804627
H	 0.076323	 -0.955658	 0.947560
C	 1.911908	 0.554612	 1.117975
H	 2.304843	 -0.413432	 1.420908
H	 2.739521	 1.223590	 0.933013
H	 1.313520	 0.953693	 1.933564

	symmetry c1
}
set optking {
	frozen_dihedral = ("
		10 7 4 8
	")
}

ee = optimize('scf')
oeprop('DIPOLE', 'QUADRUPOLE', 'MULLIKEN_CHARGES')
f=open( 'psi4out.xyz', 'w' )
f.write( "13  " )
f.write( str(ee) + "\n" )
f.write( MOL.save_string_xyz() )
f.close()
--------------------------------------------------------------------------

    Molecular point group: c1
  Charge       = 0
  Multiplicity = 1
  Basis Set: CC-PVTZ
  Basis Set:
  @DF-RHF Final Energy:  -268.05848494291297
    Total Energy =                       -268.0584849429127985
    Molecular point group: c1
  Basis Set: CC-PVTZ
  Basis Set:
  Basis Set: CC-PVTZ
  Basis Set:
  @DF-RHF Final Energy:  -268.05897356420627
    Total Energy =                       -268.0589735642063260
  Basis Set: CC-PVTZ
  Basis Set:
  Basis Set: CC-PVTZ
  Basis Set:
  @DF-RHF Final Energy:  -268.05906757432865
    Total Energy =                       -268.0590675743284237
  Basis Set: CC-PVTZ
  Basis Set:
  Basis Set: CC-PVTZ
  Basis Set:
  @DF-RHF Final Energy:  -268.05906932335984
    Total Energy =                       -268.0590693233597221
  Basis Set: CC-PVTZ
  Basis Set:
  Charge       = 0
  Multiplicity = 1
  Basis Set: CC-PVTZ
  Basis Set:

    Orbital Energies (a.u.)
    -----------------------

    Doubly Occupied:

       1A    -20.553498     2A    -20.553075     3A    -11.268932
       4A    -11.267837     5A    -11.267614     6A     -1.387442
       7A     -1.369198     8A     -1.016780     9A     -0.920835
      10A     -0.839868    11A     -0.710981    12A     -0.675596
      13A     -0.658564    14A     -0.638954    15A     -0.599739
      16A     -0.577330    17A     -0.531431    18A     -0.504962
      19A     -0.477372    20A     -0.458654    21A     -0.408898

  @DF-RHF Final Energy:  -268.05906945840752

   => Energetics <=

    Nuclear Repulsion Energy =            191.1851163651140553
    One-Electron Energy =                -745.1132478602694391
    Two-Electron Energy =                 285.8690620367477209
    DFT Exchange-Correlation Energy =       0.0000000000000000
    Empirical Dispersion Energy =           0.0000000000000000
    PCM Polarization Energy =               0.0000000000000000
    EFP Energy =                            0.0000000000000000
    Total Energy =                       -268.0590694584076914
    Molecular point group: c1
  Basis Set: CC-PVTZ
  Basis Set:

  -Total Gradient:
     Atom            X                  Y                   Z
    ------   -----------------  -----------------  -----------------
       1       -0.000007448898     0.000002163495     0.000001616616
       2        0.000018499065     0.000009207818    -0.000014009713
       3       -0.000014036110    -0.000012681443     0.000018577369
       4       -0.000203599854     0.000263523240    -0.000399813469
       5       -0.000002866424    -0.000003603108     0.000000326221
       6        0.000000912557     0.000004771929    -0.000004535422
       7       -0.000257422716     0.000401789373     0.000219730282
       8        0.000248966687    -0.000329691099     0.000277669417
       9       -0.000000189530    -0.000000536486     0.000007627801
      10        0.000213717099    -0.000333195895    -0.000116162305
      11        0.000002733945     0.000000605663     0.000005146495
      12       -0.000003152327    -0.000001584585     0.000001113147
      13        0.000003886500    -0.000000768903     0.000002713559

  **** Optimization is complete! (in 5 steps) ****
    Final optimized geometry and variables:
    Molecular point group: c1

    Geometry (in Angstrom), charge = 0, multiplicity = 1:

    H           -2.393628565043    -0.908102084648    -0.985668566021
    O           -2.264284921218    -0.447138625446    -0.176988825828
    C           -1.104765092920     0.334834257618    -0.246386698504
    C            0.150680164688    -0.518455443406    -0.189498818418
    H           -1.086943829548     0.943772305742    -1.144816921063
    H           -1.130255878807     1.006534157501     0.601148697635
    O            1.288954134626     0.285627787846    -0.273773477639
    H            0.162266557395    -1.215151611607    -1.022857261555
    H            0.145725354432    -1.107787400769     0.722060329798
    C            2.045934818846     0.396693095954     0.889055942916
    H            2.459357631097    -0.563123990532     1.187467100033
    H            2.860124076458     1.076813267669     0.684927688385
    H            1.462092421480     0.793328823222     1.715841172119

  Mulliken Charges: (a.u.)
   Center  Symbol    Alpha    Beta     Spin     Total
       1     H     0.39326  0.39326  0.00000  0.21348
       2     O     4.20307  4.20307  0.00000 -0.40613
       3     C     2.96901  2.96901  0.00000  0.06198
       4     C     2.98073  2.98073  0.00000  0.03854
       5     H     0.46658  0.46658  0.00000  0.06684
       6     H     0.45840  0.45840  0.00000  0.08320
       7     O     4.18272  4.18272  0.00000 -0.36544
       8     H     0.46158  0.46158  0.00000  0.07684
       9     H     0.46744  0.46744  0.00000  0.06512
      10     C     3.02965  3.02965  0.00000 -0.05931
      11     H     0.46756  0.46756  0.00000  0.06487
      12     H     0.44873  0.44873  0.00000  0.10254
      13     H     0.47126  0.47126  0.00000  0.05748

   Total alpha = 21.00000, Total beta = 21.00000, Total charge =  0.00000
