  ==> Input File <==

--------------------------------------------------------------------------
set {
	reference rhf
	basis cc-pvtz
}

set_num_threads( 4 )
memory 2 gb

molecule MOL {
0 1

O	 -1.870514	 -2.152070	 0.708083
C	 -0.836078	 -1.681968	 0.375223
C	 0.477045	 -2.421277	 0.320530
O	 -0.695554	 -0.422406	 0.000602
C	 0.368919	 -3.877732	 0.742452
H	 1.176712	 -1.879459	 0.947307
H	 0.854588	 -2.330425	 -0.691964
H	 0.007686	 -3.963094	 1.758544
H	 1.339451	 -4.355108	 0.683061
H	 -0.317378	 -4.418180	 0.104377
C	 -1.852370	 0.402254	 0.000718
C	 -3.063338	 -0.501097	 -0.000437
H	 -1.831732	 1.039442	 -0.872158
H	 -1.832493	 1.038301	 0.874430
H	 -3.071944	 -1.133732	 -0.879113
H	 -3.966302	 0.097976	 -0.000483
H	 -3.072764	 -1.134834	 0.877435

	symmetry c1
}
set optking {
	frozen_dihedral = ("
		2 4 11 13
	")
}

ee = optimize('scf')
oeprop('DIPOLE', 'QUADRUPOLE', 'MULLIKEN_CHARGES')
f=open( 'psi4out.xyz', 'w' )
f.write( "17  " )
f.write( str(ee) + "\n" )
f.write( MOL.save_string_xyz() )
f.close()
--------------------------------------------------------------------------

    Molecular point group: c1
  Charge       = 0
  Multiplicity = 1
  Basis Set: CC-PVTZ
  Basis Set:
  @DF-RHF Final Energy:  -344.97167305114590
    Total Energy =                       -344.9716730511461265
    Molecular point group: c1
  Basis Set: CC-PVTZ
  Basis Set:
  Basis Set: CC-PVTZ
  Basis Set:
  @DF-RHF Final Energy:  -345.01433893562819
    Total Energy =                       -345.0143389356281887
  Basis Set: CC-PVTZ
  Basis Set:
  Basis Set: CC-PVTZ
  Basis Set:
  @DF-RHF Final Energy:  -345.02410022007950
    Total Energy =                       -345.0241002200796743
  Basis Set: CC-PVTZ
  Basis Set:
  Basis Set: CC-PVTZ
  Basis Set:
  @DF-RHF Final Energy:  -345.02437034494324
    Total Energy =                       -345.0243703449430086
  Basis Set: CC-PVTZ
  Basis Set:
  @DF-RHF Final Energy:  -345.02717322449621
    Total Energy =                       -345.0271732244960958
  @DF-RHF Final Energy:  -345.02920488108583
    Total Energy =                       -345.0292048810860024
  Basis Set: CC-PVTZ
  Basis Set:
  @DF-RHF Final Energy:  -345.02930168824861
    Total Energy =                       -345.0293016882486654
  Basis Set: CC-PVTZ
  Basis Set:
  Basis Set: CC-PVTZ
  Basis Set:
  @DF-RHF Final Energy:  -345.02932127122068
    Total Energy =                       -345.0293212712203967
  Basis Set: CC-PVTZ
  Basis Set:
  Basis Set: CC-PVTZ
  Basis Set:
  @DF-RHF Final Energy:  -345.02932395732699
    Total Energy =                       -345.0293239573262554
  Basis Set: CC-PVTZ
  Basis Set:
  Charge       = 0
  Multiplicity = 1
  Basis Set: CC-PVTZ
  Basis Set:

    Orbital Energies (a.u.)
    -----------------------

    Doubly Occupied:

       1A    -20.589781     2A    -20.529160     3A    -11.364621
       4A    -11.289034     5A    -11.233241     6A    -11.213677
       7A    -11.211918     8A     -1.463112     9A     -1.364262
      10A     -1.068264    11A     -1.028585    12A     -0.919865
      13A     -0.858649    14A     -0.743349    15A     -0.695481
      16A     -0.683251    17A     -0.671798    18A     -0.629888
      19A     -0.604254    20A     -0.568307    21A     -0.545605
      22A     -0.529359    23A     -0.523012    24A     -0.517548
      25A     -0.494546    26A     -0.491376    27A     -0.447623
      28A     -0.430799

  @DF-RHF Final Energy:  -345.02932477280842

   => Energetics <=

    Nuclear Repulsion Energy =            319.1590621636991045
    One-Electron Energy =               -1102.9560448649247064
    Two-Electron Energy =                 438.7676579284172362
    DFT Exchange-Correlation Energy =       0.0000000000000000
    Empirical Dispersion Energy =           0.0000000000000000
    PCM Polarization Energy =               0.0000000000000000
    EFP Energy =                            0.0000000000000000
    Total Energy =                       -345.0293247728083657
    Molecular point group: c1
  Basis Set: CC-PVTZ
  Basis Set:

  -Total Gradient:
     Atom            X                  Y                   Z
    ------   -----------------  -----------------  -----------------
       1        0.000018188667    -0.000036449929     0.000028689460
       2       -0.000442180422    -0.001080653509    -0.004090519321
       3       -0.000026015397    -0.000003615496    -0.000030308228
       4        0.000379394702     0.001163576664     0.005862067581
       5       -0.000007678215     0.000006226655     0.000017019531
       6       -0.000010177432     0.000007182046     0.000016546768
       7        0.000016303792     0.000012777880     0.000002822201
       8       -0.000002939311     0.000001740026    -0.000004956633
       9       -0.000001761360     0.000004247756    -0.000007010862
      10        0.000000263667    -0.000007077711    -0.000001289400
      11        0.002128988363     0.002849920273     0.000684056393
      12       -0.000002879444    -0.000027602421     0.000001862798
      13       -0.002031069957    -0.002909809830    -0.002469063893
      14        0.000016650284    -0.000015963223     0.000001365442
      15       -0.000015068082     0.000012949536     0.000005583182
      16       -0.000002434728     0.000014433378    -0.000011201702
      17       -0.000017585126     0.000008117906    -0.000005663315

  **** Optimization is complete! (in 10 steps) ****
    Final optimized geometry and variables:
    Molecular point group: c1

    Geometry (in Angstrom), charge = 0, multiplicity = 1:

    O           -0.691633007357    -0.806447544772     0.567708524991
    C            0.256700760729    -0.244249019385     0.138511687424
    C            1.604760057859    -0.889517188246    -0.081412359181
    O            0.301525595619     1.032126440035    -0.195558989639
    C            1.657372176463    -2.345100122680     0.353465048233
    H            2.338479478757    -0.291995089192     0.447485180746
    H            1.841467118081    -0.784671184875    -1.134687617761
    H            1.437198687974    -2.445027637816     1.407985305849
    H            2.644442019877    -2.752281776630     0.170376668235
    H            0.935819993521    -2.940676871593    -0.189398639791
    C           -0.815534025844     1.915750708263    -0.297350038487
    C           -2.197538623295     1.312431590231    -0.480972724629
    H           -0.591942931434     2.503619365119    -1.175618287310
    H           -0.792149014678     2.559180509233     0.571434729398
    H           -2.219598108555     0.615974697544    -1.308882844156
    H           -2.868562302684     2.132759938317    -0.715007919073
    H           -2.555869016378     0.806282031504     0.398866342276

  Mulliken Charges: (a.u.)
   Center  Symbol    Alpha    Beta     Spin     Total
       1     O     4.19806  4.19806  0.00000 -0.39612
       2     C     2.80464  2.80464  0.00000  0.39072
       3     C     3.09208  3.09208  0.00000 -0.18416
       4     O     4.15551  4.15551  0.00000 -0.31103
       5     C     3.14003  3.14003  0.00000 -0.28006
       6     H     0.44096  0.44096  0.00000  0.11808
       7     H     0.44368  0.44368  0.00000  0.11264
       8     H     0.44899  0.44899  0.00000  0.10202
       9     H     0.45095  0.45095  0.00000  0.09810
      10     H     0.44866  0.44866  0.00000  0.10268
      11     C     2.98221  2.98221  0.00000  0.03558
      12     C     3.15213  3.15213  0.00000 -0.30425
      13     H     0.45103  0.45103  0.00000  0.09795
      14     H     0.45417  0.45417  0.00000  0.09166
      15     H     0.44941  0.44941  0.00000  0.10117
      16     H     0.45201  0.45201  0.00000  0.09598
      17     H     0.43549  0.43549  0.00000  0.12903

   Total alpha = 28.00000, Total beta = 28.00000, Total charge = -0.00000
