                              Psi4 1.0.54 Driver

  ==> Input File <==

--------------------------------------------------------------------------
set {
	reference rhf
	basis cc-pvtz
}

set_num_threads( 4 )
memory 2 gb

molecule MOL {
0 1

H	 2.637202	 0.388489	 0.470481
O	 2.063695	 -0.083403	 -0.105237
C	 0.742924	 0.005675	 0.350750
H	 0.731380	 0.039219	 1.440080
C	 -0.064076	 -1.193495	 -0.124425
C	 -0.047832	 1.190568	 -0.194462
H	 0.194729	 -1.376165	 -1.161308
H	 0.163013	 -2.094508	 0.429933
C	 -1.533112	 -0.752002	 0.006102
H	 0.148003	 1.266545	 -1.259275
H	 0.226235	 2.136493	 0.259722
C	 -1.506634	 0.799189	 0.067162
H	 -2.124360	 -1.110499	 -0.826089
H	 -1.983103	 -1.158030	 0.903403
H	 -2.183808	 1.252169	 -0.644677
H	 -1.813926	 1.138698	 1.049457

	symmetry c1
}
set optking {
	frozen_dihedral = ("
		1 2 3 6
	")
}

ee,wfn = optimize('scf', return_wfn=True)
oeprop( wfn, 'DIPOLE', 'QUADRUPOLE', 'MULLIKEN_CHARGES')
f=open( 'psi4out.xyz', 'w' )
f.write( "16  " )
f.write( str(ee) + "\n" )
f.write( MOL.save_string_xyz() )
f.close()
--------------------------------------------------------------------------

    Molecular point group: c1
  Charge       = 0
  Multiplicity = 1
  Basis Set: CC-PVTZ
  Basis Set:
  @DF-RHF Final Energy:  -270.11634543476691
    Total Energy =                       -270.1163454347667425
    Molecular point group: c1
  Basis Set: CC-PVTZ
  Basis Set:
  Basis Set: CC-PVTZ
  Basis Set:
  @DF-RHF Final Energy:  -270.11637779548346
    Total Energy =                       -270.1163777954835723
  Basis Set: CC-PVTZ
  Basis Set:
  Basis Set: CC-PVTZ
  Basis Set:
  @DF-RHF Final Energy:  -270.11638116348104
    Total Energy =                       -270.1163811634808098
  Basis Set: CC-PVTZ
  Basis Set:
  Charge       = 0
  Multiplicity = 1
  Basis Set: CC-PVTZ
  Basis Set:

    Orbital Energies (a.u.)
    -----------------------

    Doubly Occupied:

       1A    -20.545682     2A    -11.267869     3A    -11.213454
       4A    -11.212358     5A    -11.207406     6A    -11.206357
       7A     -1.365411     8A     -1.113978     9A     -0.964964
      10A     -0.949180    11A     -0.785491    12A     -0.776882
      13A     -0.714363    14A     -0.654921    15A     -0.620676
      16A     -0.582894    17A     -0.560739    18A     -0.526123
      19A     -0.516736    20A     -0.479976    21A     -0.469710
      22A     -0.456536    23A     -0.451933    24A     -0.416492

  @DF-RHF Final Energy:  -270.11638152052677

   => Energetics <=

    Nuclear Repulsion Energy =            255.4586016335476302
    One-Electron Energy =                -873.0297063143718788
    Two-Electron Energy =                 347.4547231602974762
    DFT Exchange-Correlation Energy =       0.0000000000000000
    Empirical Dispersion Energy =           0.0000000000000000
    PCM Polarization Energy =               0.0000000000000000
    EFP Energy =                            0.0000000000000000
    Total Energy =                       -270.1163815205267156
    Molecular point group: c1
  Basis Set: CC-PVTZ
  Basis Set:

  -Total Gradient:
     Atom            X                  Y                   Z
    ------   -----------------  -----------------  -----------------
       1        0.000186953676    -0.001153838799     0.000729589823
       2       -0.000368662352     0.001211978621    -0.001188697665
       3        0.000479851348     0.000440301871     0.001155054385
       4        0.000008767340    -0.000010712328    -0.000014422998
       5       -0.000036332061     0.000018965972     0.000004687392
       6       -0.000273630313    -0.000500787607    -0.000712217159
       7        0.000007094698     0.000001455586    -0.000011706938
       8        0.000002258019    -0.000004945406    -0.000004538330
       9        0.000027984368     0.000008615074    -0.000037965510
      10        0.000019381621    -0.000012087075     0.000017688476
      11        0.000003364615    -0.000009044535     0.000001908912
      12       -0.000036008492     0.000018906275     0.000044384659
      13       -0.000009039571    -0.000007842803     0.000015009634
      14        0.000007678325     0.000009651818     0.000016138808
      15        0.000004337379    -0.000004981713    -0.000009392448
      16       -0.000023998592    -0.000005634949    -0.000005521042

  **** Optimization is complete! (in 4 steps) ****
    Final optimized geometry and variables:
    Molecular point group: c1

    Geometry (in Angstrom), charge = 0, multiplicity = 1:

    H            2.641101680724     0.408898987285     0.445187479348
    O            2.062611281024    -0.066378756089    -0.120937349365
    C            0.744622090658     0.008434878554     0.350788383648
    H            0.742658588334     0.039756736982     1.439182503845
    C           -0.063421313763    -1.192997705687    -0.122038556853
    C           -0.051986581086     1.190582432440    -0.192265859089
    H            0.199337180271    -1.377980237595    -1.157607568598
    H            0.164358163915    -2.092741665551     0.434488239031
    C           -1.533446742551    -0.754696430707     0.002129166932
    H            0.145613422469     1.265257778393    -1.256495774783
    H            0.221700130570     2.137138772027     0.259719623536
    C           -1.509277195510     0.796296408021     0.069001405351
    H           -2.119671522260    -1.110532731745    -0.834772419755
    H           -1.988060985091    -1.164965538812     0.895268244205
    H           -2.188573853779     1.250452694103    -0.640111494020
    H           -1.816353607696     1.131196021652     1.053156772146

  Mulliken Charges: (a.u.)
   Center  Symbol    Alpha    Beta     Spin     Total
       1     H     0.39415  0.39415  0.00000  0.21171
       2     O     4.20168  4.20168  0.00000 -0.40337
       3     C     2.92223  2.92223  0.00000  0.15555
       4     H     0.46833  0.46833  0.00000  0.06335
       5     C     3.10186  3.10186  0.00000 -0.20372
       6     C     3.09662  3.09662  0.00000 -0.19323
       7     H     0.45123  0.45123  0.00000  0.09753
       8     H     0.44528  0.44528  0.00000  0.10944
       9     C     3.10966  3.10966  0.00000 -0.21933
      10     H     0.45373  0.45373  0.00000  0.09254
      11     H     0.45108  0.45108  0.00000  0.09785
      12     C     3.11503  3.11503  0.00000 -0.23005
      13     H     0.44560  0.44560  0.00000  0.10879
      14     H     0.44900  0.44900  0.00000  0.10199
      15     H     0.44355  0.44355  0.00000  0.11290
      16     H     0.45097  0.45097  0.00000  0.09805

   Total alpha = 24.00000, Total beta = 24.00000, Total charge =  0.00000

*** Psi4 exiting successfully. Buy a developer a beer!
