                              Psi4 1.0.54 Driver

  ==> Input File <==

--------------------------------------------------------------------------
set {
	reference rhf
	basis cc-pvtz
}

set_num_threads( 4 )
memory 2 gb

molecule MOL {
0 1

O	 -2.440701	 -0.934798	 -0.415053
C	 -1.922978	 0.063265	 -0.045005
C	 -2.632749	 1.372204	 0.158357
O	 -0.637375	 0.157174	 0.243149
H	 -2.187724	 2.129143	 -0.474664
H	 -3.677681	 1.257276	 -0.079438
H	 -2.516788	 1.693160	 1.185542
C	 0.162530	 -1.009518	 0.097799
C	 1.587210	 -0.664190	 0.477086
H	 0.096803	 -1.356267	 -0.924704
H	 -0.233803	 -1.785900	 0.736810
C	 1.845540	 -0.635706	 1.981153
H	 1.807402	 0.311226	 0.051862
H	 2.259193	 -1.370996	 -0.000093
C	 3.282322	 -0.256619	 2.324033
H	 1.164547	 0.072136	 2.446242
H	 1.616302	 -1.607111	 2.403842
H	 3.436946	 -0.240014	 3.396508
H	 3.532637	 0.726371	 1.938722
H	 3.985548	 -0.965565	 1.899904

	symmetry c1
}
set optking {
	frozen_dihedral = ("
		12 9 8 10
	")
}

ee,wfn = optimize('scf', return_wfn=True)
oeprop( wfn, 'DIPOLE', 'QUADRUPOLE', 'MULLIKEN_CHARGES')
f=open( 'psi4out.xyz', 'w' )
f.write( "20  " )
f.write( str(ee) + "\n" )
f.write( MOL.save_string_xyz() )
f.close()
--------------------------------------------------------------------------

    Molecular point group: c1
  Charge       = 0
  Multiplicity = 1
  Basis Set: CC-PVTZ
  Basis Set:
  @DF-RHF Final Energy:  -384.08636685634883
    Total Energy =                       -384.0863668563484907
    Molecular point group: c1
  Basis Set: CC-PVTZ
  Basis Set:
  Basis Set: CC-PVTZ
  Basis Set:
  @DF-RHF Final Energy:  -384.08658430416341
    Total Energy =                       -384.0865843041634662
  Basis Set: CC-PVTZ
  Basis Set:
  Basis Set: CC-PVTZ
  Basis Set:
  @DF-RHF Final Energy:  -384.08577459610882
    Total Energy =                       -384.0857745961084220
  Basis Set: CC-PVTZ
  Basis Set:
  Basis Set: CC-PVTZ
  Basis Set:
  @DF-RHF Final Energy:  -384.08663643160315
    Total Energy =                       -384.0866364316029831
  Basis Set: CC-PVTZ
  Basis Set:
  Basis Set: CC-PVTZ
  Basis Set:
  @DF-RHF Final Energy:  -384.08664216451444
    Total Energy =                       -384.0866421645148421
  Basis Set: CC-PVTZ
  Basis Set:
  Charge       = 0
  Multiplicity = 1
  Basis Set: CC-PVTZ
  Basis Set:

    Orbital Energies (a.u.)
    -----------------------

    Doubly Occupied:

       1A    -20.594761     2A    -20.532727     3A    -11.366678
       4A    -11.279811     5A    -11.231681     6A    -11.223179
       7A    -11.219904     8A    -11.211962     9A     -1.471215
      10A     -1.365292    11A     -1.087278    12A     -1.029620
      13A     -0.982010    14A     -0.881679    15A     -0.809975
      16A     -0.781096    17A     -0.692594    18A     -0.684847
      19A     -0.670763    20A     -0.631849    21A     -0.603290
      22A     -0.593964    23A     -0.572774    24A     -0.553036
      25A     -0.545562    26A     -0.531084    27A     -0.513889
      28A     -0.482853    29A     -0.477726    30A     -0.475940
      31A     -0.450298    32A     -0.441842

  @DF-RHF Final Energy:  -384.08664307940563

   => Energetics <=

    Nuclear Repulsion Energy =            384.4800614301161090
    One-Electron Energy =               -1285.1510475557006430
    Two-Electron Energy =                 516.5843430461795833
    DFT Exchange-Correlation Energy =       0.0000000000000000
    Empirical Dispersion Energy =           0.0000000000000000
    PCM Polarization Energy =               0.0000000000000000
    EFP Energy =                            0.0000000000000000
    Total Energy =                       -384.0866430794048938
    Molecular point group: c1
  Basis Set: CC-PVTZ
  Basis Set:

  -Total Gradient:
     Atom            X                  Y                   Z
    ------   -----------------  -----------------  -----------------
       1       -0.000034332681    -0.000097219098    -0.000028198474
       2        0.000083988454     0.000055898642     0.000000214326
       3        0.000045032000     0.000011168351     0.000039192527
       4       -0.000142965323     0.000049183918     0.000001772467
       5       -0.000003595746     0.000017454019    -0.000001620376
       6        0.000013115591    -0.000029873955    -0.000008285140
       7        0.000001034045     0.000028485476    -0.000001542335
       8       -0.000259819382     0.003063383751    -0.001467213334
       9       -0.000692691363     0.002582777387     0.000320584789
      10        0.000417734619    -0.003243576862     0.001149254437
      11        0.000001414559     0.000029494972     0.000001064502
      12        0.000559744226    -0.002480129982    -0.000019150908
      13       -0.000004155617    -0.000004008919     0.000001721113
      14        0.000007999575    -0.000007505533    -0.000002975690
      15        0.000002216498     0.000030565428     0.000015796601
      16       -0.000006849255     0.000006223998     0.000009323885
      17       -0.000005176409    -0.000022901931     0.000002073776
      18       -0.000001335610     0.000009363402     0.000000002825
      19        0.000015788135     0.000018830813    -0.000010593933
      20        0.000002853678    -0.000017613877    -0.000001421060

  **** Optimization is complete! (in 6 steps) ****
    Final optimized geometry and variables:
    Molecular point group: c1

    Geometry (in Angstrom), charge = 0, multiplicity = 1:

    O           -2.352874786308    -0.687005872103    -0.968003200901
    C           -1.814170350694     0.313068433498    -0.635291164406
    C           -2.501735208314     1.636104282442    -0.449810459790
    O           -0.520570692127     0.397278442611    -0.381771397363
    H           -2.059462275195     2.370834380558    -1.110216273844
    H           -3.552818785205     1.529793114097    -0.663270099891
    H           -2.360287057908     1.980333486007     0.566569746154
    C            0.260324925378    -0.782023523134    -0.517247050517
    C            1.692007181459    -0.458211316825    -0.136552663240
    H            0.191801061970    -1.150668864534    -1.530853315734
    H           -0.150946034329    -1.549612181577     0.124830724354
    C            1.934019764786    -0.402299784646     1.369550055281
    H            1.976298973128     0.479177413712    -0.602852221464
    H            2.328708762038    -1.225978675755    -0.567293928707
    C            3.373784079108    -0.048195241168     1.724800239973
    H            1.262351062413     0.323739603108     1.816489356696
    H            1.680530714438    -1.365284221945     1.803513071354
    H            3.517952769031    -0.026358934069     2.798607236057
    H            3.644215046075     0.927289781781     1.334772405572
    H            4.068873834732    -0.772315086800     1.312507157132

  Mulliken Charges: (a.u.)
   Center  Symbol    Alpha    Beta     Spin     Total
       1     O     4.19709  4.19709  0.00000 -0.39418
       2     C     2.80934  2.80934  0.00000  0.38132
       3     C     3.13805  3.13805  0.00000 -0.27611
       4     O     4.15378  4.15378  0.00000 -0.30756
       5     H     0.44570  0.44570  0.00000  0.10861
       6     H     0.43800  0.43800  0.00000  0.12400
       7     H     0.44610  0.44610  0.00000  0.10781
       8     C     2.98902  2.98902  0.00000  0.02197
       9     C     3.08419  3.08419  0.00000 -0.16838
      10     H     0.44544  0.44544  0.00000  0.10912
      11     H     0.45388  0.45388  0.00000  0.09225
      12     C     3.08597  3.08597  0.00000 -0.17195
      13     H     0.45106  0.45106  0.00000  0.09788
      14     H     0.45161  0.45161  0.00000  0.09677
      15     C     3.15036  3.15036  0.00000 -0.30073
      16     H     0.45011  0.45011  0.00000  0.09978
      17     H     0.45372  0.45372  0.00000  0.09256
      18     H     0.44731  0.44731  0.00000  0.10539
      19     H     0.45398  0.45398  0.00000  0.09203
      20     H     0.45529  0.45529  0.00000  0.08942

   Total alpha = 32.00000, Total beta = 32.00000, Total charge = -0.00000

*** Psi4 exiting successfully. Buy a developer a beer!
