  ==> Input File <==

--------------------------------------------------------------------------
set {
	reference rhf
	basis cc-pvtz
}

set_num_threads( 4 )
memory 2 gb

molecule MOL {
0 1

H	 2.828711	 -0.346904	 0.001083
C	 1.876752	 0.015931	 -0.363450
C	 0.776285	 -0.474665	 0.563092
H	 1.728113	 -0.357244	 -1.367440
H	 1.906171	 1.096574	 -0.386153
N	 -0.540022	 0.017605	 0.071630
H	 0.707111	 -1.548969	 0.573035
H	 0.886169	 -0.084184	 1.560432
O	 -1.247196	 0.552011	 0.858084
O	 -0.803153	 -0.183823	 -1.066168

	symmetry c1
}
set optking {
	frozen_dihedral = ("
		9 6 3 2
	")
}

ee = optimize('scf')
oeprop('DIPOLE', 'QUADRUPOLE', 'MULLIKEN_CHARGES')
f=open( 'psi4out.xyz', 'w' )
f.write( "10  " )
f.write( str(ee) + "\n" )
f.write( MOL.save_string_xyz() )
f.close()
--------------------------------------------------------------------------

    Molecular point group: c1
  Charge       = 0
  Multiplicity = 1
  Basis Set: CC-PVTZ
  Basis Set:
  @DF-RHF Final Energy:  -282.81277477500231
    Total Energy =                       -282.8127747750024810
    Molecular point group: c1
  Basis Set: CC-PVTZ
  Basis Set:
  Basis Set: CC-PVTZ
  Basis Set:
  @DF-RHF Final Energy:  -282.81224384985359
    Total Energy =                       -282.8122438498536440
  Basis Set: CC-PVTZ
  Basis Set:
  Basis Set: CC-PVTZ
  Basis Set:
  @DF-RHF Final Energy:  -282.80957056183337
    Total Energy =                       -282.8095705618334819
  Basis Set: CC-PVTZ
  Basis Set:
  Basis Set: CC-PVTZ
  Basis Set:
  @DF-RHF Final Energy:  -282.81306032306861
    Total Energy =                       -282.8130603230686688
  Basis Set: CC-PVTZ
  Basis Set:
  Basis Set: CC-PVTZ
  Basis Set:
  @DF-RHF Final Energy:  -282.81313175284288
    Total Energy =                       -282.8131317528427644
  Basis Set: CC-PVTZ
  Basis Set:
  Basis Set: CC-PVTZ
  Basis Set:
  @DF-RHF Final Energy:  -282.81314160380964
    Total Energy =                       -282.8131416038095267
  Basis Set: CC-PVTZ
  Basis Set:
  Charge       = 0
  Multiplicity = 1
  Basis Set: CC-PVTZ
  Basis Set:

    Orbital Energies (a.u.)
    -----------------------

    Doubly Occupied:

       1A    -20.593778     2A    -20.590745     3A    -15.838974
       4A    -11.302423     5A    -11.247271     6A     -1.638213
       7A     -1.422494     8A     -1.125114     9A     -0.966966
      10A     -0.837735    11A     -0.764666    12A     -0.743714
      13A     -0.731185    14A     -0.652513    15A     -0.591297
      16A     -0.563012    17A     -0.542476    18A     -0.489585
      19A     -0.479425    20A     -0.455763

  @DF-RHF Final Energy:  -282.81314206273998

   => Energetics <=

    Nuclear Repulsion Energy =            186.6168359450682885
    One-Electron Energy =                -755.7052608300971315
    Two-Electron Energy =                 286.2752828222888866
    DFT Exchange-Correlation Energy =       0.0000000000000000
    Empirical Dispersion Energy =           0.0000000000000000
    PCM Polarization Energy =               0.0000000000000000
    EFP Energy =                            0.0000000000000000
    Total Energy =                       -282.8131420627399848
    Molecular point group: c1
  Basis Set: CC-PVTZ
  Basis Set:

  -Total Gradient:
     Atom            X                  Y                   Z
    ------   -----------------  -----------------  -----------------
       1       -0.000007254942    -0.000003247630     0.000000127518
       2       -0.000026277994    -0.000154262962    -0.000118678721
       3        0.000006826939     0.000127001104     0.000171410294
       4        0.000010886375    -0.000001188539    -0.000017449406
       5       -0.000003538484    -0.000001291834     0.000002446069
       6        0.000144552626     0.000229673443    -0.000135161802
       7       -0.000009295568     0.000006251013    -0.000007294082
       8       -0.000027562505     0.000006342763    -0.000004551802
       9       -0.000120822885    -0.000208357977     0.000083468692
      10        0.000032486434    -0.000000919381     0.000025683241

  **** Optimization is complete! (in 7 steps) ****
    Final optimized geometry and variables:
    Molecular point group: c1

    Geometry (in Angstrom), charge = 0, multiplicity = 1:

    H            2.847823532120    -0.337252448103     0.011838741173
    C            1.904085194969     0.023036452540    -0.377215205007
    C            0.792476818479    -0.449929230774     0.538644581495
    H            1.771038664451    -0.356647823767    -1.378380610506
    H            1.942754290939     1.104169939352    -0.413872273930
    N           -0.541967176626     0.024212153094     0.068972918005
    H            0.715348773007    -1.527464119894     0.545916958895
    H            0.892321628403    -0.084786488261     1.545311785562
    O           -1.242102203183     0.553596072183     0.863855651041
    O           -0.821225440928    -0.178785990986    -1.064934069084

  Mulliken Charges: (a.u.)
   Center  Symbol    Alpha    Beta     Spin     Total
       1     H     0.44887  0.44887  0.00000  0.10226
       2     C     3.14127  3.14127  0.00000 -0.28254
       3     C     3.03906  3.03906  0.00000 -0.07811
       4     H     0.43639  0.43639  0.00000  0.12722
       5     H     0.44527  0.44527  0.00000  0.10946
       6     N     3.27796  3.27796  0.00000  0.44408
       7     H     0.43745  0.43745  0.00000  0.12511
       8     H     0.43172  0.43172  0.00000  0.13656
       9     O     4.16843  4.16843  0.00000 -0.33687
      10     O     4.17358  4.17358  0.00000 -0.34717

   Total alpha = 20.00000, Total beta = 20.00000, Total charge = -0.00000
