                              Psi4 1.0.54 Driver

  ==> Input File <==

--------------------------------------------------------------------------
set {
	reference rhf
	basis cc-pvtz
}

set_num_threads( 4 )
memory 2 gb

molecule MOL {
0 1

H	 -1.752232	 -2.214755	 -0.011938
C	 -1.343852	 -1.221619	 -0.018179
N	 -0.058800	 -1.097635	 -0.261688
C	 -2.148159	 -0.124236	 0.219734
C	 0.449026	 0.119242	 -0.273393
H	 -3.196988	 -0.237571	 0.417076
N	 -1.655094	 1.094230	 0.209506
C	 -0.370318	 1.215445	 -0.035100
C	 1.924033	 0.265863	 -0.538106
H	 0.033214	 2.210441	 -0.046812
C	 2.783584	 -0.221309	 0.629493
H	 2.166190	 -0.305657	 -1.426074
H	 2.149226	 1.303901	 -0.752533
H	 3.836171	 -0.131849	 0.388675
H	 2.572123	 -1.259163	 0.851125
H	 2.592914	 0.360915	 1.524035

	symmetry c1
}
set optking {
	frozen_dihedral = ("
		12 9 5 3
	")
}

ee,wfn = optimize('scf', return_wfn=True)
oeprop( wfn, 'DIPOLE', 'QUADRUPOLE', 'MULLIKEN_CHARGES')
f=open( 'psi4out.xyz', 'w' )
f.write( "16  " )
f.write( str(ee) + "\n" )
f.write( MOL.save_string_xyz() )
f.close()
--------------------------------------------------------------------------

    Molecular point group: c1
  Charge       = 0
  Multiplicity = 1
  Basis Set: CC-PVTZ
  Basis Set:
  @DF-RHF Final Energy:  -340.87238282275212
    Total Energy =                       -340.8723828227520585
    Molecular point group: c1
  Basis Set: CC-PVTZ
  Basis Set:
  Basis Set: CC-PVTZ
  Basis Set:
  @DF-RHF Final Energy:  -340.87238138835545
    Total Energy =                       -340.8723813883551657
  Basis Set: CC-PVTZ
  Basis Set:
  Charge       = 0
  Multiplicity = 1
  Basis Set: CC-PVTZ
  Basis Set:

    Orbital Energies (a.u.)
    -----------------------

    Doubly Occupied:

       1A    -15.580711     2A    -15.576198     3A    -11.278225
       4A    -11.272850     5A    -11.268314     6A    -11.268170
       7A    -11.231552     8A    -11.216697     9A     -1.316284
      10A     -1.224332    11A     -1.086258    12A     -1.015335
      13A     -0.906949    14A     -0.895359    15A     -0.829441
      16A     -0.719454    17A     -0.712891    18A     -0.660027
      19A     -0.614682    20A     -0.604299    21A     -0.583506
      22A     -0.563063    23A     -0.524088    24A     -0.506996
      25A     -0.501053    26A     -0.489825    27A     -0.433144
      28A     -0.397851    29A     -0.347058

  @DF-RHF Final Energy:  -340.87238372458455

   => Energetics <=

    Nuclear Repulsion Energy =            350.6017352046201268
    One-Electron Energy =               -1155.6990130825224696
    Two-Electron Energy =                 464.2248941533177913
    DFT Exchange-Correlation Energy =       0.0000000000000000
    Empirical Dispersion Energy =           0.0000000000000000
    PCM Polarization Energy =               0.0000000000000000
    EFP Energy =                            0.0000000000000000
    Total Energy =                       -340.8723837245845516
    Molecular point group: c1
  Basis Set: CC-PVTZ
  Basis Set:

  -Total Gradient:
     Atom            X                  Y                   Z
    ------   -----------------  -----------------  -----------------
       1       -0.000001579110     0.000004825138    -0.000004187716
       2        0.000064551361    -0.000012094949     0.000012881383
       3       -0.000052122383    -0.000018935958    -0.000000915550
       4        0.000004960820     0.000062452427    -0.000009626701
       5       -0.000011237488     0.000041333591    -0.000025133592
       6        0.000003960039    -0.000001918821    -0.000000200647
       7       -0.000034975224    -0.000046402087     0.000005051717
       8        0.000046894378    -0.000026076661     0.000000649713
       9       -0.000006649229     0.000014036446     0.000013306793
      10       -0.000004209817    -0.000005271077     0.000003851181
      11       -0.000027540539     0.000015737155    -0.000037019957
      12       -0.000004896065    -0.000014980433     0.000010875066
      13       -0.000002673936     0.000002441433     0.000001924245
      14        0.000050827989     0.000005473277    -0.000016495980
      15       -0.000013705539    -0.000049419629     0.000007342106
      16       -0.000011605258     0.000028800149     0.000037697940

  **** Optimization is complete! (in 3 steps) ****
    Final optimized geometry and variables:
    Molecular point group: c1

    Geometry (in Angstrom), charge = 0, multiplicity = 1:

    H           -1.752425323158    -2.214948061218    -0.010986237368
    C           -1.343871157538    -1.221960224206    -0.017588349049
    N           -0.058936254234    -1.098419659940    -0.262131296675
    C           -2.147748206530    -0.124530813533     0.220067285194
    C            0.448926225433     0.118333700090    -0.274634470551
    H           -3.196424136852    -0.237549256418     0.418019853132
    N           -1.654497859121     1.093882353412     0.209405904308
    C           -0.369889002612     1.214612758790    -0.035828658390
    C            1.923917818538     0.264543648767    -0.538967751728
    H            0.033961646300     2.209409549119    -0.047787678488
    C            2.782744474568    -0.222132508304     0.629299238588
    H            2.166115999692    -0.307730100788    -1.426351269159
    H            2.149432752380     1.302394267754    -0.753837717708
    H            3.835575236297    -0.126480826792     0.391691971002
    H            2.575869418064    -1.261864870017     0.846731879430
    H            2.586557468795     0.356103020830     1.525292014133

  Mulliken Charges: (a.u.)
   Center  Symbol    Alpha    Beta     Spin     Total
       1     H     0.41373  0.41373  0.00000  0.17253
       2     C     3.04386  3.04386  0.00000 -0.08773
       3     N     3.59791  3.59791  0.00000 -0.19583
       4     C     3.04752  3.04752  0.00000 -0.09503
       5     C     2.93747  2.93747  0.00000  0.12505
       6     H     0.41368  0.41368  0.00000  0.17265
       7     N     3.58670  3.58670  0.00000 -0.17341
       8     C     3.07850  3.07850  0.00000 -0.15699
       9     C     3.07766  3.07766  0.00000 -0.15531
      10     H     0.41569  0.41569  0.00000  0.16863
      11     C     3.14450  3.14450  0.00000 -0.28900
      12     H     0.44484  0.44484  0.00000  0.11031
      13     H     0.44944  0.44944  0.00000  0.10111
      14     H     0.44949  0.44949  0.00000  0.10102
      15     H     0.44526  0.44526  0.00000  0.10947
      16     H     0.45374  0.45374  0.00000  0.09251

   Total alpha = 29.00000, Total beta = 29.00000, Total charge = -0.00000

*** Psi4 exiting successfully. Buy a developer a beer!
