  ==> Input File <==

--------------------------------------------------------------------------
set {
	reference rhf
	basis cc-pvtz
}

set_num_threads( 4 )
memory 2 gb

molecule MOL {
0 1

H	 -2.123894	 -0.667238	 -0.609809
O	 -2.041679	 -0.058866	 0.103463
C	 -0.959304	 0.780994	 -0.094939
C	 0.354905	 0.037902	 -0.006215
H	 -0.985899	 1.279578	 -1.057596
H	 -0.969809	 1.529522	 0.682889
F	 0.558009	 -0.419878	 1.216478
F	 0.352234	 -0.995121	 -0.822581
F	 1.380824	 0.793384	 -0.317198

	symmetry c1
}
set optking {
	frozen_dihedral = ("
		7 4 3 5
	")
}

ee = optimize('scf')
oeprop('DIPOLE', 'QUADRUPOLE', 'MULLIKEN_CHARGES')
f=open( 'psi4out.xyz', 'w' )
f.write( "9  " )
f.write( str(ee) + "\n" )
f.write( MOL.save_string_xyz() )
f.close()
--------------------------------------------------------------------------

    Molecular point group: c1
  Charge       = 0
  Multiplicity = 1
  Basis Set: CC-PVTZ
  Basis Set:
  @DF-RHF Final Energy:  -450.84679161945115
    Total Energy =                       -450.8467916194510963
    Molecular point group: c1
  Basis Set: CC-PVTZ
  Basis Set:
  Basis Set: CC-PVTZ
  Basis Set:
  @DF-RHF Final Energy:  -450.84712262824769
    Total Energy =                       -450.8471226282476891
  Basis Set: CC-PVTZ
  Basis Set:
  Basis Set: CC-PVTZ
  Basis Set:
  @DF-RHF Final Energy:  -450.84718412594918
    Total Energy =                       -450.8471841259492976
  Basis Set: CC-PVTZ
  Basis Set:
  Basis Set: CC-PVTZ
  Basis Set:
  @DF-RHF Final Energy:  -450.84719013164499
    Total Energy =                       -450.8471901316449930
  Basis Set: CC-PVTZ
  Basis Set:
  Charge       = 0
  Multiplicity = 1
  Basis Set: CC-PVTZ
  Basis Set:

    Orbital Energies (a.u.)
    -----------------------

    Doubly Occupied:

       1A    -26.340405     2A    -26.339203     3A    -26.335722
       4A    -20.583937     5A    -11.493878     6A    -11.310000
       7A     -1.747964     8A     -1.645143     9A     -1.642939
      10A     -1.407539    11A     -1.050570    12A     -0.929962
      13A     -0.838147    14A     -0.836232    15A     -0.812095
      16A     -0.731718    17A     -0.718993    18A     -0.703947
      19A     -0.672034    20A     -0.666028    21A     -0.649421
      22A     -0.632969    23A     -0.619716    24A     -0.533939
      25A     -0.484806

  @DF-RHF Final Energy:  -450.84719059141469

   => Energetics <=

    Nuclear Repulsion Energy =            277.6802384168189519
    One-Electron Energy =               -1177.6002401228324743
    Two-Electron Energy =                 449.0728111145989487
    DFT Exchange-Correlation Energy =       0.0000000000000000
    Empirical Dispersion Energy =           0.0000000000000000
    PCM Polarization Energy =               0.0000000000000000
    EFP Energy =                            0.0000000000000000
    Total Energy =                       -450.8471905914145736
    Molecular point group: c1
  Basis Set: CC-PVTZ
  Basis Set:

  -Total Gradient:
     Atom            X                  Y                   Z
    ------   -----------------  -----------------  -----------------
       1        0.000008931602    -0.000005411670    -0.000010381080
       2        0.000039922084     0.000053021353    -0.000005678067
       3       -0.000458309314    -0.000889478114    -0.000460851480
       4       -0.000493315950    -0.000884075475    -0.000250266474
       5        0.000489058795     0.000896681186     0.000454652199
       6        0.000002015148     0.000004955001     0.000016234008
       7        0.000450595486     0.000829729374     0.000244785294
       8       -0.000008705814    -0.000003579768    -0.000001931777
       9       -0.000030192042    -0.000001841888     0.000013437378

  **** Optimization is complete! (in 5 steps) ****
    Final optimized geometry and variables:
    Molecular point group: c1

    Geometry (in Angstrom), charge = 0, multiplicity = 1:

    H           -2.125415229778    -0.659539958279    -0.605997711643
    O           -2.044676344160    -0.037859664872     0.095843674372
    C           -0.952733786597     0.787108037403    -0.108002205575
    C            0.354812777298     0.033154111923    -0.006086188682
    H           -0.968773166128     1.283008207223    -1.072303268253
    H           -0.956853727721     1.542476376550     0.663479136976
    F            0.573034803787    -0.432451625432     1.200869103911
    F            0.379419791571    -0.991961081183    -0.838039447677
    F            1.361540786301     0.823284455899    -0.317625215160

  Mulliken Charges: (a.u.)
   Center  Symbol    Alpha    Beta     Spin     Total
       1     H     0.38625  0.38625  0.00000  0.22751
       2     O     4.19232  4.19232  0.00000 -0.38464
       3     C     2.99093  2.99093  0.00000  0.01814
       4     C     2.68352  2.68352  0.00000  0.63296
       5     H     0.46217  0.46217  0.00000  0.07567
       6     H     0.44769  0.44769  0.00000  0.10462
       7     F     4.60779  4.60779  0.00000 -0.21557
       8     F     4.61700  4.61700  0.00000 -0.23399
       9     F     4.61235  4.61235  0.00000 -0.22470

   Total alpha = 25.00000, Total beta = 25.00000, Total charge =  0.00000
