  ==> Input File <==

--------------------------------------------------------------------------
set {
	reference rhf
	basis 6-31G*
}

set_num_threads( 4 )
memory 2 gb

molecule MOL {
0 1

O	 -2.042549	 -1.228399	 -0.269030
C	 -1.653912	 -0.146171	 0.050137
C	 -0.332303	 0.024011	 0.778412
C	 -2.438579	 1.106236	 -0.272369
C	 0.845713	 -0.001731	 -0.208243
H	 -0.323783	 0.953829	 1.340327
H	 -0.235459	 -0.796807	 1.480410
C	 2.200309	 0.136118	 0.488247
H	 0.733710	 0.800019	 -0.936072
H	 0.811185	 -0.933796	 -0.764304
C	 3.357244	 0.300943	 -0.496406
H	 2.174862	 0.989050	 1.162996
H	 2.374619	 -0.740207	 1.108117
H	 3.228595	 1.189125	 -1.108479
H	 3.428069	 -0.552898	 -1.163776
H	 4.304700	 0.393232	 0.024974
H	 -3.277823	 0.863061	 -0.908988
H	 -1.806773	 1.843019	 -0.759671
H	 -2.802853	 1.554979	 0.648059

	symmetry c1
}
set optking {
	frozen_dihedral = ("
		11 8 5 9
	")
}

ee = optimize('scf')
oeprop('DIPOLE', 'QUADRUPOLE', 'MULLIKEN_CHARGES')
f=open( 'psi4out.xyz', 'w' )
f.write( "19  " )
f.write( str(ee) + "\n" )
f.write( MOL.save_string_xyz() )
f.close()
--------------------------------------------------------------------------

    Molecular point group: c1
  Charge       = 0
  Multiplicity = 1
  Basis Set: 6-31G*
  Basis Set:
  @DF-RHF Final Energy:  -309.06489558469258
    Total Energy =                       -309.0648955846925219
    Molecular point group: c1
  Basis Set: 6-31G*
  Basis Set:
  Basis Set: 6-31G*
  Basis Set:
  @DF-RHF Final Energy:  -309.06463582190122
    Total Energy =                       -309.0646358219014473
  Basis Set: 6-31G*
  Basis Set:
  Basis Set: 6-31G*
  Basis Set:
  @DF-RHF Final Energy:  -309.06482735965278
    Total Energy =                       -309.0648273596530657
  Basis Set: 6-31G*
  Basis Set:
  Basis Set: 6-31G*
  Basis Set:
  @DF-RHF Final Energy:  -309.06492521285236
    Total Energy =                       -309.0649252128523585
  Basis Set: 6-31G*
  Basis Set:
  Basis Set: 6-31G*
  Basis Set:
  @DF-RHF Final Energy:  -309.06476593939357
    Total Energy =                       -309.0647659393939080
  Basis Set: 6-31G*
  Basis Set:
  Basis Set: 6-31G*
  Basis Set:
  @DF-RHF Final Energy:  -309.06492905604199
    Total Energy =                       -309.0649290560419331
  Basis Set: 6-31G*
  Basis Set:
  Charge       = 0
  Multiplicity = 1
  Basis Set: 6-31G*
  Basis Set:

    Orbital Energies (a.u.)
    -----------------------

    Doubly Occupied:

       1A    -20.547595     2A    -11.324710     3A    -11.230470
       4A    -11.229538     5A    -11.228325     6A    -11.224782
       7A    -11.215086     8A     -1.393347     9A     -1.091259
      10A     -1.029356    11A     -0.983921    12A     -0.889978
      13A     -0.806869    14A     -0.733399    15A     -0.663594
      16A     -0.644712    17A     -0.622958    18A     -0.613151
      19A     -0.582731    20A     -0.572266    21A     -0.554209
      22A     -0.536985    23A     -0.511459    24A     -0.500958
      25A     -0.482505    26A     -0.474818    27A     -0.467427
      28A     -0.396932

  @DF-RHF Final Energy:  -309.06493041709541

   => Energetics <=

    Nuclear Repulsion Energy =            301.2125290822091301
    One-Electron Energy =               -1015.4482420699753220
    Two-Electron Energy =                 405.1707825706705535
    DFT Exchange-Correlation Energy =       0.0000000000000000
    Empirical Dispersion Energy =           0.0000000000000000
    PCM Polarization Energy =               0.0000000000000000
    EFP Energy =                            0.0000000000000000
    Total Energy =                       -309.0649304170956384
    Molecular point group: c1
  Basis Set: 6-31G*
  Basis Set:

  -Total Gradient:
     Atom            X                  Y                   Z
    ------   -----------------  -----------------  -----------------
       1       -0.000016326430    -0.000009776116     0.000028069526
       2        0.000048791169     0.000018819981    -0.000089091433
       3       -0.000014103578     0.000003323309     0.000029835091
       4       -0.000020469434    -0.000003366612     0.000027020676
       5       -0.000883265308     0.001609116947     0.001442482727
       6        0.000001013082    -0.000001772002     0.000001748109
       7        0.000003920119     0.000001373080     0.000004212931
       8        0.000322364832    -0.001836813388    -0.000331967871
       9        0.000689242821    -0.000955526879    -0.001151665548
      10       -0.000011647605    -0.000005887079    -0.000001162032
      11       -0.000122018538     0.001178756471     0.000038240524
      12       -0.000001219821     0.000000346601     0.000013942199
      13        0.000002726012    -0.000001410310    -0.000015109765
      14       -0.000001288427     0.000001538451     0.000006102915
      15        0.000000490934     0.000003151152    -0.000003318520
      16        0.000000915196    -0.000002832887    -0.000000680440
      17        0.000000391545    -0.000000805307     0.000000908878
      18        0.000002990769    -0.000004387472     0.000001099049
      19       -0.000002507335     0.000006152059    -0.000000667018

  **** Optimization is complete! (in 7 steps) ****
    Final optimized geometry and variables:
    Molecular point group: c1

    Geometry (in Angstrom), charge = 0, multiplicity = 1:

    O           -2.032549086943    -1.263751359886    -0.266007032137
    C           -1.651457337603    -0.178232951748     0.051011791463
    C           -0.331126121570     0.002878447509     0.779065497614
    C           -2.445142347747     1.068019069961    -0.273256150316
    C            0.846980091867    -0.013891337839    -0.206669517467
    H           -0.329996209902     0.932877004683     1.340575193524
    H           -0.227569192433    -0.816897577765     1.481467560732
    C            2.204071266972     0.106821714416     0.489441291451
    H            0.741188202306     0.790256177491    -0.932716635217
    H            0.810395013069    -0.940019397072    -0.772988619690
    C            3.362349593223     0.261498345449    -0.495249603530
    H            2.191303201692     0.963110811992     1.160634195367
    H            2.365840332681    -0.768720686045     1.113308310530
    H            3.249612741658     1.161595356148    -1.092621626717
    H            3.415384111430    -0.582889706104    -1.176485365995
    H            4.312540002523     0.326444896335     0.025262797262
    H           -3.283206289356     0.817713153881    -0.908662719696
    H           -1.818817359030     1.808103030764    -0.762637131844
    H           -2.811739334987     1.516151969044     0.646551887116

  Mulliken Charges: (a.u.)
   Center  Symbol    Alpha    Beta     Spin     Total
       1     O     4.26194  4.26194  0.00000 -0.52387
       2     C     2.73740  2.73740  0.00000  0.52521
       3     C     3.20002  3.20002  0.00000 -0.40004
       4     C     3.28955  3.28955  0.00000 -0.57911
       5     C     3.16161  3.16161  0.00000 -0.32322
       6     H     0.41674  0.41674  0.00000  0.16651
       7     H     0.40099  0.40099  0.00000  0.19802
       8     C     3.15166  3.15166  0.00000 -0.30331
       9     H     0.42101  0.42101  0.00000  0.15798
      10     H     0.40631  0.40631  0.00000  0.18738
      11     C     3.24051  3.24051  0.00000 -0.48102
      12     H     0.42272  0.42272  0.00000  0.15457
      13     H     0.41841  0.41841  0.00000  0.16318
      14     H     0.42120  0.42120  0.00000  0.15759
      15     H     0.41902  0.41902  0.00000  0.16195
      16     H     0.41738  0.41738  0.00000  0.16524
      17     H     0.39700  0.39700  0.00000  0.20600
      18     H     0.40978  0.40978  0.00000  0.18044
      19     H     0.40675  0.40675  0.00000  0.18650

   Total alpha = 28.00000, Total beta = 28.00000, Total charge = -0.00000
