  ==> Input File <==

--------------------------------------------------------------------------
set {
	reference rhf
	basis cc-pvtz
}

set_num_threads( 4 )
memory 2 gb

molecule MOL {
0 1

O	 1.847685	 1.294399	 -0.000190
C	 1.704209	 0.119472	 -0.000093
C	 0.380337	 -0.600947	 -0.000234
O	 2.715427	 -0.733672	 0.000025
C	 -0.824290	 0.329213	 -0.000115
H	 0.371455	 -1.255476	 -0.865660
H	 0.371410	 -1.255787	 0.864952
C	 -2.146151	 -0.432825	 -0.000068
H	 -0.773936	 0.979158	 -0.866319
H	 -0.773838	 0.979034	 0.866186
C	 -3.366283	 0.483552	 0.000557
H	 -2.189286	 -1.084450	 -0.869996
H	 -2.188867	 -1.085083	 0.869399
C	 -4.612876	 -0.179122	 0.576995
H	 -3.568768	 0.810548	 -1.015430
H	 -3.139431	 1.381132	 0.568930
H	 -4.885818	 -1.061873	 0.008236
H	 -5.459332	 0.497660	 0.562418
H	 -4.453225	 -0.486424	 1.605251
C	 4.020999	 -0.192556	 0.000019
H	 4.182809	 0.412891	 -0.879449
H	 4.692590	 -1.035653	 0.000152
H	 4.182726	 0.413087	 0.879368

	symmetry c1
}
set optking {
	frozen_dihedral = ("
		15 11 8 12
	")
}

ee = optimize('scf')
oeprop('DIPOLE', 'QUADRUPOLE', 'MULLIKEN_CHARGES')
f=open( 'psi4out.xyz', 'w' )
f.write( "23  " )
f.write( str(ee) + "\n" )
f.write( MOL.save_string_xyz() )
f.close()
--------------------------------------------------------------------------

    Molecular point group: c1
  Charge       = 0
  Multiplicity = 1
  Basis Set: CC-PVTZ
  Basis Set:
  @DF-RHF Final Energy:  -423.12907412332191
    Total Energy =                       -423.1290741233219705
    Molecular point group: c1
  Basis Set: CC-PVTZ
  Basis Set:
  Basis Set: CC-PVTZ
  Basis Set:
  @DF-RHF Final Energy:  -423.12929155935444
    Total Energy =                       -423.1292915593538737
  Basis Set: CC-PVTZ
  Basis Set:
  Basis Set: CC-PVTZ
  Basis Set:
  @DF-RHF Final Energy:  -423.12932328653108
    Total Energy =                       -423.1293232865307345
  Basis Set: CC-PVTZ
  Basis Set:
  Basis Set: CC-PVTZ
  Basis Set:
  @DF-RHF Final Energy:  -423.12916639494699
    Total Energy =                       -423.1291663949469921
  Basis Set: CC-PVTZ
  Basis Set:
  Basis Set: CC-PVTZ
  Basis Set:
  @DF-RHF Final Energy:  -423.12934045864557
    Total Energy =                       -423.1293404586452880
  Basis Set: CC-PVTZ
  Basis Set:
  Charge       = 0
  Multiplicity = 1
  Basis Set: CC-PVTZ
  Basis Set:

    Orbital Energies (a.u.)
    -----------------------

    Doubly Occupied:

       1A    -20.596241     2A    -20.534047     3A    -11.364493
       4A    -11.278432     5A    -11.233615     6A    -11.217089
       7A    -11.215830     8A    -11.214526     9A    -11.207592
      10A     -1.472130    11A     -1.365704    12A     -1.094027
      13A     -1.044280    14A     -0.987930    15A     -0.932452
      16A     -0.843789    17A     -0.795247    18A     -0.769248
      19A     -0.699034    20A     -0.686809    21A     -0.675420
      22A     -0.651998    23A     -0.611014    24A     -0.600654
      25A     -0.573929    26A     -0.564437    27A     -0.552745
      28A     -0.525355    29A     -0.523092    30A     -0.506360
      31A     -0.487119    32A     -0.469016    33A     -0.466525
      34A     -0.462341    35A     -0.458822    36A     -0.438075

  @DF-RHF Final Energy:  -423.12934064498188

   => Energetics <=

    Nuclear Repulsion Energy =            452.9624375716051645
    One-Electron Energy =               -1473.9447188894730516
    Two-Electron Energy =                 597.8529406728855520
    DFT Exchange-Correlation Energy =       0.0000000000000000
    Empirical Dispersion Energy =           0.0000000000000000
    PCM Polarization Energy =               0.0000000000000000
    EFP Energy =                            0.0000000000000000
    Total Energy =                       -423.1293406449823351
    Molecular point group: c1
  Basis Set: CC-PVTZ
  Basis Set:

  -Total Gradient:
     Atom            X                  Y                   Z
    ------   -----------------  -----------------  -----------------
       1       -0.000004422741     0.000002836108    -0.000007284067
       2        0.000005817129     0.000001036950     0.000009215350
       3        0.000001047675    -0.000007842565    -0.000011552798
       4       -0.000008792760    -0.000004250647    -0.000004339569
       5       -0.000013555248     0.000017139610     0.000054023701
       6        0.000001168846    -0.000004150904    -0.000002397652
       7        0.000001705037     0.000003336140    -0.000000682929
       8       -0.003056149888    -0.003885027769     0.002365420119
       9       -0.000005032071     0.000007526669     0.000001750870
      10        0.000024891639     0.000002548973     0.000001679150
      11        0.003329223432     0.004372116462     0.000167074495
      12        0.002019205802     0.002577201018    -0.002048123413
      13       -0.000013806245     0.000024282445     0.000001820345
      14        0.000019118402    -0.000009654783     0.000025294766
      15       -0.002293743676    -0.003068658058    -0.000561466882
      16        0.000010089547    -0.000021706826    -0.000000747415
      17       -0.000000597495     0.000000024926     0.000001707192
      18        0.000002092410     0.000001870666    -0.000001574641
      19       -0.000017314075    -0.000010196398     0.000009943948
      20        0.000001573945     0.000002682441     0.000001016872
      21       -0.000000593538    -0.000000110791    -0.000000070822
      22       -0.000001338516    -0.000000615522    -0.000000198310
      23       -0.000000587618    -0.000000388149    -0.000000508310

  **** Optimization is complete! (in 6 steps) ****
    Final optimized geometry and variables:
    Molecular point group: c1

    Geometry (in Angstrom), charge = 0, multiplicity = 1:

    O            1.842620554675     1.281795585073    -0.056408472661
    C            1.698800509708     0.106957028105    -0.067825238138
    C            0.374887647261    -0.613254537675    -0.056708267239
    O            2.709766663542    -0.746222069779    -0.092702378345
    C           -0.829431938531     0.316678022157    -0.028362170461
    H            0.353636381095    -1.258345172140    -0.928962764539
    H            0.378382235892    -1.277636217496     0.801347583400
    C           -2.153062844794    -0.445617660241    -0.008311750830
    H           -0.795696671673     0.972219268421    -0.891606559850
    H           -0.763041871099     0.961308131229     0.840535051859
    C           -3.371312152714     0.480078293269    -0.052674980842
    H           -2.178426552567    -1.107120842208    -0.870491215562
    H           -2.195944185234    -1.072210023754     0.878320083468
    C           -4.644662777830    -0.189699717735     0.458047823946
    H           -3.542342583729     0.792911340277    -1.078141752500
    H           -3.177349314435     1.375569527090     0.528666984927
    H           -4.866763580200    -1.089172928436    -0.107203927656
    H           -5.498573212382     0.472562203256     0.372562777756
    H           -4.547479016441    -0.472433927691     1.500923327462
    C            4.015232971114    -0.205234485387    -0.105739070210
    H            4.164212683949     0.410473236156    -0.980355771750
    H            4.686628588492    -1.048280911847    -0.125445361860
    H            4.190222284450     0.390079769120     0.778130167540

  Mulliken Charges: (a.u.)
   Center  Symbol    Alpha    Beta     Spin     Total
       1     O     4.19699  4.19699  0.00000 -0.39398
       2     C     2.80660  2.80660  0.00000  0.38681
       3     C     3.10206  3.10206  0.00000 -0.20413
       4     O     4.14649  4.14649  0.00000 -0.29297
       5     C     3.08352  3.08352  0.00000 -0.16704
       6     H     0.44007  0.44007  0.00000  0.11986
       7     H     0.43999  0.43999  0.00000  0.12002
       8     C     3.09040  3.09040  0.00000 -0.18080
       9     H     0.44603  0.44603  0.00000  0.10794
      10     H     0.44665  0.44665  0.00000  0.10671
      11     C     3.08486  3.08486  0.00000 -0.16972
      12     H     0.45501  0.45501  0.00000  0.08999
      13     H     0.45549  0.45549  0.00000  0.08902
      14     C     3.14945  3.14945  0.00000 -0.29891
      15     H     0.45281  0.45281  0.00000  0.09438
      16     H     0.45259  0.45259  0.00000  0.09482
      17     H     0.45515  0.45515  0.00000  0.08969
      18     H     0.44840  0.44840  0.00000  0.10320
      19     H     0.45562  0.45562  0.00000  0.08876
      20     C     3.03775  3.03775  0.00000 -0.07550
      21     H     0.45437  0.45437  0.00000  0.09126
      22     H     0.44535  0.44535  0.00000  0.10929
      23     H     0.45435  0.45435  0.00000  0.09129

   Total alpha = 36.00000, Total beta = 36.00000, Total charge = -0.00000
