  ==> Input File <==

--------------------------------------------------------------------------
set {
	reference rhf
	basis 6-31G*
}

set_num_threads( 4 )
memory 2 gb

molecule MOL {
0 1

H	 -0.367348	 2.047014	 -0.308205
C	 0.352277	 1.337084	 0.083769
N	 -0.000016	 0.000074	 -0.335546
H	 1.328359	 1.600444	 -0.307950
H	 0.381933	 1.450534	 1.172486
C	 -0.242714	 -0.073195	 -1.758219
C	 0.973916	 -0.975889	 0.097016
H	 -0.572748	 -1.071083	 -2.024018
H	 -1.027430	 0.622330	 -2.033770
H	 0.643823	 0.161390	 -2.356472
H	 1.077234	 -0.939467	 1.175614
H	 0.641465	 -1.971924	 -0.172853
H	 1.963671	 -0.817620	 -0.343737

	symmetry c1
}
set optking {
	frozen_dihedral = ("
		6 3 2 1
	")
}

ee = optimize('scf')
oeprop('DIPOLE', 'QUADRUPOLE', 'MULLIKEN_CHARGES')
f=open( 'psi4out.xyz', 'w' )
f.write( "13  " )
f.write( str(ee) + "\n" )
f.write( MOL.save_string_xyz() )
f.close()
--------------------------------------------------------------------------

    Molecular point group: c1
  Charge       = 0
  Multiplicity = 1
  Basis Set: 6-31G*
  Basis Set:
  @DF-RHF Final Energy:  -173.26820764724829
    Total Energy =                       -173.2682076472482322
    Molecular point group: c1
  Basis Set: 6-31G*
  Basis Set:
  Basis Set: 6-31G*
  Basis Set:
  @DF-RHF Final Energy:  -173.26889584679620
    Total Energy =                       -173.2688958467962550
  Basis Set: 6-31G*
  Basis Set:
  Basis Set: 6-31G*
  Basis Set:
  @DF-RHF Final Energy:  -173.26899266813891
    Total Energy =                       -173.2689926681388783
  Basis Set: 6-31G*
  Basis Set:
  Charge       = 0
  Multiplicity = 1
  Basis Set: 6-31G*
  Basis Set:

    Orbital Energies (a.u.)
    -----------------------

    Doubly Occupied:

       1A    -15.543178     2A    -11.235949     3A    -11.235854
       4A    -11.235833     5A     -1.225028     6A     -0.952056
       7A     -0.951631     8A     -0.806059     9A     -0.641070
      10A     -0.631089    11A     -0.630471    12A     -0.544682
      13A     -0.543074    14A     -0.517652    15A     -0.502268
      16A     -0.501511    17A     -0.345145

  @DF-RHF Final Energy:  -173.26899393475875

   => Energetics <=

    Nuclear Repulsion Energy =            139.2337648594598534
    One-Electron Energy =                -508.9204170826789095
    Two-Electron Energy =                 196.4176582884603590
    DFT Exchange-Correlation Energy =       0.0000000000000000
    Empirical Dispersion Energy =           0.0000000000000000
    PCM Polarization Energy =               0.0000000000000000
    EFP Energy =                            0.0000000000000000
    Total Energy =                       -173.2689939347587256
    Molecular point group: c1
  Basis Set: 6-31G*
  Basis Set:

  -Total Gradient:
     Atom            X                  Y                   Z
    ------   -----------------  -----------------  -----------------
       1        0.000947993993     0.000164663916    -0.001481788530
       2       -0.001678896761    -0.000118276513     0.001873590452
       3        0.001964672813    -0.000368349870    -0.000672605967
       4        0.000004228734    -0.000025149266    -0.000017196628
       5       -0.000020782450    -0.000054706237    -0.000017631667
       6       -0.001271794061     0.000420180375     0.000160329082
       7        0.000065516627    -0.000004020331     0.000036526558
       8        0.000021487376     0.000005198969     0.000082922608
       9       -0.000024657827     0.000016941341    -0.000003662515
      10       -0.000005165537    -0.000023458636     0.000024470466
      11        0.000013861279    -0.000011806568     0.000005728350
      12       -0.000001738670     0.000004695537     0.000001031354
      13       -0.000014725515    -0.000005912717     0.000008286437

  **** Optimization is complete! (in 4 steps) ****
    Final optimized geometry and variables:
    Molecular point group: c1

    Geometry (in Angstrom), charge = 0, multiplicity = 1:

    H           -0.652876330332     1.972563782948     0.185273365609
    C            0.070453459496     1.262628278901     0.569229647015
    N           -0.283416866398    -0.073625717470     0.148844563069
    H            1.058193486391     1.573414298341     0.212390991850
    H            0.069504031166     1.323794153431     1.651765817723
    C           -0.539438018934    -0.154090464695    -1.270554215140
    C            0.680993909159    -1.053465024652     0.590651401726
    H           -0.868932593405    -1.154736412123    -1.526701912741
    H           -1.329453550555     0.536929893419    -1.541617059934
    H            0.339688827478     0.078577722421    -1.880590801055
    H            0.786358179033    -1.005017816449     1.668789891135
    H            0.339486815944    -2.049752095347     0.333189396492
    H            1.671565341512    -0.908534289691     0.147168248308

  Mulliken Charges: (a.u.)
   Center  Symbol    Alpha    Beta     Spin     Total
       1     H     0.41744  0.41744  0.00000  0.16512
       2     C     3.14228  3.14228  0.00000 -0.28456
       3     N     3.76664  3.76664  0.00000 -0.53329
       4     H     0.43526  0.43526  0.00000  0.12948
       5     H     0.41616  0.41616  0.00000  0.16767
       6     C     3.14223  3.14223  0.00000 -0.28445
       7     C     3.14237  3.14237  0.00000 -0.28475
       8     H     0.41696  0.41696  0.00000  0.16609
       9     H     0.41668  0.41668  0.00000  0.16664
      10     H     0.43530  0.43530  0.00000  0.12939
      11     H     0.41685  0.41685  0.00000  0.16630
      12     H     0.41676  0.41676  0.00000  0.16648
      13     H     0.43506  0.43506  0.00000  0.12988

   Total alpha = 17.00000, Total beta = 17.00000, Total charge =  0.00000
