  ==> Input File <==

--------------------------------------------------------------------------
set {
	reference rhf
	basis 6-31G*
}

set_num_threads( 4 )
memory 2 gb

molecule MOL {
0 1

H	 -2.551376	 1.869976	 1.775700
C	 -2.044273	 0.979932	 2.142862
O	 -0.760701	 0.872232	 1.617330
H	 -1.951787	 1.048197	 3.218003
H	 -2.652256	 0.110283	 1.896908
C	 -0.719715	 0.768384	 0.229244
C	 0.719720	 0.768376	 -0.229267
H	 -1.199223	 -0.156055	 -0.095071
H	 -1.244474	 1.599912	 -0.236798
O	 1.392611	 -0.295398	 0.366430
H	 0.750534	 0.687200	 -1.313918
H	 1.185043	 1.714359	 0.050526
C	 2.706965	 -0.449871	 -0.062409
H	 2.756559	 -0.644779	 -1.131878
H	 3.305899	 0.433456	 0.155466
H	 3.125548	 -1.294566	 0.467107

	symmetry c1
}
set optking {
	frozen_dihedral = ("
		3 6 7 11
	")
}

ee = optimize('scf')
oeprop('DIPOLE', 'QUADRUPOLE', 'MULLIKEN_CHARGES')
f=open( 'psi4out.xyz', 'w' )
f.write( "16  " )
f.write( str(ee) + "\n" )
f.write( MOL.save_string_xyz() )
f.close()
--------------------------------------------------------------------------

    Molecular point group: c1
  Charge       = 0
  Multiplicity = 1
  Basis Set: 6-31G*
  Basis Set:
  @DF-RHF Final Energy:  -306.97646377195878
    Total Energy =                       -306.9764637719590610
    Molecular point group: c1
  Basis Set: 6-31G*
  Basis Set:
  Basis Set: 6-31G*
  Basis Set:
  @DF-RHF Final Energy:  -306.97687563508168
    Total Energy =                       -306.9768756350816830
  Basis Set: 6-31G*
  Basis Set:
  Basis Set: 6-31G*
  Basis Set:
  @DF-RHF Final Energy:  -306.97692770660831
    Total Energy =                       -306.9769277066085351
  Basis Set: 6-31G*
  Basis Set:
  Charge       = 0
  Multiplicity = 1
  Basis Set: 6-31G*
  Basis Set:

    Orbital Energies (a.u.)
    -----------------------

    Doubly Occupied:

       1A    -20.552915     2A    -20.552376     3A    -11.269662
       4A    -11.268994     5A    -11.263218     6A    -11.263024
       7A     -1.388564     8A     -1.369516     9A     -1.030575
      10A     -0.935088    11A     -0.893366    12A     -0.822153
      13A     -0.685660    14A     -0.678977    15A     -0.657085
      16A     -0.637805    17A     -0.626121    18A     -0.595656
      19A     -0.557195    20A     -0.530987    21A     -0.508598
      22A     -0.475723    23A     -0.463168    24A     -0.416787
      25A     -0.411604

  @DF-RHF Final Energy:  -306.97693082723816

   => Energetics <=

    Nuclear Repulsion Energy =            259.4727059111510812
    One-Electron Energy =                -933.1896453552203639
    Two-Electron Energy =                 366.7400086168312328
    DFT Exchange-Correlation Energy =       0.0000000000000000
    Empirical Dispersion Energy =           0.0000000000000000
    PCM Polarization Energy =               0.0000000000000000
    EFP Energy =                            0.0000000000000000
    Total Energy =                       -306.9769308272381068
    Molecular point group: c1
  Basis Set: 6-31G*
  Basis Set:

  -Total Gradient:
     Atom            X                  Y                   Z
    ------   -----------------  -----------------  -----------------
       1       -0.000008694395    -0.000004923514     0.000009154308
       2        0.000004767579     0.000024028335    -0.000018767031
       3       -0.000025298390    -0.002955790315     0.000340014083
       4        0.000000055061    -0.000005083874    -0.000000464286
       5       -0.000006852037    -0.000009539732     0.000003746032
       6        0.000023096154     0.002976100603    -0.000391285365
       7        0.000066756373     0.003648122094    -0.000324099091
       8       -0.000010017580     0.000010389226     0.000016773724
       9        0.000011250183     0.000013831252     0.000024216627
      10       -0.000015432615     0.000060509566     0.000015763943
      11       -0.000047166936    -0.003738415867     0.000367157350
      12       -0.000003511425    -0.000005734654    -0.000013061567
      13        0.000006978407    -0.000028407788    -0.000045743306
      14        0.000025523271    -0.000000042611     0.000000530540
      15       -0.000012881717     0.000003859161     0.000011059948
      16       -0.000008571936     0.000011098117     0.000005004085

  **** Optimization is complete! (in 4 steps) ****
    Final optimized geometry and variables:
    Molecular point group: c1

    Geometry (in Angstrom), charge = 0, multiplicity = 1:

    H           -2.837687471212     1.326712539873     1.102362136815
    C           -2.228109904887     0.509133637427     1.484825690107
    O           -0.952675871730     0.517734192610     0.929753190200
    H           -2.118958960940     0.625484836881     2.554204447228
    H           -2.743377710076    -0.428128881730     1.283421057926
    C           -0.933702849505     0.372610533505    -0.453342543289
    C            0.496776333562     0.313504950463    -0.938295286027
    H           -1.446958260922    -0.542434379969    -0.744479628394
    H           -1.440181723296     1.208307967539    -0.938080553393
    O            1.130951141908    -0.784219208074    -0.361926806026
    H            0.491232685718     0.199800799820    -2.023203279918
    H            1.015456025071     1.235949784300    -0.685570842618
    C            2.474881937053    -0.905428271253    -0.699010251106
    H            2.610088896268    -1.022563669532    -1.773532972106
    H            3.047315203214    -0.039253537223    -0.372532479535
    H            2.857850269044    -1.785412092741    -0.200981250076

  Mulliken Charges: (a.u.)
   Center  Symbol    Alpha    Beta     Spin     Total
       1     H     0.43202  0.43202  0.00000  0.13596
       2     C     3.07953  3.07953  0.00000 -0.15906
       3     O     4.29822  4.29822  0.00000 -0.59645
       4     H     0.41100  0.41100  0.00000  0.17800
       5     H     0.42860  0.42860  0.00000  0.14280
       6     C     2.99284  2.99284  0.00000  0.01432
       7     C     2.99322  2.99322  0.00000  0.01356
       8     H     0.42525  0.42525  0.00000  0.14950
       9     H     0.43220  0.43220  0.00000  0.13560
      10     O     4.29871  4.29871  0.00000 -0.59743
      11     H     0.43228  0.43228  0.00000  0.13545
      12     H     0.42464  0.42464  0.00000  0.15072
      13     C     3.07933  3.07933  0.00000 -0.15867
      14     H     0.43232  0.43232  0.00000  0.13536
      15     H     0.42875  0.42875  0.00000  0.14250
      16     H     0.41108  0.41108  0.00000  0.17783

   Total alpha = 25.00000, Total beta = 25.00000, Total charge = -0.00000
