                              Psi4 1.0.54 Driver

  ==> Input File <==

--------------------------------------------------------------------------
set {
	reference rhf
	basis cc-pvtz
}

set_num_threads( 4 )
memory 2 gb

molecule MOL {
0 1

H	 1.155331	 -0.329582	 0.719029
C	 0.848385	 0.440008	 0.000011
C	 -0.623497	 0.751021	 0.000090
O	 1.651396	 0.954658	 -0.698239
C	 -1.523725	 -0.474323	 -0.000013
H	 -0.813143	 1.382932	 -0.864897
H	 -0.813071	 1.382716	 0.865253
H	 -1.342980	 -1.087348	 -0.873016
H	 -2.565269	 -0.177464	 0.000070
H	 -1.342898	 -1.087564	 0.872820

	symmetry c1
}
set optking {
	frozen_dihedral = ("
		4 2 3 6
	")
}

ee,wfn = optimize('scf', return_wfn=True)
oeprop( wfn, 'DIPOLE', 'QUADRUPOLE', 'MULLIKEN_CHARGES')
f=open( 'psi4out.xyz', 'w' )
f.write( "10  " )
f.write( str(ee) + "\n" )
f.write( MOL.save_string_xyz() )
f.close()
--------------------------------------------------------------------------

    Molecular point group: c1
  Charge       = 0
  Multiplicity = 1
  Basis Set: CC-PVTZ
  Basis Set:
  @DF-RHF Final Energy:  -192.02274973468559
    Total Energy =                       -192.0227497346857035
    Molecular point group: c1
  Basis Set: CC-PVTZ
  Basis Set:
  Basis Set: CC-PVTZ
  Basis Set:
  @DF-RHF Final Energy:  -192.02302670727525
    Total Energy =                       -192.0230267072751644
  Basis Set: CC-PVTZ
  Basis Set:
  Basis Set: CC-PVTZ
  Basis Set:
  @DF-RHF Final Energy:  -192.02318476197411
    Total Energy =                       -192.0231847619741075
  Basis Set: CC-PVTZ
  Basis Set:
  Basis Set: CC-PVTZ
  Basis Set:
  @DF-RHF Final Energy:  -192.02325292562725
    Total Energy =                       -192.0232529256272755
  Basis Set: CC-PVTZ
  Basis Set:
  Charge       = 0
  Multiplicity = 1
  Basis Set: CC-PVTZ
  Basis Set:

    Orbital Energies (a.u.)
    -----------------------

    Doubly Occupied:

       1A    -20.553426     2A    -11.322916     3A    -11.238414
       4A    -11.232059     5A     -1.408479     6A     -1.068443
       7A     -0.904764     8A     -0.795675     9A     -0.674400
      10A     -0.644063    11A     -0.622369    12A     -0.565583
      13A     -0.545702    14A     -0.518877    15A     -0.497978
      16A     -0.415132

  @DF-RHF Final Energy:  -192.02325908323320

   => Energetics <=

    Nuclear Repulsion Energy =            117.4467866858416869
    One-Electron Energy =                -492.9235295513830124
    Two-Electron Energy =                 183.4534837823080693
    DFT Exchange-Correlation Energy =       0.0000000000000000
    Empirical Dispersion Energy =           0.0000000000000000
    PCM Polarization Energy =               0.0000000000000000
    EFP Energy =                            0.0000000000000000
    Total Energy =                       -192.0232590832332562
    Molecular point group: c1
  Basis Set: CC-PVTZ
  Basis Set:

  -Total Gradient:
     Atom            X                  Y                   Z
    ------   -----------------  -----------------  -----------------
       1       -0.000006063979    -0.000020590202     0.000013161645
       2       -0.000174265231    -0.000648248286    -0.000582805999
       3        0.000158364742     0.000624190916     0.000469261863
       4        0.000091549020     0.000426845306     0.000364337051
       5        0.000055397187     0.000052946206    -0.000042150299
       6       -0.000114705299    -0.000480287845    -0.000263281778
       7        0.000026288334     0.000038010277     0.000055170849
       8       -0.000037871306    -0.000028296848    -0.000003764596
       9       -0.000009940278     0.000007094037    -0.000006538146
      10        0.000011246814     0.000028336438    -0.000003390591

  **** Optimization is complete! (in 5 steps) ****
    Final optimized geometry and variables:
    Molecular point group: c1

    Geometry (in Angstrom), charge = 0, multiplicity = 1:

    H            1.045848149806    -0.728507403248     0.929051067357
    C            0.751787508829     0.025156227510     0.186257409175
    C           -0.714075994552     0.365724911325     0.167043435980
    O            1.566905450055     0.514735980416    -0.515635182734
    C           -1.600482879588    -0.878622306860     0.179841857758
    H           -0.909175575104     0.984028285127    -0.698443620615
    H           -0.910598960098     0.962336777334     1.054997503753
    H           -1.443649817627    -1.480508031865    -0.707702503360
    H           -2.645617435066    -0.599895775876     0.212143626751
    H           -1.397082011000    -1.499236865709     1.045419635793

  Mulliken Charges: (a.u.)
   Center  Symbol    Alpha    Beta     Spin     Total
       1     H     0.46692  0.46692  0.00000  0.06616
       2     C     2.90016  2.90016  0.00000  0.19968
       3     C     3.08097  3.08097  0.00000 -0.16194
       4     O     4.16336  4.16336  0.00000 -0.32671
       5     C     3.15162  3.15162  0.00000 -0.30325
       6     H     0.44130  0.44130  0.00000  0.11741
       7     H     0.44959  0.44959  0.00000  0.10082
       8     H     0.44834  0.44834  0.00000  0.10331
       9     H     0.44413  0.44413  0.00000  0.11173
      10     H     0.45361  0.45361  0.00000  0.09277

   Total alpha = 16.00000, Total beta = 16.00000, Total charge = -0.00000

*** Psi4 exiting successfully. Buy a developer a beer!
