  ==> Input File <==

--------------------------------------------------------------------------
set {
	reference rhf
	basis 6-31G*
}

set_num_threads( 1 )
memory 2 gb

molecule MOL {
0 1

H	 1.136379	 0.211822	 1.465562
C	 1.135357	 0.094285	 0.374742
C	 0.065331	 0.871482	 -0.349150
O	 1.941633	 -0.601957	 -0.151457
C	 -0.084000	 2.302199	 0.187720
H	 -0.865724	 0.321328	 -0.275802
H	 0.350255	 0.910314	 -1.399612
C	 -0.616975	 2.357821	 1.619944
H	 -0.753700	 2.848151	 -0.469129
H	 0.876101	 2.810931	 0.132597
H	 -1.591890	 1.885443	 1.690131
H	 -0.719096	 3.385028	 1.954209
H	 0.043777	 1.849074	 2.315627

	symmetry c1
}
set optking {
	frozen_dihedral = ("
		6 3 5 9
	")
}

ee = energy('scf')
oeprop('DIPOLE', 'QUADRUPOLE', 'MULLIKEN_CHARGES')
f=open( 'psi4out.xyz', 'w' )
f.write( "13  " )
f.write( str(ee) + "\n" )
f.write( MOL.save_string_xyz() )
f.close()
--------------------------------------------------------------------------

    Molecular point group: c1

    Geometry (in Angstrom), charge = 0, multiplicity = 1:

       Center              X                  Y                   Z               Mass
    ------------   -----------------  -----------------  -----------------  -----------------
           H          0.643481242315    -0.790357614752     1.118166246482     1.007825032070
           C          0.642459242315    -0.907894614752     0.027346246482    12.000000000000
           C         -0.427566757685    -0.130697614752    -0.696545753518    12.000000000000
           O          1.448735242315    -1.604136614752    -0.498852753518    15.994914619560
           C         -0.576897757685     1.300019385248    -0.159675753518    12.000000000000
           H         -1.358621757685    -0.680851614752    -0.623197753518     1.007825032070
           H         -0.142642757685    -0.091865614752    -1.747007753518     1.007825032070
           C         -1.109872757685     1.355641385248     1.272548246482    12.000000000000
           H         -1.246597757685     1.845971385248    -0.816524753518     1.007825032070
           H          0.383203242315     1.808751385248    -0.214798753518     1.007825032070
           H         -2.084787757685     0.883263385248     1.342735246482     1.007825032070
           H         -1.211993757685     2.382848385248     1.606813246482     1.007825032070
           H         -0.449120757685     0.846894385248     1.968231246482     1.007825032070

  Charge       = 0
  Multiplicity = 1
  Basis Set: 6-31G*
  Basis Set:

    Orbital Energies (a.u.)
    -----------------------

    Doubly Occupied:

       1A    -20.562516     2A    -11.326249     3A    -11.238789
       4A    -11.235677     5A    -11.225686     6A     -1.402358
       7A     -1.088667     8A     -0.973050     9A     -0.853916
      10A     -0.785404    11A     -0.673419    12A     -0.650658
      13A     -0.608730    14A     -0.595900    15A     -0.581300
      16A     -0.528579    17A     -0.508197    18A     -0.491803
      19A     -0.486723    20A     -0.407635

  @DF-RHF Final Energy:  -230.98181706825292

   => Energetics <=

    Nuclear Repulsion Energy =            172.8696191389523449
    One-Electron Energy =                -655.2523826468259358
    Two-Electron Energy =                 251.4009464396210092
    DFT Exchange-Correlation Energy =       0.0000000000000000
    Empirical Dispersion Energy =           0.0000000000000000
    PCM Polarization Energy =               0.0000000000000000
    EFP Energy =                            0.0000000000000000
    Total Energy =                       -230.9818170682526102

  Mulliken Charges: (a.u.)
   Center  Symbol    Alpha    Beta     Spin     Total
       1     H     0.43122  0.43122  0.00000  0.13756
       2     C     2.83029  2.83029  0.00000  0.33941
       3     C     3.21000  3.21000  0.00000 -0.42000
       4     O     4.23870  4.23870  0.00000 -0.47739
       5     C     3.16628  3.16628  0.00000 -0.33255
       6     H     0.40459  0.40459  0.00000  0.19081
       7     H     0.39865  0.39865  0.00000  0.20270
       8     C     3.24579  3.24579  0.00000 -0.49158
       9     H     0.41078  0.41078  0.00000  0.17843
      10     H     0.41369  0.41369  0.00000  0.17262
      11     H     0.41815  0.41815  0.00000  0.16371
      12     H     0.41311  0.41311  0.00000  0.17378
      13     H     0.41875  0.41875  0.00000  0.16250

   Total alpha = 20.00000, Total beta = 20.00000, Total charge =  0.00000
