  ==> Input File <==

--------------------------------------------------------------------------
set {
	reference rhf
	basis cc-pvtz
}

set_num_threads( 4 )
memory 2 gb

molecule MOL {
0 1

H	 -1.067497	 -0.931713	 -0.125981
N	 -0.712187	 0.000026	 -0.093397
C	 0.734067	 -0.000020	 0.038424
H	 -1.141472	 0.451232	 0.686071
H	 1.140372	 -0.872115	 -0.458226
H	 1.140363	 0.872301	 -0.457869
H	 1.095085	 -0.000244	 1.065614

	symmetry c1
}
set optking {
	frozen_dihedral = ("
		1 2 3 7
	")
}

ee = optimize('scf')
oeprop('DIPOLE', 'QUADRUPOLE', 'MULLIKEN_CHARGES')
f=open( 'psi4out.xyz', 'w' )
f.write( "7  " )
f.write( str(ee) + "\n" )
f.write( MOL.save_string_xyz() )
f.close()
--------------------------------------------------------------------------

    Molecular point group: c1
  Charge       = 0
  Multiplicity = 1
  Basis Set: CC-PVTZ
  Basis Set:
  @DF-RHF Final Energy:   -95.25195312256571
    Total Energy =                        -95.2519531225657090
    Molecular point group: c1
  Basis Set: CC-PVTZ
  Basis Set:
  Basis Set: CC-PVTZ
  Basis Set:
  @DF-RHF Final Energy:   -95.25210401831760
    Total Energy =                        -95.2521040183175813
  Basis Set: CC-PVTZ
  Basis Set:
  Basis Set: CC-PVTZ
  Basis Set:
  @DF-RHF Final Energy:   -95.25213479610856
    Total Energy =                        -95.2521347961085780
  Basis Set: CC-PVTZ
  Basis Set:
  Charge       = 0
  Multiplicity = 1
  Basis Set: CC-PVTZ
  Basis Set:

    Orbital Energies (a.u.)
    -----------------------

    Doubly Occupied:

       1A    -15.526376     2A    -11.235417     3A     -1.169868
       4A     -0.897404     5A     -0.667840     6A     -0.600399
       7A     -0.560019     8A     -0.519235     9A     -0.382389

  @DF-RHF Final Energy:   -95.25213611650874

   => Energetics <=

    Nuclear Repulsion Energy =             42.3609911870159266
    One-Electron Energy =                -212.1083589142286883
    Two-Electron Energy =                  74.4952316107039820
    DFT Exchange-Correlation Energy =       0.0000000000000000
    Empirical Dispersion Energy =           0.0000000000000000
    PCM Polarization Energy =               0.0000000000000000
    EFP Energy =                            0.0000000000000000
    Total Energy =                        -95.2521361165087654
    Molecular point group: c1
  Basis Set: CC-PVTZ
  Basis Set:

  -Total Gradient:
     Atom            X                  Y                   Z
    ------   -----------------  -----------------  -----------------
       1        0.000265706369     0.000023474311    -0.002795880099
       2       -0.000461846851     0.000819605510     0.003496023026
       3        0.000278104211    -0.003478556184    -0.000692268805
       4        0.000012291895    -0.000005217578    -0.000003979178
       5       -0.000010089269     0.000015549336    -0.000000470090
       6       -0.000042891769    -0.000001469963     0.000002487568
       7       -0.000041274584     0.002626614567    -0.000005912423

  **** Optimization is complete! (in 4 steps) ****
    Final optimized geometry and variables:
    Molecular point group: c1

    Geometry (in Angstrom), charge = 0, multiplicity = 1:

    H           -1.076011622760    -0.916653416472    -0.114179088958
    N           -0.713561985076     0.009961541120    -0.080621635442
    C            0.735508505846     0.017826849252     0.035304093193
    H           -1.154236807360     0.494389330221     0.669494257050
    H            1.149372838733    -0.844115933634    -0.471273064420
    H            1.141875226982     0.900383816027    -0.445527953496
    H            1.095906748709     0.015325822302     1.061311302377

  Mulliken Charges: (a.u.)
   Center  Symbol    Alpha    Beta     Spin     Total
       1     H     0.42632  0.42632  0.00000  0.14736
       2     N     3.69026  3.69026  0.00000 -0.38052
       3     C     3.06896  3.06896  0.00000 -0.13791
       4     H     0.42721  0.42721  0.00000  0.14557
       5     H     0.45817  0.45817  0.00000  0.08367
       6     H     0.45914  0.45914  0.00000  0.08173
       7     H     0.46995  0.46995  0.00000  0.06011

   Total alpha =  9.00000, Total beta =  9.00000, Total charge =  0.00000
