  ==> Input File <==

--------------------------------------------------------------------------
set {
	reference rhf
	basis 6-31G*
}

set_num_threads( 1 )
memory 2 gb

molecule MOL {
0 1

H	 0.421258	 -0.334916	 -2.100556
O	 -0.043608	 0.475453	 -2.258847
C	 -0.049598	 1.234298	 -1.084930
C	 -0.793441	 0.596080	 0.058728
H	 -0.514199	 2.180304	 -1.338748
H	 0.967018	 1.462696	 -0.766573
C	 -1.530462	 -0.493172	 -0.025500
H	 -0.692814	 1.102648	 1.006222
H	 -1.092586	 -1.461565	 -0.186463
H	 -2.602122	 -0.450675	 0.050101

	symmetry c1
}
set optking {
	frozen_dihedral = ("
		5 3 2 1,
		5 3 4 7
	")
}

ee = energy('scf')
oeprop('DIPOLE', 'QUADRUPOLE', 'MULLIKEN_CHARGES')
f=open( 'psi4out.xyz', 'w' )
f.write( "10  " )
f.write( str(ee) + "\n" )
f.write( MOL.save_string_xyz() )
f.close()
--------------------------------------------------------------------------

    Molecular point group: c1

    Geometry (in Angstrom), charge = 0, multiplicity = 1:

       Center              X                  Y                   Z               Mass
    ------------   -----------------  -----------------  -----------------  -----------------
           H          0.984996883348    -0.785786160795    -1.202710789263     1.007825032070
           O          0.520130883348     0.024582839205    -1.361001789263    15.994914619560
           C          0.514140883348     0.783427839205    -0.187084789263    12.000000000000
           C         -0.229702116652     0.145209839205     0.956573210737    12.000000000000
           H          0.049539883348     1.729433839205    -0.440902789263     1.007825032070
           H          1.530756883348     1.011825839205     0.131272210737     1.007825032070
           C         -0.966723116652    -0.944042160795     0.872345210737    12.000000000000
           H         -0.129075116652     0.651777839205     1.904067210737     1.007825032070
           H         -0.528847116652    -1.912435160795     0.711382210737     1.007825032070
           H         -2.038383116652    -0.901545160795     0.947946210737     1.007825032070

  Charge       = 0
  Multiplicity = 1
  Basis Set: 6-31G*
  Basis Set:

    Orbital Energies (a.u.)
    -----------------------

    Doubly Occupied:

       1A    -20.558335     2A    -11.281126     3A    -11.237219
       4A    -11.217812     5A     -1.367260     6A     -1.059901
       7A     -0.929339     8A     -0.769493     9A     -0.688073
      10A     -0.645051    11A     -0.612965    12A     -0.579371
      13A     -0.568269    14A     -0.499019    15A     -0.451418
      16A     -0.282515

  @DF-RHF Final Energy:  -191.80400219730708

   => Energetics <=

    Nuclear Repulsion Energy =            119.1849646995466685
    One-Electron Energy =                -496.4836197724828253
    Two-Electron Energy =                 185.4946528756290718
    DFT Exchange-Correlation Energy =       0.0000000000000000
    Empirical Dispersion Energy =           0.0000000000000000
    PCM Polarization Energy =               0.0000000000000000
    EFP Energy =                            0.0000000000000000
    Total Energy =                       -191.8040021973071134

  Mulliken Charges: (a.u.)
   Center  Symbol    Alpha    Beta     Spin     Total
       1     H     0.27977  0.27977  0.00000  0.44046
       2     O     4.36442  4.36442  0.00000 -0.72884
       3     C     2.99663  2.99663  0.00000  0.00674
       4     C     3.09428  3.09428  0.00000 -0.18856
       5     H     0.40162  0.40162  0.00000  0.19676
       6     H     0.43205  0.43205  0.00000  0.13589
       7     C     3.20827  3.20827  0.00000 -0.41655
       8     H     0.40661  0.40661  0.00000  0.18678
       9     H     0.41350  0.41350  0.00000  0.17301
      10     H     0.40285  0.40285  0.00000  0.19430

   Total alpha = 16.00000, Total beta = 16.00000, Total charge = -0.00000
