                              Psi4 1.0.54 Driver

  ==> Input File <==

--------------------------------------------------------------------------
set {
	reference rhf
	basis cc-pvtz
}

set_num_threads( 4 )
memory 2 gb

molecule MOL {
0 1

H	 -3.436473	 1.252944	 -1.023892
O	 -3.458596	 0.315260	 -0.960865
C	 -3.176635	 -0.080824	 0.355601
C	 -1.763371	 0.265266	 0.799691
H	 -3.321825	 -1.153438	 0.379502
H	 -3.895468	 0.357385	 1.043382
C	 -0.673390	 -0.426948	 -0.013392
H	 -1.631049	 1.344913	 0.747560
H	 -1.664587	 -0.001624	 1.849167
C	 0.737842	 -0.043159	 0.423759
H	 -0.806103	 -0.190518	 -1.063345
H	 -0.797221	 -1.503753	 0.074146
C	 1.824000	 -0.743224	 -0.390623
H	 0.850588	 1.033777	 0.343840
H	 0.868587	 -0.286314	 1.476203
C	 3.255957	 -0.453067	 0.062319
H	 1.718250	 -0.470599	 -1.438164
H	 1.658105	 -1.815850	 -0.339904
C	 4.002014	 0.567248	 -0.794127
H	 3.813007	 -1.384963	 0.055948
H	 3.243675	 -0.115615	 1.095467
H	 4.025253	 0.259072	 -1.834590
H	 5.027623	 0.673522	 -0.459353
H	 3.542909	 1.547491	 -0.749955

	symmetry c1
}
set optking {
	frozen_dihedral = ("
		20 16 13 17
	")
}

ee,wfn = optimize('scf', return_wfn=True)
oeprop( wfn, 'DIPOLE', 'QUADRUPOLE', 'MULLIKEN_CHARGES')
f=open( 'psi4out.xyz', 'w' )
f.write( "24  " )
f.write( str(ee) + "\n" )
f.write( MOL.save_string_xyz() )
f.close()
--------------------------------------------------------------------------

    Molecular point group: c1
  Charge       = 0
  Multiplicity = 1
  Basis Set: CC-PVTZ
  Basis Set:
  @DF-RHF Final Energy:  -349.37711904403653
    Total Energy =                       -349.3771190440358509
    Molecular point group: c1
  Basis Set: CC-PVTZ
  Basis Set:
  Basis Set: CC-PVTZ
  Basis Set:
  @DF-RHF Final Energy:  -349.26901014262523
    Total Energy =                       -349.2690101426248930
  Basis Set: CC-PVTZ
  Basis Set:
  Basis Set: CC-PVTZ
  Basis Set:
  @DF-RHF Final Energy:  -349.35544940764919
    Total Energy =                       -349.3554494076497576
  Basis Set: CC-PVTZ
  Basis Set:
  Basis Set: CC-PVTZ
  Basis Set:
  @DF-RHF Final Energy:  -349.37731879475041
    Total Energy =                       -349.3773187947501810
  Basis Set: CC-PVTZ
  Basis Set:
  @DF-RHF Final Energy:  -349.37781914409373
    Total Energy =                       -349.3778191440935643
  Basis Set: CC-PVTZ
  Basis Set:
  @DF-RHF Final Energy:  -349.37786714497577
    Total Energy =                       -349.3778671449758235
  Basis Set: CC-PVTZ
  Basis Set:
  Basis Set: CC-PVTZ
  Basis Set:
  @DF-RHF Final Energy:  -349.37787068144638
    Total Energy =                       -349.3778706814464954
  Basis Set: CC-PVTZ
  Basis Set:
  Basis Set: CC-PVTZ
  Basis Set:
  @DF-RHF Final Energy:  -349.37787249340397
    Total Energy =                       -349.3778724934044249
  Basis Set: CC-PVTZ
  Basis Set:
  Charge       = 0
  Multiplicity = 1
  Basis Set: CC-PVTZ
  Basis Set:

    Orbital Energies (a.u.)
    -----------------------

    Doubly Occupied:

       1A    -20.546329     2A    -11.265543     3A    -11.215234
       4A    -11.211474     5A    -11.210704     6A    -11.209104
       7A    -11.208825     8A    -11.206068     9A     -1.364181
      10A     -1.089352    11A     -1.049068    12A     -0.987847
      13A     -0.914941    14A     -0.846386    15A     -0.800017
      16A     -0.784498    17A     -0.681835    18A     -0.654940
      19A     -0.625533    20A     -0.619654    21A     -0.599043
      22A     -0.584347    23A     -0.558644    24A     -0.537700
      25A     -0.522703    26A     -0.510416    27A     -0.494668
      28A     -0.473748    29A     -0.468134    30A     -0.460165
      31A     -0.457038    32A     -0.451862    33A     -0.420431

  @DF-RHF Final Energy:  -349.37787263798879

   => Energetics <=

    Nuclear Repulsion Energy =            383.5345482287152095
    One-Electron Energy =               -1233.7639778194916289
    Two-Electron Energy =                 500.8515569527882008
    DFT Exchange-Correlation Energy =       0.0000000000000000
    Empirical Dispersion Energy =           0.0000000000000000
    PCM Polarization Energy =               0.0000000000000000
    EFP Energy =                            0.0000000000000000
    Total Energy =                       -349.3778726379881618
    Molecular point group: c1
  Basis Set: CC-PVTZ
  Basis Set:

  -Total Gradient:
     Atom            X                  Y                   Z
    ------   -----------------  -----------------  -----------------
       1       -0.000001143044    -0.000005563700     0.000001561914
       2        0.000008246946    -0.000013997078    -0.000010032537
       3        0.000007554694     0.000033149168     0.000017734878
       4       -0.000014618205    -0.000031940733    -0.000002075821
       5        0.000003671974     0.000001304212    -0.000006278710
       6        0.000009300019    -0.000006737841    -0.000009340838
       7        0.000010326142    -0.000000486334     0.000017229152
       8       -0.000005740309    -0.000009404214     0.000000543853
       9        0.000010698330     0.000003799498    -0.000003644528
      10       -0.000002025590     0.000013411267    -0.000017797916
      11        0.000006042696     0.000002171727     0.000005935906
      12       -0.000005855451     0.000003049238    -0.000002761644
      13       -0.000012698580    -0.003776873845    -0.000932166608
      14        0.000001401332     0.000000011516     0.000001964721
      15       -0.000006478902     0.000011830430    -0.000008115406
      16        0.000063651567     0.001715591422    -0.003523818357
      17        0.000011504584     0.002902984435     0.001376982078
      18        0.000002070573    -0.000002649517    -0.000006687587
      19       -0.000002182107     0.000008393404    -0.000014240161
      20       -0.000067949560    -0.000837658797     0.003115406471
      21       -0.000009479047    -0.000003155547    -0.000007257723
      22        0.000008769098     0.000004471484     0.000010074054
      23       -0.000018781243    -0.000000259163     0.000002374164
      24        0.000003714086    -0.000011441030    -0.000005589357

  **** Optimization is complete! (in 9 steps) ****
    Final optimized geometry and variables:
    Molecular point group: c1

    Geometry (in Angstrom), charge = 0, multiplicity = 1:

    H           -3.031683480279     2.260779304752     0.238672048478
    O           -3.316976021589     1.366359056108     0.190785386863
    C           -2.868997022796     0.662243719845     1.318955769084
    C           -1.354340441746     0.540394362493     1.391141794183
    H           -3.318431529900    -0.320435827311     1.251760860226
    H           -3.244035490259     1.127098944535     2.227253796491
    C           -0.740624676164    -0.232980369764     0.227688130432
    H           -0.921347717652     1.538522324882     1.437620038096
    H           -1.099053855604     0.055624162804     2.330351134627
    C            0.781073654291    -0.317006006449     0.297584914328
    H           -1.037673490444     0.230993427266    -0.706277759335
    H           -1.155745469513    -1.238180202882     0.213506054026
    C            1.396927509411    -1.114228113474    -0.852291078240
    H            1.195964742856     0.688590823030     0.301091918011
    H            1.075751052810    -0.768985197627     1.241746888211
    C            2.934961930461    -1.128836548196    -0.827394828719
    H            1.056148481646    -0.674197116999    -1.785458935722
    H            1.011557510383    -2.127934894427    -0.823539068323
    C            3.573907527078    -0.083623479526    -1.736036598883
    H            3.299889273604    -2.116391015920    -1.089050286176
    H            3.273205494279    -0.964379715797     0.192016900966
    H            3.322635218333    -0.265440569214    -2.775431782525
    H            4.654504588455    -0.094013601417    -1.649140557160
    H            3.233097721286     0.915704434236    -1.485604638884

  Mulliken Charges: (a.u.)
   Center  Symbol    Alpha    Beta     Spin     Total
       1     H     0.39531  0.39531  0.00000  0.20939
       2     O     4.20364  4.20364  0.00000 -0.40728
       3     C     2.97777  2.97777  0.00000  0.04447
       4     C     3.10187  3.10187  0.00000 -0.20374
       5     H     0.45889  0.45889  0.00000  0.08222
       6     H     0.46020  0.46020  0.00000  0.07961
       7     C     3.08900  3.08900  0.00000 -0.17799
       8     H     0.45919  0.45919  0.00000  0.08162
       9     H     0.45331  0.45331  0.00000  0.09338
      10     C     3.08914  3.08914  0.00000 -0.17827
      11     H     0.44597  0.44597  0.00000  0.10807
      12     H     0.45538  0.45538  0.00000  0.08925
      13     C     3.09464  3.09464  0.00000 -0.18927
      14     H     0.45494  0.45494  0.00000  0.09012
      15     H     0.45560  0.45560  0.00000  0.08880
      16     C     3.09080  3.09080  0.00000 -0.18160
      17     H     0.45543  0.45543  0.00000  0.08915
      18     H     0.44768  0.44768  0.00000  0.10465
      19     C     3.14741  3.14741  0.00000 -0.29481
      20     H     0.44818  0.44818  0.00000  0.10365
      21     H     0.45632  0.45632  0.00000  0.08736
      22     H     0.45453  0.45453  0.00000  0.09095
      23     H     0.44916  0.44916  0.00000  0.10167
      24     H     0.45568  0.45568  0.00000  0.08864

   Total alpha = 33.00000, Total beta = 33.00000, Total charge = -0.00000

*** Psi4 exiting successfully. Buy a developer a beer!
