  ==> Input File <==

--------------------------------------------------------------------------
set {
	reference rhf
	basis 6-31G*
}

set_num_threads( 4 )
memory 2 gb

molecule MOL {
0 1

H	 3.893188	 0.355400	 -0.101367
N	 3.092854	 -0.246221	 -0.068770
C	 1.865559	 0.531981	 0.018834
H	 3.199514	 -0.826043	 0.741946
C	 0.645745	 -0.382037	 -0.029944
H	 1.841966	 1.207024	 -0.831236
H	 1.815756	 1.155410	 0.915079
C	 -0.679275	 0.379305	 0.025956
H	 0.698998	 -0.976915	 -0.937203
H	 0.693479	 -1.083846	 0.802235
C	 -0.791153	 1.473151	 -1.037697
H	 -0.797011	 0.826634	 1.011798
H	 -1.506298	 -0.319279	 -0.091774
C	 -2.115055	 2.234023	 -0.975523
H	 0.033362	 2.173024	 -0.921214
H	 -0.676491	 1.028719	 -2.024099
H	 -2.243718	 2.718807	 -0.011807
H	 -2.163946	 3.002377	 -1.740928
H	 -2.958889	 1.565841	 -1.123406

	symmetry c1
}
set optking {
	frozen_dihedral = ("
		12 8 5 9
	")
}

ee = optimize('scf')
oeprop('DIPOLE', 'QUADRUPOLE', 'MULLIKEN_CHARGES')
f=open( 'psi4out.xyz', 'w' )
f.write( "19  " )
f.write( str(ee) + "\n" )
f.write( MOL.save_string_xyz() )
f.close()
--------------------------------------------------------------------------

    Molecular point group: c1
  Charge       = 0
  Multiplicity = 1
  Basis Set: 6-31G*
  Basis Set:
  @DF-RHF Final Energy:  -251.34837098701590
    Total Energy =                       -251.3483709870156986
    Molecular point group: c1
  Basis Set: 6-31G*
  Basis Set:
  Basis Set: 6-31G*
  Basis Set:
  @DF-RHF Final Energy:  -251.34914700495730
    Total Energy =                       -251.3491470049572172
  Basis Set: 6-31G*
  Basis Set:
  Basis Set: 6-31G*
  Basis Set:
  @DF-RHF Final Energy:  -251.34981422407944
    Total Energy =                       -251.3498142240792959
  Basis Set: 6-31G*
  Basis Set:
  Basis Set: 6-31G*
  Basis Set:
  @DF-RHF Final Energy:  -251.34987551850753
    Total Energy =                       -251.3498755185076448
  Basis Set: 6-31G*
  Basis Set:
  Basis Set: 6-31G*
  Basis Set:
  @DF-RHF Final Energy:  -251.34987813598221
    Total Energy =                       -251.3498781359821805
  Basis Set: 6-31G*
  Basis Set:
  Basis Set: 6-31G*
  Basis Set:
  @DF-RHF Final Energy:  -251.34988277702865
    Total Energy =                       -251.3498827770286539
  Basis Set: 6-31G*
  Basis Set:
  Charge       = 0
  Multiplicity = 1
  Basis Set: 6-31G*
  Basis Set:

    Orbital Energies (a.u.)
    -----------------------

    Doubly Occupied:

       1A    -15.532500     2A    -11.239444     3A    -11.214201
       4A    -11.212955     5A    -11.209816     6A    -11.207886
       7A     -1.176686     8A     -1.072395     9A     -0.996495
      10A     -0.899281    11A     -0.831073    12A     -0.773533
      13A     -0.664751    14A     -0.636646    15A     -0.614200
      16A     -0.593815    17A     -0.570317    18A     -0.550293
      19A     -0.525424    20A     -0.500319    21A     -0.489901
      22A     -0.460824    23A     -0.456114    24A     -0.447891
      25A     -0.381010

  @DF-RHF Final Energy:  -251.34988347288973

   => Energetics <=

    Nuclear Repulsion Energy =            249.1122471575511952
    One-Electron Energy =                -832.4087228810993793
    Two-Electron Energy =                 331.9465922506586821
    DFT Exchange-Correlation Energy =       0.0000000000000000
    Empirical Dispersion Energy =           0.0000000000000000
    PCM Polarization Energy =               0.0000000000000000
    EFP Energy =                            0.0000000000000000
    Total Energy =                       -251.3498834728894735
    Molecular point group: c1
  Basis Set: 6-31G*
  Basis Set:

  -Total Gradient:
     Atom            X                  Y                   Z
    ------   -----------------  -----------------  -----------------
       1       -0.000004093162     0.000001180456     0.000005700307
       2        0.000001862199    -0.000002947202     0.000018764670
       3       -0.000019731826    -0.000008885020    -0.000047041413
       4        0.000007823849    -0.000004778266     0.000002570040
       5        0.000761123122     0.001387180555    -0.000970667985
       6       -0.000012406428     0.000008217163    -0.000003407566
       7       -0.000000367090    -0.000010319659    -0.000002269306
       8        0.000859227867     0.001489180319    -0.000499584256
       9       -0.000746685789    -0.001382537991     0.000870297357
      10        0.000002970804    -0.000000305057     0.000008979012
      11        0.000023324317     0.000009585275     0.000041193210
      12       -0.000862347459    -0.001456965835     0.000581266502
      13       -0.000011751999     0.000004918969    -0.000005177036
      14       -0.000013221129    -0.000019142172    -0.000009115751
      15        0.000025384565    -0.000000598681    -0.000004391116
      16       -0.000009635543    -0.000006341976     0.000019857240
      17        0.000009749443    -0.000011648280    -0.000004078714
      18        0.000005053662     0.000000461424     0.000003387245
      19       -0.000016279399     0.000003745979    -0.000006282439

  **** Optimization is complete! (in 7 steps) ****
    Final optimized geometry and variables:
    Molecular point group: c1

    Geometry (in Angstrom), charge = 0, multiplicity = 1:

    H            3.580315931858    -0.473961692155     0.315016153757
    N            2.740288046129    -1.019225123482     0.336295311337
    C            1.565522962848    -0.159438109632     0.333159763523
    H            2.772159860999    -1.569455623505     1.173504039166
    C            0.296468944264    -1.003401997638     0.260286191735
    H            1.635793489413     0.481949785136    -0.538113523829
    H            1.511920424786     0.498751636797     1.204801095562
    C           -1.013350830941    -0.213629081152     0.358326013314
    H            0.314196157128    -1.590713656407    -0.653480474538
    H            0.318320526226    -1.725058628302     1.075998155027
    C           -1.201720662131     0.870379833371    -0.705972535138
    H           -1.099182259052     0.227954096954     1.350204082449
    H           -1.837243695378    -0.920484986436     0.281699569721
    C           -2.583144817675     1.521637085865    -0.642376994338
    H           -0.442951216876     1.640049649508    -0.593446726906
    H           -1.052503335947     0.435054612827    -1.692110545146
    H           -2.753759228341     1.984072024290     0.325900756816
    H           -2.690667851311     2.291968633847    -1.399806972951
    H           -3.369799801603     0.789392164479    -0.800789380951

  Mulliken Charges: (a.u.)
   Center  Symbol    Alpha    Beta     Spin     Total
       1     H     0.33243  0.33243  0.00000  0.33513
       2     N     3.92225  3.92225  0.00000 -0.84449
       3     C     3.06228  3.06228  0.00000 -0.12455
       4     H     0.33535  0.33535  0.00000  0.32930
       5     C     3.15151  3.15151  0.00000 -0.30302
       6     H     0.41854  0.41854  0.00000  0.16292
       7     H     0.43528  0.43528  0.00000  0.12944
       8     C     3.15583  3.15583  0.00000 -0.31166
       9     H     0.41397  0.41397  0.00000  0.17206
      10     H     0.42623  0.42623  0.00000  0.14754
      11     C     3.15429  3.15429  0.00000 -0.30857
      12     H     0.42477  0.42477  0.00000  0.15045
      13     H     0.42134  0.42134  0.00000  0.15733
      14     C     3.23908  3.23908  0.00000 -0.47815
      15     H     0.42200  0.42200  0.00000  0.15600
      16     H     0.42171  0.42171  0.00000  0.15657
      17     H     0.42214  0.42214  0.00000  0.15573
      18     H     0.41942  0.41942  0.00000  0.16116
      19     H     0.42159  0.42159  0.00000  0.15682

   Total alpha = 25.00000, Total beta = 25.00000, Total charge = -0.00000
