  ==> Input File <==

--------------------------------------------------------------------------
set {
	reference rhf
	basis 6-31G*
}

set_num_threads( 4 )
memory 2 gb

molecule MOL {
0 1

H	 -1.034211	 -0.880319	 -0.448908
N	 -0.712432	 0.000013	 -0.096310
C	 0.734192	 -0.000004	 0.040609
H	 -1.151812	 0.134800	 0.793429
H	 1.139899	 -0.873598	 -0.456463
H	 1.139939	 0.873831	 -0.456100
H	 1.096456	 -0.000300	 1.069655

	symmetry c1
}
set optking {
	frozen_dihedral = ("
		1 2 3 7
	")
}

ee = optimize('scf')
oeprop('DIPOLE', 'QUADRUPOLE', 'MULLIKEN_CHARGES')
f=open( 'psi4out.xyz', 'w' )
f.write( "7  " )
f.write( str(ee) + "\n" )
f.write( MOL.save_string_xyz() )
f.close()
--------------------------------------------------------------------------

    Molecular point group: c1
  Charge       = 0
  Multiplicity = 1
  Basis Set: 6-31G*
  Basis Set:
  @DF-RHF Final Energy:   -95.20571186905647
    Total Energy =                        -95.2057118690565147
    Molecular point group: c1
  Basis Set: 6-31G*
  Basis Set:
  Basis Set: 6-31G*
  Basis Set:
  @DF-RHF Final Energy:   -95.20613466043724
    Total Energy =                        -95.2061346604372432
  Basis Set: 6-31G*
  Basis Set:
  Basis Set: 6-31G*
  Basis Set:
  @DF-RHF Final Energy:   -95.20625773545640
    Total Energy =                        -95.2062577354564326
  Basis Set: 6-31G*
  Basis Set:
  Basis Set: 6-31G*
  Basis Set:
  @DF-RHF Final Energy:   -95.20625930823817
    Total Energy =                        -95.2062593082382307
  Basis Set: 6-31G*
  Basis Set:
  Charge       = 0
  Multiplicity = 1
  Basis Set: 6-31G*
  Basis Set:

    Orbital Energies (a.u.)
    -----------------------

    Doubly Occupied:

       1A    -15.531402     2A    -11.237291     3A     -1.166638
       4A     -0.897264     5A     -0.664958     6A     -0.598527
       7A     -0.559266     8A     -0.519502     9A     -0.377755

  @DF-RHF Final Energy:   -95.20625954742135

   => Energetics <=

    Nuclear Repulsion Energy =             42.2552948006127380
    One-Electron Energy =                -211.8179046081299646
    Two-Electron Energy =                  74.3563502600959225
    DFT Exchange-Correlation Energy =       0.0000000000000000
    Empirical Dispersion Energy =           0.0000000000000000
    PCM Polarization Energy =               0.0000000000000000
    EFP Energy =                            0.0000000000000000
    Total Energy =                        -95.2062595474212969
    Molecular point group: c1
  Basis Set: 6-31G*
  Basis Set:

  -Total Gradient:
     Atom            X                  Y                   Z
    ------   -----------------  -----------------  -----------------
       1        0.000122053077     0.000595203461    -0.001587129697
       2       -0.000195087562    -0.000298167720     0.001988488580
       3        0.000098318111    -0.001847377874    -0.000405671148
       4       -0.000007109653    -0.000005219348    -0.000002264006
       5       -0.000012780517     0.000001138937    -0.000003190732
       6        0.000000889287    -0.000014781674    -0.000001736327
       7       -0.000006282743     0.001569204219     0.000011503330

  **** Optimization is complete! (in 5 steps) ****
    Final optimized geometry and variables:
    Molecular point group: c1

    Geometry (in Angstrom), charge = 0, multiplicity = 1:

    H           -1.055048536080    -0.854714692351    -0.424335761904
    N           -0.716731373763     0.017071992306    -0.074128122670
    C            0.737242500752     0.027425358598     0.039183871350
    H           -1.162257517575     0.188704682072     0.803074382144
    H            1.171368997030    -0.835399811920    -0.453873373673
    H            1.148714063044     0.913867383128    -0.432990140201
    H            1.077519594158     0.023789151770     1.071531351421

  Mulliken Charges: (a.u.)
   Center  Symbol    Alpha    Beta     Spin     Total
       1     H     0.33079  0.33079  0.00000  0.33842
       2     N     3.92628  3.92628  0.00000 -0.85256
       3     C     3.14480  3.14480  0.00000 -0.28961
       4     H     0.33075  0.33075  0.00000  0.33849
       5     H     0.42313  0.42313  0.00000  0.15375
       6     H     0.41701  0.41701  0.00000  0.16599
       7     H     0.42724  0.42724  0.00000  0.14552

   Total alpha =  9.00000, Total beta =  9.00000, Total charge =  0.00000
