                              Psi4 1.0.54 Driver

  ==> Input File <==

--------------------------------------------------------------------------
set {
	reference rhf
	basis cc-pvtz
}

set_num_threads( 4 )
memory 2 gb

molecule MOL {
0 1

O	 -2.440701	 -0.934798	 -0.415053
C	 -1.922978	 0.063265	 -0.045005
C	 -2.632749	 1.372204	 0.158357
O	 -0.637375	 0.157174	 0.243149
H	 -2.187724	 2.129143	 -0.474664
H	 -3.677681	 1.257276	 -0.079438
H	 -2.516788	 1.693160	 1.185542
C	 0.162530	 -1.009518	 0.097799
C	 1.587210	 -0.664190	 0.477086
H	 0.096803	 -1.356267	 -0.924704
H	 -0.233803	 -1.785900	 0.736810
C	 1.974043	 0.786744	 0.203377
H	 2.240606	 -1.326693	 -0.084072
H	 1.737143	 -0.894918	 1.527382
C	 3.422916	 1.088539	 0.571212
H	 1.815796	 1.005102	 -0.849417
H	 1.314835	 1.445244	 0.757151
H	 3.671785	 2.122580	 0.363343
H	 4.109830	 0.463905	 0.009631
H	 3.603571	 0.911005	 1.626135

	symmetry c1
}
set optking {
	frozen_dihedral = ("
		12 9 8 10
	")
}

ee,wfn = optimize('scf', return_wfn=True)
oeprop( wfn, 'DIPOLE', 'QUADRUPOLE', 'MULLIKEN_CHARGES')
f=open( 'psi4out.xyz', 'w' )
f.write( "20  " )
f.write( str(ee) + "\n" )
f.write( MOL.save_string_xyz() )
f.close()
--------------------------------------------------------------------------

    Molecular point group: c1
  Charge       = 0
  Multiplicity = 1
  Basis Set: CC-PVTZ
  Basis Set:
  @DF-RHF Final Energy:  -384.08191696437410
    Total Energy =                       -384.0819169643739315
    Molecular point group: c1
  Basis Set: CC-PVTZ
  Basis Set:
  Basis Set: CC-PVTZ
  Basis Set:
  @DF-RHF Final Energy:  -384.08224054183887
    Total Energy =                       -384.0822405418389280
  Basis Set: CC-PVTZ
  Basis Set:
  Basis Set: CC-PVTZ
  Basis Set:
  @DF-RHF Final Energy:  -384.08274511807406
    Total Energy =                       -384.0827451180739445
  Basis Set: CC-PVTZ
  Basis Set:
  Basis Set: CC-PVTZ
  Basis Set:
  @DF-RHF Final Energy:  -384.08224164884854
    Total Energy =                       -384.0822416488482531
  Basis Set: CC-PVTZ
  Basis Set:
  Basis Set: CC-PVTZ
  Basis Set:
  @DF-RHF Final Energy:  -384.08294811251938
    Total Energy =                       -384.0829481125193752
  Basis Set: CC-PVTZ
  Basis Set:
  Basis Set: CC-PVTZ
  Basis Set:
  @DF-RHF Final Energy:  -384.08295615130208
    Total Energy =                       -384.0829561513021417
  Basis Set: CC-PVTZ
  Basis Set:
  Basis Set: CC-PVTZ
  Basis Set:
  @DF-RHF Final Energy:  -384.08295825819584
    Total Energy =                       -384.0829582581955037
  Basis Set: CC-PVTZ
  Basis Set:
  Charge       = 0
  Multiplicity = 1
  Basis Set: CC-PVTZ
  Basis Set:

    Orbital Energies (a.u.)
    -----------------------

    Doubly Occupied:

       1A    -20.595444     2A    -20.533487     3A    -11.367456
       4A    -11.280056     5A    -11.232207     6A    -11.223873
       7A    -11.217668     8A    -11.210633     9A     -1.472356
      10A     -1.366428    11A     -1.084428    12A     -1.029413
      13A     -0.981364    14A     -0.881800    15A     -0.818229
      16A     -0.767420    17A     -0.693234    18A     -0.690260
      19A     -0.671375    20A     -0.635089    21A     -0.596141
      22A     -0.594570    23A     -0.574189    24A     -0.549671
      25A     -0.546715    26A     -0.536524    27A     -0.509387
      28A     -0.484404    29A     -0.476562    30A     -0.469636
      31A     -0.448266    32A     -0.442943

  @DF-RHF Final Energy:  -384.08295869734599

   => Energetics <=

    Nuclear Repulsion Energy =            386.7523344600862742
    One-Electron Energy =               -1289.7081371254093938
    Two-Electron Energy =                 518.8728439679774738
    DFT Exchange-Correlation Energy =       0.0000000000000000
    Empirical Dispersion Energy =           0.0000000000000000
    PCM Polarization Energy =               0.0000000000000000
    EFP Energy =                            0.0000000000000000
    Total Energy =                       -384.0829586973455889
    Molecular point group: c1
  Basis Set: CC-PVTZ
  Basis Set:

  -Total Gradient:
     Atom            X                  Y                   Z
    ------   -----------------  -----------------  -----------------
       1       -0.000007506404    -0.000029061878     0.000000823624
       2        0.000051101718     0.000053789498    -0.000003344285
       3       -0.000007347577    -0.000004378440     0.000011814668
       4       -0.000046544702    -0.000009182146    -0.000000668583
       5       -0.000001076886     0.000000419367     0.000000411400
       6       -0.000001629080     0.000000877908    -0.000000203174
       7        0.000000186452     0.000004604302    -0.000004158028
       8       -0.001678945676     0.008144659644    -0.000538248067
       9        0.002385178877    -0.003195484374    -0.005640308019
      10        0.000841702082    -0.006077026791     0.001896965667
      11       -0.000002376736    -0.000003139562     0.000006878948
      12       -0.001531110954     0.001100570884     0.004270582850
      13        0.000001417627     0.000005007417    -0.000002948845
      14       -0.000001478892    -0.000008430625     0.000003378860
      15        0.000001911938     0.000011944467     0.000011824288
      16        0.000007887052     0.000003497693     0.000004414703
      17        0.000016424921    -0.000003934807    -0.000008323773
      18        0.000002198894    -0.000009046427     0.000006500349
      19       -0.000025103408     0.000016713041     0.000011786087
      20       -0.000004889250    -0.000002399169    -0.000027178672

  **** Optimization is complete! (in 8 steps) ****
    Final optimized geometry and variables:
    Molecular point group: c1

    Geometry (in Angstrom), charge = 0, multiplicity = 1:

    O           -2.362088904254    -1.067447113529    -0.637803855964
    C           -1.886761450058    -0.068979347721    -0.216592371666
    C           -2.648462133789     1.199370103825     0.045129365187
    O           -0.606369376780     0.062994125502     0.082248176687
    H           -2.229951648311     2.002990531228    -0.547008884350
    H           -3.686767710844     1.055415070470    -0.205523074509
    H           -2.550859384657     1.473611489201     1.087609436233
    C            0.235728146095    -1.059681193790    -0.114398914425
    C            1.664746628030    -0.732310086930     0.309063467932
    H            0.190949263789    -1.386581379283    -1.144257322399
    H           -0.145853916735    -1.883823512790     0.472702334577
    C            2.103870838824     0.713598614113     0.085765638041
    H            2.325097045365    -1.410864664568    -0.221038354631
    H            1.779446015284    -0.958222904255     1.365098147561
    C            3.568622970684     0.932267069089     0.449815800063
    H            1.944749596384     0.991373402190    -0.952629170223
    H            1.480034959903     1.371550879262     0.675913037609
    H            3.856579338051     1.966645595537     0.302763756521
    H            4.222904918422     0.317284848945    -0.159039067726
    H            3.755349303281     0.682541854989     1.489147672963

  Mulliken Charges: (a.u.)
   Center  Symbol    Alpha    Beta     Spin     Total
       1     O     4.19700  4.19700  0.00000 -0.39401
       2     C     2.80839  2.80839  0.00000  0.38323
       3     C     3.13864  3.13864  0.00000 -0.27727
       4     O     4.14932  4.14932  0.00000 -0.29864
       5     H     0.44575  0.44575  0.00000  0.10850
       6     H     0.43731  0.43731  0.00000  0.12538
       7     H     0.44584  0.44584  0.00000  0.10832
       8     C     2.99004  2.99004  0.00000  0.01993
       9     C     3.09264  3.09264  0.00000 -0.18529
      10     H     0.45181  0.45181  0.00000  0.09637
      11     H     0.44864  0.44864  0.00000  0.10272
      12     C     3.08028  3.08028  0.00000 -0.16057
      13     H     0.45125  0.45125  0.00000  0.09749
      14     H     0.45263  0.45263  0.00000  0.09474
      15     C     3.15144  3.15144  0.00000 -0.30289
      16     H     0.45454  0.45454  0.00000  0.09091
      17     H     0.44654  0.44654  0.00000  0.10692
      18     H     0.44743  0.44743  0.00000  0.10514
      19     H     0.45547  0.45547  0.00000  0.08907
      20     H     0.45503  0.45503  0.00000  0.08993

   Total alpha = 32.00000, Total beta = 32.00000, Total charge =  0.00000

*** Psi4 exiting successfully. Buy a developer a beer!
