                              Psi4 1.0.54 Driver

  ==> Input File <==

--------------------------------------------------------------------------
set {
	reference rhf
	basis cc-pvtz
}

set_num_threads( 4 )
memory 2 gb

molecule MOL {
0 1

H	 -3.436473	 1.252944	 -1.023892
O	 -3.458596	 0.315260	 -0.960865
C	 -3.176635	 -0.080824	 0.355601
C	 -1.763371	 0.265266	 0.799691
H	 -3.321825	 -1.153438	 0.379502
H	 -3.895468	 0.357385	 1.043382
C	 -0.673390	 -0.426948	 -0.013392
H	 -1.631049	 1.344913	 0.747560
H	 -1.664587	 -0.001624	 1.849167
C	 0.737842	 -0.043159	 0.423759
H	 -0.806103	 -0.190518	 -1.063345
H	 -0.797221	 -1.503753	 0.074146
C	 1.824000	 -0.743224	 -0.390623
H	 0.850588	 1.033777	 0.343840
H	 0.868587	 -0.286314	 1.476203
C	 1.752962	 -2.271188	 -0.379350
H	 2.800797	 -0.428121	 -0.030864
H	 1.758009	 -0.403630	 -1.420643
C	 2.024557	 -2.912847	 0.979199
H	 2.475345	 -2.653242	 -1.094174
H	 0.776856	 -2.587287	 -0.738125
H	 2.992320	 -2.609813	 1.366087
H	 2.025509	 -3.994060	 0.900330
H	 1.275478	 -2.641587	 1.713299

	symmetry c1
}
set optking {
	frozen_dihedral = ("
		17 13 10 7
	")
}

ee,wfn = optimize('scf', return_wfn=True)
oeprop( wfn, 'DIPOLE', 'QUADRUPOLE', 'MULLIKEN_CHARGES')
f=open( 'psi4out.xyz', 'w' )
f.write( "24  " )
f.write( str(ee) + "\n" )
f.write( MOL.save_string_xyz() )
f.close()
--------------------------------------------------------------------------

    Molecular point group: c1
  Charge       = 0
  Multiplicity = 1
  Basis Set: CC-PVTZ
  Basis Set:
  @DF-RHF Final Energy:  -349.37766049999271
    Total Energy =                       -349.3776604999925439
    Molecular point group: c1
  Basis Set: CC-PVTZ
  Basis Set:
  Basis Set: CC-PVTZ
  Basis Set:
  @DF-RHF Final Energy:  -348.84628601327483
    Total Energy =                       -348.8462860132740389
  Basis Set: CC-PVTZ
  Basis Set:
  Basis Set: CC-PVTZ
  Basis Set:
  @DF-RHF Final Energy:  -349.03285435929894
    Total Energy =                       -349.0328543592991082
  Basis Set: CC-PVTZ
  Basis Set:
  Basis Set: CC-PVTZ
  Basis Set:
  @DF-RHF Final Energy:  -349.27930987470955
    Total Energy =                       -349.2793098747096110
  Basis Set: CC-PVTZ
  Basis Set:
  @DF-RHF Final Energy:  -349.37180176370299
    Total Energy =                       -349.3718017637030471
  @DF-RHF Final Energy:  -349.37845394789468
    Total Energy =                       -349.3784539478941724
  @DF-RHF Final Energy:  -349.37867046905041
    Total Energy =                       -349.3786704690508031
  @DF-RHF Final Energy:  -349.37868873467283
    Total Energy =                       -349.3786887346722665
  Basis Set: CC-PVTZ
  Basis Set:
  @DF-RHF Final Energy:  -349.37873771045275
    Total Energy =                       -349.3787377104530378
  Basis Set: CC-PVTZ
  Basis Set:
  Basis Set: CC-PVTZ
  Basis Set:
  @DF-RHF Final Energy:  -349.37873876567380
    Total Energy =                       -349.3787387656740293
  Basis Set: CC-PVTZ
  Basis Set:
  Basis Set: CC-PVTZ
  Basis Set:
  @DF-RHF Final Energy:  -349.37873999167357
    Total Energy =                       -349.3787399916737968
  Basis Set: CC-PVTZ
  Basis Set:
  Charge       = 0
  Multiplicity = 1
  Basis Set: CC-PVTZ
  Basis Set:

    Orbital Energies (a.u.)
    -----------------------

    Doubly Occupied:

       1A    -20.546390     2A    -11.265637     3A    -11.215368
       4A    -11.210823     5A    -11.210456     6A    -11.209786
       7A    -11.208853     8A    -11.205199     9A     -1.364243
      10A     -1.089978    11A     -1.047451    12A     -0.985251
      13A     -0.917742    14A     -0.854166    15A     -0.810456
      16A     -0.761602    17A     -0.682926    18A     -0.653714
      19A     -0.624003    20A     -0.619826    21A     -0.611794
      22A     -0.575080    23A     -0.556750    24A     -0.546197
      25A     -0.522083    26A     -0.510878    27A     -0.495504
      28A     -0.476047    29A     -0.469888    30A     -0.462444
      31A     -0.451325    32A     -0.445314    33A     -0.422657

  @DF-RHF Final Energy:  -349.37874001951707

   => Energetics <=

    Nuclear Repulsion Energy =            392.2157913346433133
    One-Electron Energy =               -1251.1294025576962667
    Two-Electron Energy =                 509.5348712035358858
    DFT Exchange-Correlation Energy =       0.0000000000000000
    Empirical Dispersion Energy =           0.0000000000000000
    PCM Polarization Energy =               0.0000000000000000
    EFP Energy =                            0.0000000000000000
    Total Energy =                       -349.3787400195170676
    Molecular point group: c1
  Basis Set: CC-PVTZ
  Basis Set:

  -Total Gradient:
     Atom            X                  Y                   Z
    ------   -----------------  -----------------  -----------------
       1       -0.000001356005     0.000003123468    -0.000004286333
       2       -0.000006982603     0.000005477423    -0.000006013585
       3        0.000006259970    -0.000021978964     0.000007527332
       4       -0.000007211160     0.000010795288     0.000000870286
       5       -0.000001440431    -0.000002065616     0.000001923353
       6        0.000001536355     0.000002415366    -0.000002723927
       7       -0.000065405992    -0.000597584380     0.000657664062
       8        0.000002630536    -0.000000412734     0.000000641413
       9       -0.000000761156     0.000003917717    -0.000000202643
      10        0.000074111457     0.000673427525    -0.000740153919
      11       -0.000002266634    -0.000000477744     0.000001978983
      12       -0.000000083907     0.000001231732    -0.000000501463
      13        0.000092342272     0.000718754576    -0.000826868845
      14       -0.000003542652    -0.000003281982     0.000000648673
      15       -0.000001452263     0.000005385429    -0.000000089718
      16        0.000006612920    -0.000000587100     0.000006428057
      17       -0.000091434897    -0.000799974995     0.000901708761
      18        0.000000176673     0.000004265204    -0.000002228894
      19       -0.000003382185    -0.000005638606     0.000004291931
      20       -0.000001363656    -0.000001955103    -0.000001534585
      21       -0.000000262851     0.000004755229    -0.000001570678
      22       -0.000001776964    -0.000000393135     0.000000250151
      23       -0.000000440376     0.000001432541     0.000001100349
      24        0.000005493553    -0.000000631140     0.000001141236

  **** Optimization is complete! (in 12 steps) ****
    Final optimized geometry and variables:
    Molecular point group: c1

    Geometry (in Angstrom), charge = 0, multiplicity = 1:

    H           -2.427048658220     0.523790937457    -2.858490741524
    O           -2.252159372770    -0.339704312809    -2.530634280436
    C           -2.614399493741    -0.417965054056    -1.177145829920
    C           -1.775683865609     0.475722392363    -0.275999432695
    H           -2.485775099910    -1.455631866714    -0.896270826573
    H           -3.667734679175    -0.178802493714    -1.054181879163
    C           -0.290470507022     0.123881725908    -0.265621039837
    H           -1.905903732584     1.511674494902    -0.584975017038
    H           -2.176215368143     0.408229986181     0.732778814443
    C            0.528193714887     1.045391005884     0.636363744212
    H            0.094256702736     0.167397733001    -1.279055949463
    H           -0.180936664797    -0.906673363465     0.057664980303
    C            2.041747407605     0.815534498429     0.590768002330
    H            0.338638781655     2.076373326128     0.349735339560
    H            0.172653120386     0.952978668293     1.658786516613
    C            2.528571145043    -0.589665356046     0.956393226703
    H            2.513794133424     1.523413544063     1.267285316375
    H            2.401728572592     1.055911536496    -0.405769078235
    C            2.186689910030    -1.027533223583     2.378337754051
    H            3.607376412597    -0.610910710177     0.835446344722
    H            2.136811745919    -1.314957544084     0.251131219274
    H            2.566132371639    -0.318352848751     3.107172889175
    H            2.625405681946    -1.993813588341     2.599528383922
    H            1.117119054943    -1.114033807350     2.529954092319

  Mulliken Charges: (a.u.)
   Center  Symbol    Alpha    Beta     Spin     Total
       1     H     0.39516  0.39516  0.00000  0.20968
       2     O     4.20382  4.20382  0.00000 -0.40764
       3     C     2.97713  2.97713  0.00000  0.04575
       4     C     3.10320  3.10320  0.00000 -0.20640
       5     H     0.45902  0.45902  0.00000  0.08196
       6     H     0.46026  0.46026  0.00000  0.07948
       7     C     3.08923  3.08923  0.00000 -0.17845
       8     H     0.45817  0.45817  0.00000  0.08365
       9     H     0.45294  0.45294  0.00000  0.09412
      10     C     3.10726  3.10726  0.00000 -0.21452
      11     H     0.44516  0.44516  0.00000  0.10968
      12     H     0.45352  0.45352  0.00000  0.09296
      13     C     3.09965  3.09965  0.00000 -0.19931
      14     H     0.44515  0.44515  0.00000  0.10970
      15     H     0.45152  0.45152  0.00000  0.09696
      16     C     3.09818  3.09818  0.00000 -0.19636
      17     H     0.44915  0.44915  0.00000  0.10171
      18     H     0.44875  0.44875  0.00000  0.10250
      19     C     3.15240  3.15240  0.00000 -0.30479
      20     H     0.44510  0.44510  0.00000  0.10979
      21     H     0.45016  0.45016  0.00000  0.09967
      22     H     0.45420  0.45420  0.00000  0.09161
      23     H     0.44606  0.44606  0.00000  0.10788
      24     H     0.45482  0.45482  0.00000  0.09036

   Total alpha = 33.00000, Total beta = 33.00000, Total charge = -0.00000

*** Psi4 exiting successfully. Buy a developer a beer!
