  ==> Input File <==

--------------------------------------------------------------------------
set {
	reference rhf
	basis cc-pvtz
}

set_num_threads( 4 )
memory 2 gb

molecule MOL {
0 1

H	 3.189726	 0.112668	 -0.525938
N	 2.433987	 -0.362316	 -0.080024
C	 1.263552	 0.494993	 0.021953
H	 2.752967	 -0.639046	 0.824967
C	 -0.016533	 -0.325589	 -0.026925
H	 1.280915	 1.180773	 -0.818522
H	 1.263064	 1.106893	 0.925038
C	 -1.280353	 0.525521	 0.047747
H	 -0.016686	 -0.912532	 -0.939714
H	 -0.014099	 -1.037598	 0.796369
C	 -2.560681	 -0.301323	 -0.007747
H	 -1.279957	 1.241025	 -0.770189
H	 -1.270445	 1.110526	 0.963468
H	 -2.617064	 -0.872870	 -0.928010
H	 -3.439525	 0.331102	 0.043462
H	 -2.609427	 -1.002736	 0.818585

	symmetry c1
}
set optking {
	frozen_dihedral = ("
		1 2 3 6
	")
}

ee = optimize('scf')
oeprop('DIPOLE', 'QUADRUPOLE', 'MULLIKEN_CHARGES')
f=open( 'psi4out.xyz', 'w' )
f.write( "16  " )
f.write( str(ee) + "\n" )
f.write( MOL.save_string_xyz() )
f.close()
--------------------------------------------------------------------------

    Molecular point group: c1
  Charge       = 0
  Multiplicity = 1
  Basis Set: CC-PVTZ
  Basis Set:
  @DF-RHF Final Energy:  -212.39886314715508
    Total Energy =                       -212.3988631471551685
    Molecular point group: c1
  Basis Set: CC-PVTZ
  Basis Set:
  Basis Set: CC-PVTZ
  Basis Set:
  @DF-RHF Final Energy:  -212.39904443080141
    Total Energy =                       -212.3990444308012684
  Basis Set: CC-PVTZ
  Basis Set:
  Basis Set: CC-PVTZ
  Basis Set:
  @DF-RHF Final Energy:  -212.39908773553242
    Total Energy =                       -212.3990877355324187
  Basis Set: CC-PVTZ
  Basis Set:
  Basis Set: CC-PVTZ
  Basis Set:
  @DF-RHF Final Energy:  -212.39908944904491
    Total Energy =                       -212.3990894490449932
  Basis Set: CC-PVTZ
  Basis Set:
  Charge       = 0
  Multiplicity = 1
  Basis Set: CC-PVTZ
  Basis Set:

    Orbital Energies (a.u.)
    -----------------------

    Doubly Occupied:

       1A    -15.525159     2A    -11.238489     3A    -11.211137
       4A    -11.204529     5A    -11.204093     6A     -1.176156
       7A     -1.059214     8A     -0.959027     9A     -0.843404
      10A     -0.789359    11A     -0.674114    12A     -0.629313
      13A     -0.609544    14A     -0.577935    15A     -0.557279
      16A     -0.530050    17A     -0.493319    18A     -0.472327
      19A     -0.466495    20A     -0.460446    21A     -0.379809

  @DF-RHF Final Energy:  -212.39908965803394

   => Energetics <=

    Nuclear Repulsion Energy =            186.2993429980254234
    One-Electron Energy =                -655.2744687066841607
    Two-Electron Energy =                 256.5760360506249071
    DFT Exchange-Correlation Energy =       0.0000000000000000
    Empirical Dispersion Energy =           0.0000000000000000
    PCM Polarization Energy =               0.0000000000000000
    EFP Energy =                            0.0000000000000000
    Total Energy =                       -212.3990896580338585
    Molecular point group: c1
  Basis Set: CC-PVTZ
  Basis Set:

  -Total Gradient:
     Atom            X                  Y                   Z
    ------   -----------------  -----------------  -----------------
       1       -0.000750725316    -0.000826834156    -0.002218842506
       2        0.001226384648     0.001350961400     0.003074348437
       3       -0.001596330712    -0.002014525447    -0.002110899187
       4       -0.000010596278    -0.000000978139    -0.000003587401
       5        0.000048004967     0.000034105949     0.000014547823
       6        0.001122313385     0.001472447124     0.001220243341
       7       -0.000012407498    -0.000005703335     0.000015997292
       8       -0.000008543899    -0.000015557440     0.000002328370
       9        0.000001366927     0.000005427125     0.000007239400
      10       -0.000000771179     0.000000316610     0.000003691005
      11       -0.000018902024     0.000013293760    -0.000004721573
      12        0.000002742622    -0.000003840913     0.000005111473
      13        0.000000405375    -0.000007359566    -0.000002465053
      14        0.000000885467    -0.000000752569    -0.000000461335
      15       -0.000006468615    -0.000005096896    -0.000003256649
      16        0.000002642132     0.000004096495     0.000000726562

  **** Optimization is complete! (in 5 steps) ****
    Final optimized geometry and variables:
    Molecular point group: c1

    Geometry (in Angstrom), charge = 0, multiplicity = 1:

    H            3.208693233214     0.115056568476    -0.488766834553
    N            2.441212462792    -0.355490591860    -0.063468975078
    C            1.259012013638     0.490406834815     0.012216853413
    H            2.729264081821    -0.681363473055     0.833058910710
    C           -0.021340486399    -0.330840116840    -0.030794624365
    H            1.282839303232     1.180019516633    -0.824741574789
    H            1.254892954353     1.112674085175     0.907413641192
    C           -1.285471377037     0.518893128683     0.051625087331
    H           -0.024541641856    -0.917668259788    -0.943603090686
    H           -0.009374935348    -1.044195518814     0.790269771296
    C           -2.565679878208    -0.308637453253     0.003343163453
    H           -1.291270058198     1.235661834357    -0.765606695353
    H           -1.270925395911     1.103504123987     0.967759693610
    H           -2.627660208765    -0.878662836901    -0.917522692629
    H           -3.445041497729     0.322614302027     0.061746665930
    H           -2.607681482591    -1.011741423372     0.828557167098

  Mulliken Charges: (a.u.)
   Center  Symbol    Alpha    Beta     Spin     Total
       1     H     0.42571  0.42571  0.00000  0.14858
       2     N     3.69564  3.69564  0.00000 -0.39128
       3     C     3.03670  3.03670  0.00000 -0.07340
       4     H     0.42868  0.42868  0.00000  0.14264
       5     C     3.06839  3.06839  0.00000 -0.13677
       6     H     0.45666  0.45666  0.00000  0.08668
       7     H     0.46510  0.46510  0.00000  0.06981
       8     C     3.08995  3.08995  0.00000 -0.17990
       9     H     0.45246  0.45246  0.00000  0.09508
      10     H     0.45994  0.45994  0.00000  0.08011
      11     C     3.14926  3.14926  0.00000 -0.29852
      12     H     0.45605  0.45605  0.00000  0.08790
      13     H     0.45677  0.45677  0.00000  0.08646
      14     H     0.45435  0.45435  0.00000  0.09130
      15     H     0.44910  0.44910  0.00000  0.10180
      16     H     0.45524  0.45524  0.00000  0.08951

   Total alpha = 21.00000, Total beta = 21.00000, Total charge = -0.00000
