                              Psi4 1.0.54 Driver

  ==> Input File <==

--------------------------------------------------------------------------
set {
	reference rhf
	basis cc-pvtz
}

set_num_threads( 4 )
memory 2 gb

molecule MOL {
0 1

H	 -3.162190	 0.493205	 -0.000107
C	 -2.363908	 -0.234727	 0.000005
O	 -1.158738	 0.454634	 -0.000087
H	 -2.464314	 -0.863616	 -0.882153
H	 -2.464327	 -0.863359	 0.882345
C	 -0.028611	 -0.359694	 0.000037
C	 -0.254325	 -1.526974	 -0.939592
H	 0.170744	 -0.722400	 1.008670
H	 0.844514	 0.212457	 -0.314507
C	 0.942887	 -2.469251	 -0.995727
H	 -1.138375	 -2.065080	 -0.615828
H	 -0.469906	 -1.137652	 -1.928483
H	 1.161258	 -2.889662	 -0.019686
H	 0.754706	 -3.292945	 -1.673323
H	 1.834111	 -1.956120	 -1.341393

	symmetry c1
}
set optking {
	frozen_dihedral = ("
		8 6 3 2
	")
}

ee,wfn = optimize('scf', return_wfn=True)
oeprop( wfn, 'DIPOLE', 'QUADRUPOLE', 'MULLIKEN_CHARGES')
f=open( 'psi4out.xyz', 'w' )
f.write( "15  " )
f.write( str(ee) + "\n" )
f.write( MOL.save_string_xyz() )
f.close()
--------------------------------------------------------------------------

    Molecular point group: c1
  Charge       = 0
  Multiplicity = 1
  Basis Set: CC-PVTZ
  Basis Set:
  @DF-RHF Final Energy:  -232.21292863358426
    Total Energy =                       -232.2129286335842835
    Molecular point group: c1
  Basis Set: CC-PVTZ
  Basis Set:
  Basis Set: CC-PVTZ
  Basis Set:
  @DF-RHF Final Energy:  -231.37182638292373
    Total Energy =                       -231.3718263829237003
  Basis Set: CC-PVTZ
  Basis Set:
  Basis Set: CC-PVTZ
  Basis Set:
  @DF-RHF Final Energy:  -231.56448999257159
    Total Energy =                       -231.5644899925716231
  Basis Set: CC-PVTZ
  Basis Set:
  Basis Set: CC-PVTZ
  Basis Set:
  @DF-RHF Final Energy:  -231.72964899059971
    Total Energy =                       -231.7296489905994861
  Basis Set: CC-PVTZ
  Basis Set:
  @DF-RHF Final Energy:  -231.95360855368122
    Total Energy =                       -231.9536085536813630
  @DF-RHF Final Energy:  -232.12044467545311
    Total Energy =                       -232.1204446754531148
  @DF-RHF Final Energy:  -231.77120037779767
    Total Energy =                       -231.7712003777976975
  @DF-RHF Final Energy:  -231.99119792115519
    Total Energy =                       -231.9911979211551341
  @DF-RHF Final Energy:  -232.16185838935488
    Total Energy =                       -232.1618583893547338
  @DF-RHF Final Energy:  -232.21538987141412
    Total Energy =                       -232.2153898714141746
  @DF-RHF Final Energy:  -232.21714500840554
    Total Energy =                       -232.2171450084053390
  @DF-RHF Final Energy:  -232.22226318628108
    Total Energy =                       -232.2222631862809976
  Basis Set: CC-PVTZ
  Basis Set:
  @DF-RHF Final Energy:  -232.22260967811303
    Total Energy =                       -232.2226096781129172
  Basis Set: CC-PVTZ
  Basis Set:
  Basis Set: CC-PVTZ
  Basis Set:
  @DF-RHF Final Energy:  -232.22267706657004
    Total Energy =                       -232.2226770665700997
  Basis Set: CC-PVTZ
  Basis Set:
  Basis Set: CC-PVTZ
  Basis Set:
  @DF-RHF Final Energy:  -232.22268309996232
    Total Energy =                       -232.2226830999621825
  Basis Set: CC-PVTZ
  Basis Set:
  Charge       = 0
  Multiplicity = 1
  Basis Set: CC-PVTZ
  Basis Set:

    Orbital Energies (a.u.)
    -----------------------

    Doubly Occupied:

       1A    -20.544336     2A    -11.264065     3A    -11.260210
       4A    -11.218525     5A    -11.214400     6A     -1.375489
       7A     -1.059165     8A     -0.961851     9A     -0.885662
      10A     -0.800879    11A     -0.671525    12A     -0.660798
      13A     -0.631829    14A     -0.606434    15A     -0.563428
      16A     -0.531967    17A     -0.526842    18A     -0.499638
      19A     -0.489092    20A     -0.449200    21A     -0.409437

  @DF-RHF Final Energy:  -232.22268394293766

   => Energetics <=

    Nuclear Repulsion Energy =            192.3744628543485362
    One-Electron Energy =                -695.9447433967543475
    Two-Electron Energy =                 271.3475965994679768
    DFT Exchange-Correlation Energy =       0.0000000000000000
    Empirical Dispersion Energy =           0.0000000000000000
    PCM Polarization Energy =               0.0000000000000000
    EFP Energy =                            0.0000000000000000
    Total Energy =                       -232.2226839429378629
    Molecular point group: c1
  Basis Set: CC-PVTZ
  Basis Set:

  -Total Gradient:
     Atom            X                  Y                   Z
    ------   -----------------  -----------------  -----------------
       1        0.000012213728    -0.000038501856    -0.000040932700
       2       -0.003376150480    -0.001589886925    -0.000348949509
       3        0.005614106228     0.001416899671     0.000569999966
       4       -0.000021792082    -0.000038315912     0.000000417138
       5        0.000030619237     0.000045962342     0.000019262656
       6       -0.004957366546     0.003871270509    -0.000145245210
       7        0.000051507481     0.000004040650     0.000018566549
       8        0.002707651120    -0.003651726594    -0.000024795655
       9        0.000023124094    -0.000022424615     0.000005029777
      10       -0.000003911953    -0.000019514642    -0.000077792453
      11       -0.000027011893    -0.000025742047     0.000029245704
      12       -0.000050917724     0.000000519366     0.000014906960
      13        0.000019463836     0.000022639315     0.000001433891
      14       -0.000033907000     0.000023619471    -0.000000839248
      15        0.000012371953     0.000001161265    -0.000020307867

  **** Optimization is complete! (in 16 steps) ****
    Final optimized geometry and variables:
    Molecular point group: c1

    Geometry (in Angstrom), charge = 0, multiplicity = 1:

    H            0.549414636132     0.848745102703    -2.868388344721
    C            0.237359649482     0.882702352380    -1.834256093480
    O            0.718280690872    -0.269619584440    -1.223239936570
    H           -0.845274986831     0.943859906025    -1.804640206011
    H            0.647805708134     1.783665137782    -1.381378223352
    C            0.596280443620    -0.366180668040     0.166348777712
    C           -0.759687641393     0.004527690415     0.748803368670
    H            1.392570657705     0.205390355789     0.644316281982
    H            0.798768373920    -1.406197516569     0.392982193518
    C           -0.823370277212    -0.306768824548     2.240907722528
    H           -0.966224015499     1.057900965730     0.597009879873
    H           -1.532326327986    -0.548739200705     0.223916941113
    H           -0.063300575952     0.239857673920     2.789101228319
    H           -1.786911731045    -0.032977780391     2.653067194910
    H           -0.670967885400    -1.363847982667     2.429227423582

  Mulliken Charges: (a.u.)
   Center  Symbol    Alpha    Beta     Spin     Total
       1     H     0.44369  0.44369  0.00000  0.11262
       2     C     3.03649  3.03649  0.00000 -0.07297
       3     O     4.17625  4.17625  0.00000 -0.35250
       4     H     0.46833  0.46833  0.00000  0.06334
       5     H     0.47292  0.47292  0.00000  0.05415
       6     C     2.97184  2.97184  0.00000  0.05631
       7     C     3.09743  3.09743  0.00000 -0.19486
       8     H     0.46947  0.46947  0.00000  0.06106
       9     H     0.45448  0.45448  0.00000  0.09105
      10     C     3.15237  3.15237  0.00000 -0.30474
      11     H     0.45329  0.45329  0.00000  0.09343
      12     H     0.44892  0.44892  0.00000  0.10215
      13     H     0.45473  0.45473  0.00000  0.09054
      14     H     0.44659  0.44659  0.00000  0.10682
      15     H     0.45319  0.45319  0.00000  0.09361

   Total alpha = 21.00000, Total beta = 21.00000, Total charge = -0.00000

*** Psi4 exiting successfully. Buy a developer a beer!
