  ==> Input File <==

--------------------------------------------------------------------------
set {
	reference rhf
	basis 6-31G*
}

set_num_threads( 4 )
memory 2 gb

molecule MOL {
0 1

O	 1.139544	 0.547993	 -0.960556
C	 0.576249	 0.131685	 -0.000108
C	 -0.766779	 -0.556801	 -0.000461
O	 1.070299	 0.221753	 1.228088
C	 -1.945214	 0.412366	 0.000161
H	 -0.796911	 -1.211249	 -0.867467
H	 -0.796854	 -1.212390	 0.865687
C	 -3.287791	 -0.317055	 0.000105
H	 -1.876087	 1.060580	 -0.866812
H	 -1.875822	 1.059691	 0.867761
H	 -3.394745	 -0.949193	 -0.877058
H	 -4.111778	 0.388953	 0.000015
H	 -3.394954	 -0.949187	 0.877259
C	 2.331666	 0.849697	 1.368967
H	 3.086917	 0.314453	 0.811605
H	 2.557378	 0.824908	 2.423626
H	 2.288949	 1.871059	 1.018960

	symmetry c1
}
set optking {
	frozen_dihedral = ("
		1 2 3 6
	")
}

ee = optimize('scf')
oeprop('DIPOLE', 'QUADRUPOLE', 'MULLIKEN_CHARGES')
f=open( 'psi4out.xyz', 'w' )
f.write( "17  " )
f.write( str(ee) + "\n" )
f.write( MOL.save_string_xyz() )
f.close()
--------------------------------------------------------------------------

    Molecular point group: c1
  Charge       = 0
  Multiplicity = 1
  Basis Set: 6-31G*
  Basis Set:
  @DF-RHF Final Energy:  -344.90455656642365
    Total Energy =                       -344.9045565664237074
    Molecular point group: c1
  Basis Set: 6-31G*
  Basis Set:
  Basis Set: 6-31G*
  Basis Set:
  @DF-RHF Final Energy:  -344.90424813786768
    Total Energy =                       -344.9042481378677962
  Basis Set: 6-31G*
  Basis Set:
  Basis Set: 6-31G*
  Basis Set:
  @DF-RHF Final Energy:  -344.90506476226710
    Total Energy =                       -344.9050647622669885
  Basis Set: 6-31G*
  Basis Set:
  Basis Set: 6-31G*
  Basis Set:
  @DF-RHF Final Energy:  -344.90529639003080
    Total Energy =                       -344.9052963900306281
  Basis Set: 6-31G*
  Basis Set:
  Basis Set: 6-31G*
  Basis Set:
  @DF-RHF Final Energy:  -344.90529773715639
    Total Energy =                       -344.9052977371565021
  Basis Set: 6-31G*
  Basis Set:
  Charge       = 0
  Multiplicity = 1
  Basis Set: 6-31G*
  Basis Set:

    Orbital Energies (a.u.)
    -----------------------

    Doubly Occupied:

       1A    -20.605434     2A    -20.542615     3A    -11.371144
       4A    -11.280820     5A    -11.234050     6A    -11.232108
       7A    -11.218571     8A     -1.469228     9A     -1.361360
      10A     -1.083850    11A     -1.000027    12A     -0.941753
      13A     -0.829897    14A     -0.773456    15A     -0.697772
      16A     -0.679509    17A     -0.673130    18A     -0.636150
      19A     -0.595084    20A     -0.582934    21A     -0.555685
      22A     -0.540253    23A     -0.526076    24A     -0.505652
      25A     -0.486796    26A     -0.484392    27A     -0.453833
      28A     -0.432818

  @DF-RHF Final Energy:  -344.90529829325260

   => Energetics <=

    Nuclear Repulsion Energy =            313.6230755861249690
    One-Electron Energy =               -1091.4679571630786086
    Two-Electron Energy =                 432.9395832837012676
    DFT Exchange-Correlation Energy =       0.0000000000000000
    Empirical Dispersion Energy =           0.0000000000000000
    PCM Polarization Energy =               0.0000000000000000
    EFP Energy =                            0.0000000000000000
    Total Energy =                       -344.9052982932523719
    Molecular point group: c1
  Basis Set: 6-31G*
  Basis Set:

  -Total Gradient:
     Atom            X                  Y                   Z
    ------   -----------------  -----------------  -----------------
       1       -0.000138306773     0.000251138598     0.000127877966
       2        0.000192727615    -0.000425436062    -0.000138066602
       3       -0.000215214512     0.000372505674    -0.000125539128
       4        0.000015836844     0.000023709102    -0.000008243965
       5       -0.000003182454     0.000015704074    -0.000002448361
       6        0.000122427014    -0.000213509122     0.000151125557
       7        0.000002153879    -0.000006511100    -0.000010780896
       8        0.000015353614    -0.000006216064     0.000003709747
       9       -0.000005245433    -0.000009463454    -0.000002075700
      10       -0.000006948613    -0.000001955660    -0.000003795668
      11        0.000007648514     0.000004152159    -0.000001637432
      12        0.000005794536     0.000010305441     0.000002915225
      13        0.000008367714    -0.000001750022    -0.000000569623
      14       -0.000016561759    -0.000029677923     0.000005418695
      15        0.000006004613     0.000003016718     0.000000081576
      16        0.000012244960     0.000010156642     0.000003250070
      17       -0.000003099760     0.000003830999    -0.000001221463

  **** Optimization is complete! (in 6 steps) ****
    Final optimized geometry and variables:
    Molecular point group: c1

    Geometry (in Angstrom), charge = 0, multiplicity = 1:

    O            1.186436782799     0.373119898816    -1.196936200486
    C            0.671181687631    -0.089792472783    -0.229819788523
    C           -0.660194104453    -0.798509154133    -0.230502152836
    O            1.194104519863     0.000466769760     0.985340980489
    C           -1.816136382954     0.213387077688    -0.235632514783
    H           -0.702554062847    -1.410718290987    -1.123747888079
    H           -0.729124087061    -1.443831792281     0.636573797686
    C           -3.180280237129    -0.472588545937    -0.267098448455
    H           -1.709505724727     0.863923216007    -1.097640904310
    H           -1.744642555246     0.842871979776     0.647223073296
    H           -3.288584841671    -1.088142367569    -1.155192929455
    H           -3.981373464921     0.259308813840    -0.271291818945
    H           -3.319209347255    -1.111833355718     0.599812549937
    C            2.424329001229     0.691977274827     1.104176045184
    H            3.189309251208     0.209027579745     0.513547474253
    H            2.682277176107     0.657893159925     2.151182924368
    H            2.317069033502     1.716277425576     0.777374355208

  Mulliken Charges: (a.u.)
   Center  Symbol    Alpha    Beta     Spin     Total
       1     O     4.28621  4.28621  0.00000 -0.57243
       2     C     2.61580  2.61580  0.00000  0.76841
       3     C     3.19424  3.19424  0.00000 -0.38848
       4     O     4.30259  4.30259  0.00000 -0.60518
       5     C     3.16486  3.16486  0.00000 -0.32971
       6     H     0.40103  0.40103  0.00000  0.19794
       7     H     0.40320  0.40320  0.00000  0.19359
       8     C     3.24091  3.24091  0.00000 -0.48181
       9     H     0.40618  0.40618  0.00000  0.18764
      10     H     0.41331  0.41331  0.00000  0.17338
      11     H     0.41826  0.41826  0.00000  0.16348
      12     H     0.41507  0.41507  0.00000  0.16987
      13     H     0.41934  0.41934  0.00000  0.16132
      14     C     3.09313  3.09313  0.00000 -0.18625
      15     H     0.40833  0.40833  0.00000  0.18333
      16     H     0.40860  0.40860  0.00000  0.18280
      17     H     0.40895  0.40895  0.00000  0.18210

   Total alpha = 28.00000, Total beta = 28.00000, Total charge =  0.00000
