                              Psi4 1.0.54 Driver

  ==> Input File <==

--------------------------------------------------------------------------
set {
	reference rhf
	basis cc-pvtz
}

set_num_threads( 4 )
memory 2 gb

molecule MOL {
0 1

O	 -2.817697	 1.304178	 0.001046
C	 -2.664672	 0.129869	 0.003507
C	 -3.797908	 -0.860100	 -0.001145
O	 -1.481217	 -0.452708	 0.001092
H	 -4.408836	 -0.679689	 -0.875387
H	 -3.443486	 -1.878443	 -0.002770
H	 -4.412123	 -0.683688	 0.871605
C	 -0.332055	 0.384012	 -0.000250
C	 0.892252	 -0.506059	 -0.000295
H	 -0.360822	 1.020205	 -0.874146
H	 -0.359817	 1.021310	 0.872861
C	 2.188199	 0.299473	 -0.001416
H	 0.857046	 -1.152781	 -0.871031
H	 0.857910	 -1.151798	 0.871202
C	 1.974232	 1.775513	 -0.324911
H	 2.669748	 0.212923	 0.969458
H	 2.879886	 -0.127599	 -0.723325
C	 3.269161	 2.580598	 -0.327298
H	 1.284565	 2.203836	 0.396862
H	 1.493217	 1.863271	 -1.294968
H	 3.756819	 2.540468	 0.640908
H	 3.082581	 3.622445	 -0.560213
H	 3.967218	 2.197048	 -1.063817

	symmetry c1
}
set optking {
	frozen_dihedral = ("
		16 12 9 13
	")
}

ee,wfn = optimize('scf', return_wfn=True)
oeprop( wfn, 'DIPOLE', 'QUADRUPOLE', 'MULLIKEN_CHARGES')
f=open( 'psi4out.xyz', 'w' )
f.write( "23  " )
f.write( str(ee) + "\n" )
f.write( MOL.save_string_xyz() )
f.close()
--------------------------------------------------------------------------

    Molecular point group: c1
  Charge       = 0
  Multiplicity = 1
  Basis Set: CC-PVTZ
  Basis Set:
  @DF-RHF Final Energy:  -423.12173803076769
    Total Energy =                       -423.1217380307680287
    Molecular point group: c1
  Basis Set: CC-PVTZ
  Basis Set:
  Basis Set: CC-PVTZ
  Basis Set:
  @DF-RHF Final Energy:  -423.11879394563044
    Total Energy =                       -423.1187939456308413
  Basis Set: CC-PVTZ
  Basis Set:
  Basis Set: CC-PVTZ
  Basis Set:
  @DF-RHF Final Energy:  -423.12572499163196
    Total Energy =                       -423.1257249916327510
  Basis Set: CC-PVTZ
  Basis Set:
  Basis Set: CC-PVTZ
  Basis Set:
  @DF-RHF Final Energy:  -423.12622108153715
    Total Energy =                       -423.1262210815368690
  Basis Set: CC-PVTZ
  Basis Set:
  Basis Set: CC-PVTZ
  Basis Set:
  @DF-RHF Final Energy:  -423.12516738341310
    Total Energy =                       -423.1251673834137819
  Basis Set: CC-PVTZ
  Basis Set:
  Basis Set: CC-PVTZ
  Basis Set:
  @DF-RHF Final Energy:  -423.12624327047376
    Total Energy =                       -423.1262432704736511
  Basis Set: CC-PVTZ
  Basis Set:
  Basis Set: CC-PVTZ
  Basis Set:
  @DF-RHF Final Energy:  -423.12631277236926
    Total Energy =                       -423.1263127723692605
  Basis Set: CC-PVTZ
  Basis Set:
  Charge       = 0
  Multiplicity = 1
  Basis Set: CC-PVTZ
  Basis Set:

    Orbital Energies (a.u.)
    -----------------------

    Doubly Occupied:

       1A    -20.595611     2A    -20.529346     3A    -11.366234
       4A    -11.279160     5A    -11.230515     6A    -11.222273
       7A    -11.221310     8A    -11.219832     9A    -11.210773
      10A     -1.470895    11A     -1.363772    12A     -1.091901
      13A     -1.041196    14A     -1.002362    15A     -0.932370
      16A     -0.854642    17A     -0.789653    18A     -0.779033
      19A     -0.693291    20A     -0.688115    21A     -0.669343
      22A     -0.643559    23A     -0.606465    24A     -0.589640
      25A     -0.578607    26A     -0.570943    27A     -0.567115
      28A     -0.529806    29A     -0.525151    30A     -0.514711
      31A     -0.498350    32A     -0.475039    33A     -0.464623
      34A     -0.462580    35A     -0.448863    36A     -0.439279

  @DF-RHF Final Energy:  -423.12631301985607

   => Energetics <=

    Nuclear Repulsion Energy =            457.7276552953476312
    One-Electron Energy =               -1483.3752147817885998
    Two-Electron Energy =                 602.5212464665851257
    DFT Exchange-Correlation Energy =       0.0000000000000000
    Empirical Dispersion Energy =           0.0000000000000000
    PCM Polarization Energy =               0.0000000000000000
    EFP Energy =                            0.0000000000000000
    Total Energy =                       -423.1263130198558429
    Molecular point group: c1
  Basis Set: CC-PVTZ
  Basis Set:

  -Total Gradient:
     Atom            X                  Y                   Z
    ------   -----------------  -----------------  -----------------
       1       -0.000059309062     0.000063161198    -0.000001861885
       2        0.000110001616    -0.000124572986     0.000008564906
       3       -0.000027584729     0.000026354839     0.000002684313
       4       -0.000069605090     0.000021052181    -0.000006073044
       5        0.000003866507    -0.000003667402     0.000004018017
       6        0.000004587394     0.000011262396    -0.000001298323
       7        0.000002042658     0.000000306218    -0.000007467768
       8        0.000044049972     0.000013939579     0.000006925115
       9       -0.001848560363     0.003621648109    -0.004170681692
      10       -0.000004622166    -0.000003896025     0.000000712192
      11       -0.000009886370    -0.000008116780    -0.000006038878
      12       -0.002525265340     0.004581620169     0.002249153798
      13        0.001941072836    -0.003750721762     0.003120526560
      14        0.000001680332    -0.000001244104    -0.000000975111
      15        0.000003070172     0.000004963288     0.000026731665
      16        0.002422765234    -0.004447117372    -0.001215753319
      17        0.000004833556    -0.000003880392     0.000003473912
      18        0.000001604519    -0.000004678198    -0.000004546229
      19        0.000009299059     0.000006506026     0.000000252365
      20       -0.000013048850    -0.000002833027    -0.000002962841
      21        0.000001018530     0.000002375376     0.000000646901
      22       -0.000000224992     0.000000892709    -0.000004817121
      23        0.000008214576    -0.000003354040    -0.000001213531

  **** Optimization is complete! (in 8 steps) ****
    Final optimized geometry and variables:
    Molecular point group: c1

    Geometry (in Angstrom), charge = 0, multiplicity = 1:

    O           -2.603575376564     0.806379543245     0.025168816045
    C           -2.428112348452    -0.363829144407     0.077002657868
    C           -3.542948170820    -1.374034294779     0.115705128119
    O           -1.234236749413    -0.923199565452     0.107558965077
    H           -4.155681015034    -1.243995637110    -0.766230353075
    H           -3.169661313628    -2.384684828351     0.159694221452
    H           -4.161685460022    -1.170382907330     0.979359476937
    C           -0.100961367097    -0.064503746049     0.074248256416
    C            1.127295406607    -0.950329181589     0.120916697202
    H           -0.145254277396     0.534240639584    -0.822728150656
    H           -0.146255009890     0.605008116488     0.921622954205
    C            2.488681545099    -0.218115885874     0.149969216158
    H            1.098446043894    -1.652795150443    -0.703971324082
    H            1.047027339222    -1.566757011606     1.009651409662
    C            2.522739010188     1.224131627272    -0.354111494214
    H            2.900853644715    -0.268277362545     1.152703290905
    H            3.183017400921    -0.795180215792    -0.453354587418
    C            3.928977768401     1.813276335673    -0.313204464556
    H            1.861972837534     1.848051901654     0.238459137994
    H            2.150815342213     1.264504466549    -1.373626768824
    H            4.321223734552     1.818474907286     0.698255584940
    H            3.935672654642     2.834479511326    -0.675803753120
    H            4.612591427281     1.238388383951    -0.928892570698

  Mulliken Charges: (a.u.)
   Center  Symbol    Alpha    Beta     Spin     Total
       1     O     4.20237  4.20237  0.00000 -0.40474
       2     C     2.81805  2.81805  0.00000  0.36389
       3     C     3.14022  3.14022  0.00000 -0.28044
       4     O     4.14518  4.14518  0.00000 -0.29035
       5     H     0.44219  0.44219  0.00000  0.11563
       6     H     0.44177  0.44177  0.00000  0.11646
       7     H     0.44215  0.44215  0.00000  0.11569
       8     C     2.97779  2.97779  0.00000  0.04443
       9     C     3.08918  3.08918  0.00000 -0.17837
      10     H     0.45180  0.45180  0.00000  0.09639
      11     H     0.45253  0.45253  0.00000  0.09493
      12     C     3.09944  3.09944  0.00000 -0.19889
      13     H     0.44843  0.44843  0.00000  0.10314
      14     H     0.44830  0.44830  0.00000  0.10340
      15     C     3.09410  3.09410  0.00000 -0.18821
      16     H     0.44981  0.44981  0.00000  0.10038
      17     H     0.45042  0.45042  0.00000  0.09916
      18     C     3.15036  3.15036  0.00000 -0.30073
      19     H     0.44969  0.44969  0.00000  0.10062
      20     H     0.45052  0.45052  0.00000  0.09896
      21     H     0.45455  0.45455  0.00000  0.09091
      22     H     0.44660  0.44660  0.00000  0.10680
      23     H     0.45454  0.45454  0.00000  0.09093

   Total alpha = 36.00000, Total beta = 36.00000, Total charge =  0.00000

*** Psi4 exiting successfully. Buy a developer a beer!
