  ==> Input File <==

--------------------------------------------------------------------------
set {
	reference rhf
	basis cc-pvtz
}

set_num_threads( 4 )
memory 2 gb

molecule MOL {
0 1

O	 0.074770	 1.259872	 0.000487
C	 0.029490	 0.077183	 0.000078
C	 -1.232113	 -0.748027	 0.000015
O	 1.106773	 -0.690081	 -0.000204
C	 -2.501422	 0.088592	 -0.000052
H	 -1.188777	 -1.400384	 -0.865133
H	 -1.188857	 -1.400312	 0.865225
H	 -2.548170	 0.725504	 -0.873205
H	 -3.371613	 -0.556398	 -0.000040
H	 -2.548215	 0.725571	 0.873047
C	 2.352642	 -0.059271	 -0.218220
H	 2.370606	 0.425988	 -1.182811
H	 3.093107	 -0.841688	 -0.181338
H	 2.547509	 0.675003	 0.549318

	symmetry c1
}
set optking {
	frozen_dihedral = ("
		11 4 2 3
	")
}

ee = optimize('scf')
oeprop('DIPOLE', 'QUADRUPOLE', 'MULLIKEN_CHARGES')
f=open( 'psi4out.xyz', 'w' )
f.write( "14  " )
f.write( str(ee) + "\n" )
f.write( MOL.save_string_xyz() )
f.close()
--------------------------------------------------------------------------

    Molecular point group: c1
  Charge       = 0
  Multiplicity = 1
  Basis Set: CC-PVTZ
  Basis Set:
  @DF-RHF Final Energy:  -305.98708781281175
    Total Energy =                       -305.9870878128118648
    Molecular point group: c1
  Basis Set: CC-PVTZ
  Basis Set:
  Basis Set: CC-PVTZ
  Basis Set:
  @DF-RHF Final Energy:  -305.98618614763552
    Total Energy =                       -305.9861861476355216
  Basis Set: CC-PVTZ
  Basis Set:
  Basis Set: CC-PVTZ
  Basis Set:
  @DF-RHF Final Energy:  -305.98717793882952
    Total Energy =                       -305.9871779388296886
  Basis Set: CC-PVTZ
  Basis Set:
  Basis Set: CC-PVTZ
  Basis Set:
  @DF-RHF Final Energy:  -305.98719771006040
    Total Energy =                       -305.9871977100606273
  Basis Set: CC-PVTZ
  Basis Set:
  Basis Set: CC-PVTZ
  Basis Set:
  @DF-RHF Final Energy:  -305.98721128129711
    Total Energy =                       -305.9872112812970499
  Basis Set: CC-PVTZ
  Basis Set:
  Charge       = 0
  Multiplicity = 1
  Basis Set: CC-PVTZ
  Basis Set:

    Orbital Energies (a.u.)
    -----------------------

    Doubly Occupied:

       1A    -20.596797     2A    -20.535149     3A    -11.365300
       4A    -11.279327     5A    -11.237343     6A    -11.214958
       7A     -1.472837     8A     -1.366793     9A     -1.065452
      10A     -0.981140    11A     -0.879275    12A     -0.770965
      13A     -0.702855    14A     -0.685782    15A     -0.675606
      16A     -0.621687    17A     -0.604307    18A     -0.546905
      19A     -0.538747    20A     -0.522604    21A     -0.515659
      22A     -0.497353    23A     -0.461295    24A     -0.442498

  @DF-RHF Final Energy:  -305.98721168263950

   => Energetics <=

    Nuclear Repulsion Energy =            247.5438169775139272
    One-Electron Energy =                -907.9007819515773008
    Two-Electron Energy =                 354.3697532914234216
    DFT Exchange-Correlation Energy =       0.0000000000000000
    Empirical Dispersion Energy =           0.0000000000000000
    PCM Polarization Energy =               0.0000000000000000
    EFP Energy =                            0.0000000000000000
    Total Energy =                       -305.9872116826400088
    Molecular point group: c1
  Basis Set: CC-PVTZ
  Basis Set:

  -Total Gradient:
     Atom            X                  Y                   Z
    ------   -----------------  -----------------  -----------------
       1        0.000037014823    -0.000055278131     0.000009201566
       2       -0.000238386378     0.000037175775     0.001892237654
       3        0.000051513992    -0.000131185828    -0.002176962383
       4        0.000338739126     0.000679249297     0.002647302102
       5        0.000007865073    -0.000018987678     0.000007033931
       6        0.000005554909    -0.000010873314     0.000002564118
       7       -0.000004052892    -0.000006027989     0.000000187840
       8       -0.000001754726     0.000000023160    -0.000000060878
       9        0.000000916185     0.000002256456    -0.000003103779
      10        0.000002380425     0.000004124256     0.000002260720
      11       -0.000199732016    -0.000514580179    -0.002424126071
      12        0.000002281573     0.000004928788     0.000011543036
      13       -0.000008938533    -0.000000341949     0.000014392843
      14        0.000006598444     0.000009517335     0.000017529303

  **** Optimization is complete! (in 6 steps) ****
    Final optimized geometry and variables:
    Molecular point group: c1

    Geometry (in Angstrom), charge = 0, multiplicity = 1:

    O            0.073576572032     1.259605472361    -0.095451159797
    C            0.029942090678     0.082218481916     0.015577840056
    C           -1.229627963936    -0.745255126884     0.037153050984
    O            1.108927283629    -0.679212930794     0.098633396315
    C           -2.500185470303     0.087902361004     0.088763102962
    H           -1.204603556944    -1.367857161770    -0.851141351033
    H           -1.165253360924    -1.425713426762     0.878188406538
    H           -2.565468079810     0.751065757936    -0.762893853572
    H           -3.369162464431    -0.558674200304     0.088088087624
    H           -2.530243635307     0.697545736404     0.982382757680
    C            2.358982486976    -0.059534979468    -0.127544126248
    H            2.382704438122     0.399523417813    -1.105023560894
    H            3.095516411948    -0.844157852704    -0.066796704664
    H            2.555049835330     0.693915104716     0.620593129969

  Mulliken Charges: (a.u.)
   Center  Symbol    Alpha    Beta     Spin     Total
       1     O     4.19585  4.19585  0.00000 -0.39170
       2     C     2.80276  2.80276  0.00000  0.39447
       3     C     3.09389  3.09389  0.00000 -0.18779
       4     O     4.14749  4.14749  0.00000 -0.29497
       5     C     3.14010  3.14010  0.00000 -0.28021
       6     H     0.44277  0.44277  0.00000  0.11445
       7     H     0.44002  0.44002  0.00000  0.11997
       8     H     0.44690  0.44690  0.00000  0.10620
       9     H     0.45029  0.45029  0.00000  0.09942
      10     H     0.44964  0.44964  0.00000  0.10072
      11     C     3.03606  3.03606  0.00000 -0.07212
      12     H     0.45600  0.45600  0.00000  0.08800
      13     H     0.44551  0.44551  0.00000  0.10899
      14     H     0.45272  0.45272  0.00000  0.09456

   Total alpha = 24.00000, Total beta = 24.00000, Total charge = -0.00000
