  ==> Input File <==

--------------------------------------------------------------------------
set {
	reference rhf
	basis 6-31G*
}

set_num_threads( 1 )
memory 2 gb

molecule MOL {
0 1

H	 2.591676	 2.013956	 0.335017
O	 3.341076	 1.666752	 -0.126416
C	 3.569581	 0.339145	 0.272707
C	 2.539767	 -0.640285	 -0.279495
H	 4.553106	 0.084646	 -0.100901
H	 3.608576	 0.269204	 1.359154
C	 1.795729	 -1.433901	 0.797283
H	 1.825778	 -0.086040	 -0.883149
H	 3.052316	 -1.330165	 -0.947871
C	 0.808568	 -2.446291	 0.209576
H	 1.264170	 -0.743591	 1.446345
H	 2.517113	 -1.960124	 1.422612
C	 0.098435	 -3.327944	 1.243374
H	 0.064915	 -1.917907	 -0.384257
H	 1.345573	 -3.091661	 -0.482396
C	 -0.859810	 -2.582603	 2.176494
H	 -0.461603	 -4.094439	 0.711718
H	 0.842863	 -3.855813	 1.837527
C	 -1.622228	 -3.517144	 3.118187
H	 -1.572903	 -2.015228	 1.580093
H	 -0.312825	 -1.854913	 2.771118
C	 -2.574720	 -2.775120	 4.055109
H	 -2.184581	 -4.239676	 2.530653
H	 -0.911204	 -4.091921	 3.708071
H	 -3.319100	 -2.216080	 3.495112
H	 -3.101264	 -3.464407	 4.708002
H	 -2.037345	 -2.070198	 4.683343

	symmetry c1
}
set optking {
	frozen_dihedral = ("
		14 10 7 4,
		14 10 13 16,
		10 7 4 8,
		10 13 16 20,
		20 16 19 22,
		4 3 2 1
	")
}

ee = energy('scf')
oeprop('DIPOLE', 'QUADRUPOLE', 'MULLIKEN_CHARGES')
f=open( 'psi4out.xyz', 'w' )
f.write( "27  " )
f.write( str(ee) + "\n" )
f.write( MOL.save_string_xyz() )
f.close()
--------------------------------------------------------------------------

    Molecular point group: c1

    Geometry (in Angstrom), charge = 0, multiplicity = 1:

       Center              X                  Y                   Z               Mass
    ------------   -----------------  -----------------  -----------------  -----------------
           H          1.774605353718     3.588356138681    -0.933692311076     1.007825032070
           O          2.524005353718     3.241152138681    -1.395125311076    15.994914619560
           C          2.752510353718     1.913545138681    -0.996002311076    12.000000000000
           C          1.722696353718     0.934115138681    -1.548204311076    12.000000000000
           H          3.736035353718     1.659046138681    -1.369610311076     1.007825032070
           H          2.791505353718     1.843604138681     0.090444688924     1.007825032070
           C          0.978658353718     0.140499138681    -0.471426311076    12.000000000000
           H          1.008707353718     1.488360138681    -2.151858311076     1.007825032070
           H          2.235245353718     0.244235138681    -2.216580311076     1.007825032070
           C         -0.008502646282    -0.871890861319    -1.059133311076    12.000000000000
           H          0.447099353718     0.830809138681     0.177635688924     1.007825032070
           H          1.700042353718    -0.385723861319     0.153902688924     1.007825032070
           C         -0.718635646282    -1.753543861319    -0.025335311076    12.000000000000
           H         -0.752155646282    -0.343506861319    -1.652966311076     1.007825032070
           H          0.528502353718    -1.517260861319    -1.751105311076     1.007825032070
           C         -1.676880646282    -1.008202861319     0.907784688924    12.000000000000
           H         -1.278673646282    -2.520038861319    -0.556991311076     1.007825032070
           H          0.025792353718    -2.281412861319     0.568817688924     1.007825032070
           C         -2.439298646282    -1.942743861319     1.849477688924    12.000000000000
           H         -2.389973646282    -0.440827861319     0.311383688924     1.007825032070
           H         -1.129895646282    -0.280512861319     1.502408688924     1.007825032070
           C         -3.391790646282    -1.200719861319     2.786399688924    12.000000000000
           H         -3.001651646282    -2.665275861319     1.261943688924     1.007825032070
           H         -1.728274646282    -2.517520861319     2.439361688924     1.007825032070
           H         -4.136170646282    -0.641679861319     2.226402688924     1.007825032070
           H         -3.918334646282    -1.890006861319     3.439292688924     1.007825032070
           H         -2.854415646282    -0.495797861319     3.414633688924     1.007825032070

  Charge       = 0
  Multiplicity = 1
  Basis Set: 6-31G*
  Basis Set:

    Orbital Energies (a.u.)
    -----------------------

    Doubly Occupied:

       1A    -20.550714     2A    -11.265513     3A    -11.218980
       4A    -11.216299     5A    -11.216201     6A    -11.215309
       7A    -11.214354     8A    -11.212796     9A    -11.209740
      10A     -1.357817    11A     -1.095223    12A     -1.062068
      13A     -1.011479    14A     -0.946394    15A     -0.884911
      16A     -0.821195    17A     -0.804060    18A     -0.778654
      19A     -0.688939    20A     -0.654332    21A     -0.642850
      22A     -0.608955    23A     -0.600977    24A     -0.584636
      25A     -0.574785    26A     -0.551150    27A     -0.543119
      28A     -0.526395    29A     -0.508689    30A     -0.500470
      31A     -0.483088    32A     -0.474306    33A     -0.463745
      34A     -0.460166    35A     -0.451549    36A     -0.441643
      37A     -0.420911

  @DF-RHF Final Energy:  -388.27523188605176

   => Energetics <=

    Nuclear Repulsion Energy =            455.0504477499881659
    One-Electron Energy =               -1428.1263623578627175
    Two-Electron Energy =                 584.8006827218218859
    DFT Exchange-Correlation Energy =       0.0000000000000000
    Empirical Dispersion Energy =           0.0000000000000000
    PCM Polarization Energy =               0.0000000000000000
    EFP Energy =                            0.0000000000000000
    Total Energy =                       -388.2752318860526657

  Mulliken Charges: (a.u.)
   Center  Symbol    Alpha    Beta     Spin     Total
       1     H     0.28355  0.28355  0.00000  0.43290
       2     O     4.37035  4.37035  0.00000 -0.74071
       3     C     2.99604  2.99604  0.00000  0.00792
       4     C     3.17185  3.17185  0.00000 -0.34369
       5     H     0.41460  0.41460  0.00000  0.17080
       6     H     0.42882  0.42882  0.00000  0.14236
       7     C     3.16012  3.16012  0.00000 -0.32023
       8     H     0.41269  0.41269  0.00000  0.17461
       9     H     0.41865  0.41865  0.00000  0.16271
      10     C     3.15321  3.15321  0.00000 -0.30642
      11     H     0.42406  0.42406  0.00000  0.15188
      12     H     0.42327  0.42327  0.00000  0.15347
      13     C     3.15326  3.15326  0.00000 -0.30652
      14     H     0.42327  0.42327  0.00000  0.15346
      15     H     0.42106  0.42106  0.00000  0.15788
      16     C     3.15267  3.15267  0.00000 -0.30534
      17     H     0.42138  0.42138  0.00000  0.15725
      18     H     0.42392  0.42392  0.00000  0.15215
      19     C     3.15117  3.15117  0.00000 -0.30233
      20     H     0.42466  0.42466  0.00000  0.15067
      21     H     0.42310  0.42310  0.00000  0.15380
      22     C     3.23919  3.23919  0.00000 -0.47838
      23     H     0.42285  0.42285  0.00000  0.15431
      24     H     0.42299  0.42299  0.00000  0.15401
      25     H     0.42186  0.42186  0.00000  0.15628
      26     H     0.41913  0.41913  0.00000  0.16173
      27     H     0.42228  0.42228  0.00000  0.15544

   Total alpha = 37.00000, Total beta = 37.00000, Total charge =  0.00000
