                              Psi4 1.0.54 Driver

  ==> Input File <==

--------------------------------------------------------------------------
set {
	reference rhf
	basis cc-pvtz
}

set_num_threads( 4 )
memory 2 gb

molecule MOL {
0 1

O	 -1.434756	 0.380345	 2.629035
C	 -0.632504	 1.054241	 2.068957
C	 0.632448	 0.448545	 1.493565
C	 -0.836505	 2.539106	 1.883681
C	 0.376695	 -0.140025	 0.100361
H	 0.955106	 -0.336344	 2.165840
H	 1.416891	 1.195965	 1.439925
C	 1.630207	 -0.772146	 -0.501001
H	 -0.416108	 -0.872886	 0.181641
H	 0.015595	 0.639468	 -0.566194
C	 2.907848	 -0.545876	 0.309149
H	 1.772784	 -0.391628	 -1.509394
H	 1.468529	 -1.842059	 -0.599744
C	 3.373802	 0.906639	 0.372125
H	 3.699140	 -1.146831	 -0.127906
H	 2.764321	 -0.923458	 1.318191
H	 3.519798	 1.311927	 -0.623875
H	 4.316899	 0.983758	 0.900700
H	 2.661122	 1.540651	 0.885346
H	 -0.102942	 3.076634	 2.476088
H	 -1.829675	 2.820320	 2.198486
H	 -0.680489	 2.820825	 0.848363

	symmetry c1
}
set optking {
	frozen_dihedral = ("
		3 5 8 12
	")
}

ee,wfn = optimize('scf', return_wfn=True)
oeprop( wfn, 'DIPOLE', 'QUADRUPOLE', 'MULLIKEN_CHARGES')
f=open( 'psi4out.xyz', 'w' )
f.write( "22  " )
f.write( str(ee) + "\n" )
f.write( MOL.save_string_xyz() )
f.close()
--------------------------------------------------------------------------

    Molecular point group: c1
  Charge       = 0
  Multiplicity = 1
  Basis Set: CC-PVTZ
  Basis Set:
  @DF-RHF Final Energy:  -348.19412627041743
    Total Energy =                       -348.1941262704174278
    Molecular point group: c1
  Basis Set: CC-PVTZ
  Basis Set:
  Basis Set: CC-PVTZ
  Basis Set:
  @DF-RHF Final Energy:  -348.20790382311776
    Total Energy =                       -348.2079038231175900
  Basis Set: CC-PVTZ
  Basis Set:
  Basis Set: CC-PVTZ
  Basis Set:
  @DF-RHF Final Energy:  -348.21093610690195
    Total Energy =                       -348.2109361069021247
  Basis Set: CC-PVTZ
  Basis Set:
  Basis Set: CC-PVTZ
  Basis Set:
  @DF-RHF Final Energy:  -348.21003719431621
    Total Energy =                       -348.2100371943162713
  Basis Set: CC-PVTZ
  Basis Set:
  @DF-RHF Final Energy:  -348.21177118489658
    Total Energy =                       -348.2117711848962358
  @DF-RHF Final Energy:  -348.20911221147264
    Total Energy =                       -348.2091122114719610
  @DF-RHF Final Energy:  -348.21200980450823
    Total Energy =                       -348.2120098045082841
  @DF-RHF Final Energy:  -348.21213098178566
    Total Energy =                       -348.2121309817861174
  Basis Set: CC-PVTZ
  Basis Set:
  @DF-RHF Final Energy:  -348.21212701118964
    Total Energy =                       -348.2121270111898070
  Basis Set: CC-PVTZ
  Basis Set:
  Basis Set: CC-PVTZ
  Basis Set:
  @DF-RHF Final Energy:  -348.21216469203341
    Total Energy =                       -348.2121646920336389
  Basis Set: CC-PVTZ
  Basis Set:
  Basis Set: CC-PVTZ
  Basis Set:
  @DF-RHF Final Energy:  -348.21216615704549
    Total Energy =                       -348.2121661570456581
  Basis Set: CC-PVTZ
  Basis Set:
  Charge       = 0
  Multiplicity = 1
  Basis Set: CC-PVTZ
  Basis Set:

    Orbital Energies (a.u.)
    -----------------------

    Doubly Occupied:

       1A    -20.536640     2A    -11.319205     3A    -11.228872
       4A    -11.227217     5A    -11.226950     6A    -11.221350
       7A    -11.220200     8A    -11.213721     9A     -1.396878
      10A     -1.093867    11A     -1.043907    12A     -0.999368
      13A     -0.944662    14A     -0.862597    15A     -0.781301
      16A     -0.734928    17A     -0.663345    18A     -0.655703
      19A     -0.623069    20A     -0.612982    21A     -0.605470
      22A     -0.582404    23A     -0.562014    24A     -0.550532
      25A     -0.536856    26A     -0.522024    27A     -0.508776
      28A     -0.493081    29A     -0.466363    30A     -0.458568
      31A     -0.455983    32A     -0.399250

  @DF-RHF Final Energy:  -348.21216633484988

   => Energetics <=

    Nuclear Repulsion Energy =            380.0733847553778446
    One-Electron Energy =               -1225.0749301464136352
    Two-Electron Energy =                 496.7893790561860214
    DFT Exchange-Correlation Energy =       0.0000000000000000
    Empirical Dispersion Energy =           0.0000000000000000
    PCM Polarization Energy =               0.0000000000000000
    EFP Energy =                            0.0000000000000000
    Total Energy =                       -348.2121663348497123
    Molecular point group: c1
  Basis Set: CC-PVTZ
  Basis Set:

  -Total Gradient:
     Atom            X                  Y                   Z
    ------   -----------------  -----------------  -----------------
       1       -0.000009907555    -0.000024895942    -0.000003368558
       2        0.000020656521     0.000021008409     0.000015630064
       3        0.000397577470     0.003341692931    -0.001543181250
       4       -0.000004709066     0.000001366017    -0.000002340800
       5       -0.000084956928    -0.003972482618     0.002601071313
       6        0.000003952453     0.000001881756     0.000001331718
       7       -0.000001200183    -0.000014727139     0.000002768832
       8       -0.002571330179    -0.003343085411    -0.002765309818
       9       -0.000000527839     0.000003147737    -0.000002845285
      10       -0.000002144142     0.000002789267     0.000000310968
      11        0.000014079523    -0.000009398285     0.000026177061
      12        0.002251797757     0.003981363627     0.001685987426
      13       -0.000002979159    -0.000001226748    -0.000002968100
      14        0.000001402111     0.000000146011    -0.000010153826
      15       -0.000004613543     0.000003555846     0.000007230347
      16       -0.000000434349    -0.000007671581    -0.000001635066
      17       -0.000005161743     0.000011879716     0.000002009800
      18       -0.000000259777     0.000004793034    -0.000000554185
      19       -0.000005721383    -0.000006574336    -0.000003383694
      20        0.000000959808     0.000005188685    -0.000001045466
      21        0.000003793810    -0.000002536770    -0.000001587526
      22       -0.000000273611     0.000003785796    -0.000004143959

  **** Optimization is complete! (in 12 steps) ****
    Final optimized geometry and variables:
    Molecular point group: c1

    Geometry (in Angstrom), charge = 0, multiplicity = 1:

    O           -2.267531963740    -0.445463868193     1.600399312774
    C           -1.560694717978     0.358521996488     1.085547679899
    C           -0.175216904699    -0.016230611807     0.594984336791
    C           -2.005078779731     1.787395553460     0.880722245458
    C           -0.272165103137    -0.648548362015    -0.801998384960
    H            0.232258665792    -0.725651918719     1.302942259577
    H            0.460199692173     0.858443323193     0.582736498510
    C            1.050476128481    -1.115558913774    -1.470281903913
    H           -0.946581269804    -1.491854320392    -0.732041825419
    H           -0.759193186418     0.065490006657    -1.458850314271
    C            2.379786904751    -0.731493206456    -0.803627938377
    H            1.086083340895    -0.709266782451    -2.475479169156
    H            1.019135315550    -2.193622703298    -1.566644726345
    C            2.836696698458     0.697668446156    -1.092088462476
    H            3.142751893244    -1.407261883089    -1.176276688331
    H            2.336630653830    -0.899210324936     0.266306243111
    H            2.995816969515     0.839781859537    -2.155834577220
    H            3.771108293951     0.916257183353    -0.587780703176
    H            2.112001315739     1.436896881435    -0.772613477188
    H           -1.418154193859     2.437664926505     1.521645465758
    H           -3.051042038213     1.890267943881     1.125478036448
    H           -1.829298487732     2.101751878004    -0.141878673200

  Mulliken Charges: (a.u.)
   Center  Symbol    Alpha    Beta     Spin     Total
       1     O     4.17769  4.17769  0.00000 -0.35538
       2     C     2.85538  2.85538  0.00000  0.28924
       3     C     3.10823  3.10823  0.00000 -0.21647
       4     C     3.15769  3.15769  0.00000 -0.31538
       5     C     3.10993  3.10993  0.00000 -0.21986
       6     H     0.43751  0.43751  0.00000  0.12498
       7     H     0.44343  0.44343  0.00000  0.11314
       8     C     3.10008  3.10008  0.00000 -0.20016
       9     H     0.43568  0.43568  0.00000  0.12863
      10     H     0.44832  0.44832  0.00000  0.10336
      11     C     3.10109  3.10109  0.00000 -0.20218
      12     H     0.45160  0.45160  0.00000  0.09680
      13     H     0.44162  0.44162  0.00000  0.11676
      14     C     3.14842  3.14842  0.00000 -0.29684
      15     H     0.44184  0.44184  0.00000  0.11632
      16     H     0.44982  0.44982  0.00000  0.10035
      17     H     0.45266  0.45266  0.00000  0.09467
      18     H     0.44672  0.44672  0.00000  0.10656
      19     H     0.45824  0.45824  0.00000  0.08351
      20     H     0.44835  0.44835  0.00000  0.10331
      21     H     0.43544  0.43544  0.00000  0.12912
      22     H     0.45025  0.45025  0.00000  0.09950

   Total alpha = 32.00000, Total beta = 32.00000, Total charge = -0.00000

*** Psi4 exiting successfully. Buy a developer a beer!
