  ==> Input File <==

--------------------------------------------------------------------------
set {
	reference rhf
	basis 6-31G*
}

set_num_threads( 1 )
memory 2 gb

molecule MOL {
0 1

O	 -2.330649	 -0.403190	 -1.058660
C	 -1.921153	 0.064240	 -0.045697
C	 -2.779908	 0.630789	 1.052441
O	 -0.632575	 0.154573	 0.251549
H	 -2.525990	 1.671847	 1.215753
H	 -3.821131	 0.542214	 0.780695
H	 -2.590656	 0.097848	 1.977057
C	 0.160891	 -1.019931	 0.106212
C	 1.589627	 -0.672828	 0.480843
H	 0.089836	 -1.367806	 -0.916050
H	 -0.238459	 -1.792301	 0.749618
C	 2.246377	 0.346236	 -0.452210
H	 2.163194	 -1.597435	 0.473358
H	 1.604769	 -0.303424	 1.502885
C	 3.691736	 0.652107	 -0.061850
H	 2.219579	 -0.032311	 -1.472055
H	 1.666466	 1.263317	 -0.447249
H	 4.134505	 1.377213	 -0.737283
H	 4.305508	 -0.243868	 -0.089969
H	 3.748266	 1.059562	 0.943567

	symmetry c1
}
set optking {
	frozen_dihedral = ("
		16 12 9 8,
		2 4 8 10,
		12 9 8 10
	")
}

ee = energy('scf')
oeprop('DIPOLE', 'QUADRUPOLE', 'MULLIKEN_CHARGES')
f=open( 'psi4out.xyz', 'w' )
f.write( "20  " )
f.write( str(ee) + "\n" )
f.write( MOL.save_string_xyz() )
f.close()
--------------------------------------------------------------------------

    Molecular point group: c1

    Geometry (in Angstrom), charge = 0, multiplicity = 1:

       Center              X                  Y                   Z               Mass
    ------------   -----------------  -----------------  -----------------  -----------------
           O         -2.324570433088    -0.374856012724    -1.093623294736    15.994914619560
           C         -1.915074433088     0.092573987276    -0.080660294736    12.000000000000
           C         -2.773829433088     0.659122987276     1.017477705264    12.000000000000
           O         -0.626496433088     0.182906987276     0.216585705264    15.994914619560
           H         -2.519911433088     1.700180987276     1.180789705264     1.007825032070
           H         -3.815052433088     0.570547987276     0.745731705264     1.007825032070
           H         -2.584577433088     0.126181987276     1.942093705264     1.007825032070
           C          0.166969566912    -0.991597012724     0.071248705264    12.000000000000
           C          1.595705566912    -0.644494012724     0.445879705264    12.000000000000
           H          0.095914566912    -1.339472012724    -0.951013294736     1.007825032070
           H         -0.232380433088    -1.763967012724     0.714654705264     1.007825032070
           C          2.252455566912     0.374569987276    -0.487173294736    12.000000000000
           H          2.169272566912    -1.569101012724     0.438394705264     1.007825032070
           H          1.610847566912    -0.275090012724     1.467921705264     1.007825032070
           C          3.697814566912     0.680440987276    -0.096813294736    12.000000000000
           H          2.225657566912    -0.003977012724    -1.507018294736     1.007825032070
           H          1.672544566912     1.291650987276    -0.482212294736     1.007825032070
           H          4.140583566912     1.405546987276    -0.772246294736     1.007825032070
           H          4.311586566912    -0.215534012724    -0.124932294736     1.007825032070
           H          3.754344566912     1.087895987276     0.908603705264     1.007825032070

  Charge       = 0
  Multiplicity = 1
  Basis Set: 6-31G*
  Basis Set:

    Orbital Energies (a.u.)
    -----------------------

    Doubly Occupied:

       1A    -20.590973     2A    -20.548703     3A    -11.375076
       4A    -11.288487     5A    -11.233329     6A    -11.227257
       7A    -11.219699     8A    -11.212830     9A     -1.464679
      10A     -1.363477    11A     -1.085854    12A     -1.025450
      13A     -0.984250    14A     -0.882022    15A     -0.810639
      16A     -0.776845    17A     -0.694289    18A     -0.681089
      19A     -0.661483    20A     -0.631183    21A     -0.606674
      22A     -0.592286    23A     -0.575252    24A     -0.554845
      25A     -0.542702    26A     -0.535023    27A     -0.499770
      28A     -0.485156    29A     -0.476425    30A     -0.474037
      31A     -0.447903    32A     -0.435471

  @DF-RHF Final Energy:  -383.93415008382544

   => Energetics <=

    Nuclear Repulsion Energy =            384.8088155853216676
    One-Electron Energy =               -1285.5195702323230762
    Two-Electron Energy =                 516.7766045631759653
    DFT Exchange-Correlation Energy =       0.0000000000000000
    Empirical Dispersion Energy =           0.0000000000000000
    PCM Polarization Energy =               0.0000000000000000
    EFP Energy =                            0.0000000000000000
    Total Energy =                       -383.9341500838254433

  Mulliken Charges: (a.u.)
   Center  Symbol    Alpha    Beta     Spin     Total
       1     O     4.27077  4.27077  0.00000 -0.54153
       2     C     2.62044  2.62044  0.00000  0.75912
       3     C     3.28331  3.28331  0.00000 -0.56662
       4     O     4.31209  4.31209  0.00000 -0.62418
       5     H     0.39946  0.39946  0.00000  0.20109
       6     H     0.39852  0.39852  0.00000  0.20295
       7     H     0.40457  0.40457  0.00000  0.19086
       8     C     3.00493  3.00493  0.00000 -0.00987
       9     C     3.16425  3.16425  0.00000 -0.32851
      10     H     0.40448  0.40448  0.00000  0.19103
      11     H     0.41772  0.41772  0.00000  0.16456
      12     C     3.15487  3.15487  0.00000 -0.30974
      13     H     0.41883  0.41883  0.00000  0.16234
      14     H     0.41479  0.41479  0.00000  0.17043
      15     C     3.24068  3.24068  0.00000 -0.48136
      16     H     0.42095  0.42095  0.00000  0.15811
      17     H     0.40940  0.40940  0.00000  0.18119
      18     H     0.41685  0.41685  0.00000  0.16631
      19     H     0.42214  0.42214  0.00000  0.15573
      20     H     0.42096  0.42096  0.00000  0.15809

   Total alpha = 32.00000, Total beta = 32.00000, Total charge = -0.00000
