  ==> Input File <==

--------------------------------------------------------------------------
set {
	reference rhf
	basis 6-31G*
}

set_num_threads( 4 )
memory 2 gb

molecule MOL {
0 1

H	 -2.698709	 -0.000305	 0.034435
C	 -1.693833	 0.000034	 0.434417
O	 -0.828952	 -0.000968	 -0.659236
H	 -1.574200	 0.882896	 1.055746
H	 -1.574147	 -0.881698	 1.057355
C	 0.559449	 -0.000018	 -0.420814
C	 1.373678	 0.144353	 -1.704989
C	 0.969927	 1.015126	 0.644057
H	 0.741554	 -0.990956	 -0.022178
H	 1.021892	 -0.556633	 -2.454265
H	 2.419947	 -0.065854	 -1.506569
H	 1.315162	 1.146313	 -2.118289
H	 0.338247	 0.917356	 1.520344
H	 1.998544	 0.842038	 0.944810
H	 0.902878	 2.037145	 0.285137

	symmetry c1
}
set optking {
	frozen_dihedral = ("
		9 6 3 2
	")
}

ee = optimize('scf')
oeprop('DIPOLE', 'QUADRUPOLE', 'MULLIKEN_CHARGES')
f=open( 'psi4out.xyz', 'w' )
f.write( "15  " )
f.write( str(ee) + "\n" )
f.write( MOL.save_string_xyz() )
f.close()
--------------------------------------------------------------------------

    Molecular point group: c1
  Charge       = 0
  Multiplicity = 1
  Basis Set: 6-31G*
  Basis Set:
  @DF-RHF Final Energy:  -232.13373450581318
    Total Energy =                       -232.1337345058131518
    Molecular point group: c1
  Basis Set: 6-31G*
  Basis Set:
  Basis Set: 6-31G*
  Basis Set:
  @DF-RHF Final Energy:  -232.13798409296035
    Total Energy =                       -232.1379840929604370
  Basis Set: 6-31G*
  Basis Set:
  Basis Set: 6-31G*
  Basis Set:
  @DF-RHF Final Energy:  -232.13964534528660
    Total Energy =                       -232.1396453452865103
  Basis Set: 6-31G*
  Basis Set:
  Basis Set: 6-31G*
  Basis Set:
  @DF-RHF Final Energy:  -232.13988738486108
    Total Energy =                       -232.1398873848610833
  Basis Set: 6-31G*
  Basis Set:
  Basis Set: 6-31G*
  Basis Set:
  @DF-RHF Final Energy:  -232.13999357158059
    Total Energy =                       -232.1399935715804190
  Basis Set: 6-31G*
  Basis Set:
  Basis Set: 6-31G*
  Basis Set:
  @DF-RHF Final Energy:  -232.14003471378814
    Total Energy =                       -232.1400347137879976
  Basis Set: 6-31G*
  Basis Set:
  Basis Set: 6-31G*
  Basis Set:
  @DF-RHF Final Energy:  -232.14003690567088
    Total Energy =                       -232.1400369056708541
  Basis Set: 6-31G*
  Basis Set:
  Charge       = 0
  Multiplicity = 1
  Basis Set: 6-31G*
  Basis Set:

    Orbital Energies (a.u.)
    -----------------------

    Doubly Occupied:

       1A    -20.549833     2A    -11.274531     3A    -11.262396
       4A    -11.212112     5A    -11.205325     6A     -1.373600
       7A     -1.052580     8A     -0.946774     9A     -0.913037
      10A     -0.789151    11A     -0.675169    12A     -0.639845
      13A     -0.632969    14A     -0.592672    15A     -0.550195
      16A     -0.543000    17A     -0.525473    18A     -0.497842
      19A     -0.494692    20A     -0.450409    21A     -0.408268

  @DF-RHF Final Energy:  -232.14003705272219

   => Energetics <=

    Nuclear Repulsion Energy =            197.8768210562127763
    One-Electron Energy =                -706.8539694375328963
    Two-Electron Energy =                 276.8371113285978709
    DFT Exchange-Correlation Energy =       0.0000000000000000
    Empirical Dispersion Energy =           0.0000000000000000
    PCM Polarization Energy =               0.0000000000000000
    EFP Energy =                            0.0000000000000000
    Total Energy =                       -232.1400370527222776
    Molecular point group: c1
  Basis Set: 6-31G*
  Basis Set:

  -Total Gradient:
     Atom            X                  Y                   Z
    ------   -----------------  -----------------  -----------------
       1       -0.000005282014     0.000002654876     0.000001569230
       2        0.000138543331     0.002926895165     0.000162954050
       3       -0.000064509568    -0.004518693951    -0.001015866573
       4        0.000007691848    -0.000002638920    -0.000008994232
       5        0.000003441886     0.000000920185    -0.000001194668
       6       -0.000843417961     0.002640502240     0.004137285032
       7        0.000017966338     0.000009042282     0.000004724680
       8        0.000001911044    -0.000001878705    -0.000006338078
       9        0.000735759887    -0.001060296310    -0.003265477258
      10        0.000000080388    -0.000001375679     0.000005998690
      11        0.000002018848     0.000003501686    -0.000003126154
      12        0.000004237017     0.000002318762    -0.000005888926
      13        0.000001287195    -0.000001922323    -0.000003148146
      14       -0.000002101799    -0.000001258076    -0.000004609814
      15        0.000002373564     0.000002228766     0.000002112169

  **** Optimization is complete! (in 8 steps) ****
    Final optimized geometry and variables:
    Molecular point group: c1

    Geometry (in Angstrom), charge = 0, multiplicity = 1:

    H           -2.754032486207    -0.306561407713     0.243880736708
    C           -1.771958140407    -0.192636813656     0.683006246009
    O           -0.854664192146    -0.184233249259    -0.364869033467
    H           -1.754483949010     0.731229005985     1.252829869453
    H           -1.598750821544    -1.024395910349     1.364347176679
    C            0.508588085898    -0.278211404456    -0.031787452796
    C            1.264708568462    -0.106708435197    -1.341653594950
    C            0.954877632831     0.744495590676     1.009328610903
    H            0.705056996070    -1.285335503788     0.338709879071
    H            0.912208829321    -0.825716381920    -2.071903240716
    H            2.330035140893    -0.255273430942    -1.195983946950
    H            1.105148253403     0.889050719803    -1.742087831272
    H            0.495545897918     0.578030421298     1.977192685789
    H            2.029839845220     0.685386240753     1.145297704221
    H            0.708071393482     1.749788279498     0.681439353042

  Mulliken Charges: (a.u.)
   Center  Symbol    Alpha    Beta     Spin     Total
       1     H     0.41256  0.41256  0.00000  0.17488
       2     C     3.07945  3.07945  0.00000 -0.15890
       3     O     4.31121  4.31121  0.00000 -0.62243
       4     H     0.42731  0.42731  0.00000  0.14538
       5     H     0.43220  0.43220  0.00000  0.13560
       6     C     2.90710  2.90710  0.00000  0.18579
       7     C     3.24024  3.24024  0.00000 -0.48047
       8     C     3.25759  3.25759  0.00000 -0.51518
       9     H     0.43075  0.43075  0.00000  0.13851
      10     H     0.41141  0.41141  0.00000  0.17718
      11     H     0.42410  0.42410  0.00000  0.15180
      12     H     0.41668  0.41668  0.00000  0.16664
      13     H     0.41728  0.41728  0.00000  0.16544
      14     H     0.41736  0.41736  0.00000  0.16528
      15     H     0.41475  0.41475  0.00000  0.17050

   Total alpha = 21.00000, Total beta = 21.00000, Total charge =  0.00000
