  ==> Input File <==

--------------------------------------------------------------------------
set {
	reference rhf
	basis cc-pvtz
}

set_num_threads( 4 )
memory 2 gb

molecule MOL {
0 1

H	 -3.266631	 0.896998	 1.878171
O	 -2.569869	 0.331678	 1.600445
C	 -2.302264	 0.528872	 0.237390
C	 -1.175688	 -0.398187	 -0.171891
H	 -3.188442	 0.320720	 -0.358542
H	 -2.017673	 1.562349	 0.050941
C	 0.196029	 0.106276	 0.266738
H	 -1.201873	 -0.515469	 -1.250677
H	 -1.365975	 -1.378728	 0.252664
C	 1.330220	 -0.826136	 -0.155230
H	 0.359542	 1.097229	 -0.145561
H	 0.212134	 0.218135	 1.348778
C	 2.719700	 -0.407669	 0.328325
H	 1.339388	 -0.911200	 -1.239363
H	 1.119001	 -1.821953	 0.224128
C	 3.241564	 0.893452	 -0.276737
H	 3.418299	 -1.204729	 0.093035
H	 2.711776	 -0.323368	 1.411960
H	 3.254204	 0.841071	 -1.360784
H	 2.634460	 1.745075	 0.005842
H	 4.254264	 1.092401	 0.054971

	symmetry c1
}
set optking {
	frozen_dihedral = ("
		2 3 4 8
	")
}

ee = optimize('scf')
oeprop('DIPOLE', 'QUADRUPOLE', 'MULLIKEN_CHARGES')
f=open( 'psi4out.xyz', 'w' )
f.write( "21  " )
f.write( str(ee) + "\n" )
f.write( MOL.save_string_xyz() )
f.close()
--------------------------------------------------------------------------

    Molecular point group: c1
  Charge       = 0
  Multiplicity = 1
  Basis Set: CC-PVTZ
  Basis Set:
  @DF-RHF Final Energy:  -310.33203554350609
    Total Energy =                       -310.3320355435060947
    Molecular point group: c1
  Basis Set: CC-PVTZ
  Basis Set:
  Basis Set: CC-PVTZ
  Basis Set:
  @DF-RHF Final Energy:  -310.33224844899325
    Total Energy =                       -310.3322484489929707
  Basis Set: CC-PVTZ
  Basis Set:
  Basis Set: CC-PVTZ
  Basis Set:
  @DF-RHF Final Energy:  -310.33228963325757
    Total Energy =                       -310.3322896332579717
  Basis Set: CC-PVTZ
  Basis Set:
  Basis Set: CC-PVTZ
  Basis Set:
  @DF-RHF Final Energy:  -310.33228714796093
    Total Energy =                       -310.3322871479605283
  Basis Set: CC-PVTZ
  Basis Set:
  Basis Set: CC-PVTZ
  Basis Set:
  @DF-RHF Final Energy:  -310.33229415111487
    Total Energy =                       -310.3322941511148088
  Basis Set: CC-PVTZ
  Basis Set:
  Charge       = 0
  Multiplicity = 1
  Basis Set: CC-PVTZ
  Basis Set:

    Orbital Energies (a.u.)
    -----------------------

    Doubly Occupied:

       1A    -20.545962     2A    -11.265585     3A    -11.209951
       4A    -11.209788     5A    -11.207759     6A    -11.206053
       7A    -11.203572     8A     -1.363465     9A     -1.083252
      10A     -1.031730    11A     -0.954768    12A     -0.876410
      13A     -0.803732    14A     -0.774787    15A     -0.708241
      16A     -0.640958    17A     -0.628482    18A     -0.603428
      19A     -0.585867    20A     -0.570366    21A     -0.534677
      22A     -0.525783    23A     -0.506290    24A     -0.486955
      25A     -0.480813    26A     -0.459280    27A     -0.454145
      28A     -0.446528    29A     -0.427226

  @DF-RHF Final Energy:  -310.33229452104041

   => Energetics <=

    Nuclear Repulsion Energy =            316.3912168819318254
    One-Electron Energy =               -1047.8553107589802948
    Two-Electron Energy =                 421.1317993560082300
    DFT Exchange-Correlation Energy =       0.0000000000000000
    Empirical Dispersion Energy =           0.0000000000000000
    PCM Polarization Energy =               0.0000000000000000
    EFP Energy =                            0.0000000000000000
    Total Energy =                       -310.3322945210402963
    Molecular point group: c1
  Basis Set: CC-PVTZ
  Basis Set:

  -Total Gradient:
     Atom            X                  Y                   Z
    ------   -----------------  -----------------  -----------------
       1       -0.000006552619     0.000002067175     0.000016143475
       2       -0.001520700800    -0.001655855457    -0.000551799318
       3        0.001583469481     0.001604360733     0.000754127209
       4        0.001713177847     0.002496873689    -0.000523755146
       5       -0.000016210351     0.000004229721     0.000011201990
       6       -0.000005002208    -0.000008038050     0.000009392829
       7       -0.000053322354    -0.000024053383    -0.000008365597
       8       -0.001738387713    -0.002414155045     0.000264673670
       9        0.000008100980    -0.000005762818     0.000008475803
      10        0.000006806158     0.000010387991    -0.000013820090
      11       -0.000013173559    -0.000015915042     0.000007965817
      12        0.000011258315     0.000013071477     0.000020817392
      13        0.000013242559    -0.000005391393     0.000000793724
      14       -0.000001884091    -0.000000988166     0.000007065189
      15        0.000013335115     0.000005063523    -0.000002587869
      16       -0.000000762394    -0.000004267019    -0.000004149930
      17        0.000008878548     0.000002520790     0.000004407280
      18       -0.000006504234     0.000001542983    -0.000000638365
      19       -0.000003997747     0.000001905969    -0.000000801763
      20        0.000007348247    -0.000002196654     0.000003251745
      21        0.000000880814    -0.000005401024    -0.000002398046

  **** Optimization is complete! (in 6 steps) ****
    Final optimized geometry and variables:
    Molecular point group: c1

    Geometry (in Angstrom), charge = 0, multiplicity = 1:

    H           -3.372278012900     0.825082942169     1.641115285375
    O           -2.715785831619     0.233110351185     1.323827993493
    C           -2.473977606470     0.463892285775    -0.040905346766
    C           -1.322842564867    -0.419133604470    -0.487803403841
    H           -3.362960162528     0.224834962487    -0.618960331997
    H           -2.238392430246     1.511047438068    -0.217936032624
    C            0.048441049460     0.075204037551    -0.038033213772
    H           -1.358847656955    -0.518738212840    -1.569268577288
    H           -1.503445480317    -1.413128662265    -0.089815745598
    C            1.178312385136    -0.872973875842    -0.433961726087
    H            0.223035071440     1.059244027341    -0.462717580771
    H            0.041916599544     0.198809978252     1.040363983071
    C            2.566349916727    -0.458428844247     0.057371242977
    H            1.199448469881    -0.977403132616    -1.516850020288
    H            0.955196560100    -1.860328021165    -0.039428581545
    C            3.107493751406     0.825745558087    -0.566532067857
    H            3.260565263082    -1.266068612837    -0.154044931444
    H            2.545625033687    -0.352608591353     1.138724502291
    H            3.131130889454     0.752696544353    -1.649302638101
    H            2.505722668185     1.688140315461    -0.306424540672
    H            4.118634938105     1.021186246419    -0.227867605649

  Mulliken Charges: (a.u.)
   Center  Symbol    Alpha    Beta     Spin     Total
       1     H     0.39549  0.39549  0.00000  0.20901
       2     O     4.19968  4.19968  0.00000 -0.39936
       3     C     2.97140  2.97140  0.00000  0.05721
       4     C     3.09110  3.09110  0.00000 -0.18220
       5     H     0.46591  0.46591  0.00000  0.06819
       6     H     0.47497  0.47497  0.00000  0.05006
       7     C     3.09304  3.09304  0.00000 -0.18609
       8     H     0.45275  0.45275  0.00000  0.09451
       9     H     0.45092  0.45092  0.00000  0.09816
      10     C     3.09497  3.09497  0.00000 -0.18993
      11     H     0.45639  0.45639  0.00000  0.08723
      12     H     0.44666  0.44666  0.00000  0.10667
      13     C     3.08978  3.08978  0.00000 -0.17957
      14     H     0.45586  0.45586  0.00000  0.08828
      15     H     0.44878  0.44878  0.00000  0.10245
      16     C     3.15257  3.15257  0.00000 -0.30513
      17     H     0.44921  0.44921  0.00000  0.10158
      18     H     0.45424  0.45424  0.00000  0.09152
      19     H     0.45560  0.45560  0.00000  0.08880
      20     H     0.45393  0.45393  0.00000  0.09213
      21     H     0.44676  0.44676  0.00000  0.10648

   Total alpha = 29.00000, Total beta = 29.00000, Total charge = -0.00000
