  ==> Input File <==

--------------------------------------------------------------------------
set {
	reference rhf
	basis cc-pvtz
}

set_num_threads( 4 )
memory 2 gb

molecule MOL {
0 1

H	 -2.698799	 -0.000846	 0.036018
C	 -1.694291	 -0.000483	 0.434279
O	 -0.828718	 -0.000608	 -0.655022
H	 -1.576855	 0.881100	 1.056504
H	 -1.576401	 -0.881658	 1.057001
C	 -1.145418	 0.790733	 -1.773663
C	 -2.427333	 0.340710	 -2.465360
C	 -1.153004	 2.281243	 -1.453396
H	 -0.321580	 0.602885	 -2.450880
H	 -2.404504	 -0.727354	 -2.643621
H	 -2.525211	 0.843128	 -3.420735
H	 -3.310963	 0.573160	 -1.882481
H	 -0.246409	 2.558954	 -0.929940
H	 -1.204669	 2.854229	 -2.371977
H	 -2.002750	 2.565151	 -0.843585

	symmetry c1
}
set optking {
	frozen_dihedral = ("
		6 3 2 1
	")
}

ee = optimize('scf')
oeprop('DIPOLE', 'QUADRUPOLE', 'MULLIKEN_CHARGES')
f=open( 'psi4out.xyz', 'w' )
f.write( "15  " )
f.write( str(ee) + "\n" )
f.write( MOL.save_string_xyz() )
f.close()
--------------------------------------------------------------------------

    Molecular point group: c1
  Charge       = 0
  Multiplicity = 1
  Basis Set: CC-PVTZ
  Basis Set:
  @DF-RHF Final Energy:  -232.22312308926195
    Total Energy =                       -232.2231230892620033
    Molecular point group: c1
  Basis Set: CC-PVTZ
  Basis Set:
  Basis Set: CC-PVTZ
  Basis Set:
  @DF-RHF Final Energy:  -232.22500620517326
    Total Energy =                       -232.2250062051734290
  Basis Set: CC-PVTZ
  Basis Set:
  Basis Set: CC-PVTZ
  Basis Set:
  @DF-RHF Final Energy:  -232.22566901815730
    Total Energy =                       -232.2256690181573617
  Basis Set: CC-PVTZ
  Basis Set:
  Basis Set: CC-PVTZ
  Basis Set:
  @DF-RHF Final Energy:  -232.22568716312117
    Total Energy =                       -232.2256871631212221
  Basis Set: CC-PVTZ
  Basis Set:
  Basis Set: CC-PVTZ
  Basis Set:
  @DF-RHF Final Energy:  -232.22569352712355
    Total Energy =                       -232.2256935271236671
  Basis Set: CC-PVTZ
  Basis Set:
  Charge       = 0
  Multiplicity = 1
  Basis Set: CC-PVTZ
  Basis Set:

    Orbital Energies (a.u.)
    -----------------------

    Doubly Occupied:

       1A    -20.541151     2A    -11.272815     3A    -11.258850
       4A    -11.209476     5A    -11.207934     6A     -1.373048
       7A     -1.051341     8A     -0.940790     9A     -0.931195
      10A     -0.781614    11A     -0.676652    12A     -0.641844
      13A     -0.634424    14A     -0.572817    15A     -0.564126
      16A     -0.553248    17A     -0.535175    18A     -0.499906
      19A     -0.497806    20A     -0.444772    21A     -0.408043

  @DF-RHF Final Energy:  -232.22569361147643

   => Energetics <=

    Nuclear Repulsion Energy =            199.0697470826189317
    One-Electron Energy =                -709.3968246606799539
    Two-Electron Energy =                 278.1013839665847058
    DFT Exchange-Correlation Energy =       0.0000000000000000
    Empirical Dispersion Energy =           0.0000000000000000
    PCM Polarization Energy =               0.0000000000000000
    EFP Energy =                            0.0000000000000000
    Total Energy =                       -232.2256936114762880
    Molecular point group: c1
  Basis Set: CC-PVTZ
  Basis Set:

  -Total Gradient:
     Atom            X                  Y                   Z
    ------   -----------------  -----------------  -----------------
       1        0.000226380228     0.001473963352    -0.000108496393
       2       -0.000392525418    -0.002403932288    -0.000024155202
       3        0.000957158876     0.001870965036     0.000588354459
       4       -0.000005227354     0.000008845057    -0.000046242480
       5       -0.000060425516     0.000011366883     0.000061462304
       6       -0.000681371009    -0.000905865671    -0.000513184986
       7       -0.000010024978     0.000057723694    -0.000060638246
       8       -0.000027808412    -0.000050905431     0.000077681975
       9        0.000016446534    -0.000018573507     0.000001070679
      10        0.000000447885    -0.000001028883     0.000015299556
      11       -0.000023822277    -0.000017326633    -0.000000581721
      12        0.000024758668     0.000004319692    -0.000035738391
      13       -0.000000945342    -0.000009424455     0.000007412200
      14        0.000000495368    -0.000045211898     0.000005488034
      15       -0.000023537251     0.000025085050     0.000032268209

  **** Optimization is complete! (in 6 steps) ****
    Final optimized geometry and variables:
    Molecular point group: c1

    Geometry (in Angstrom), charge = 0, multiplicity = 1:

    H           -1.270199006608    -0.514764713345     1.366361701479
    C           -0.221093193352    -0.621069081932     1.619692374125
    O            0.597391754981    -0.713513508328     0.496952031279
    H            0.058589303838     0.217776902670     2.250535411044
    H           -0.095899513531    -1.531691284945     2.188198124152
    C            0.319236691727     0.103480478486    -0.613276958366
    C           -0.938028554233    -0.339205084061    -1.353770077600
    C            0.296753447966     1.586016701288    -0.260488126119
    H            1.163806848520    -0.068676741857    -1.268890927350
    H           -0.893734582097    -1.400800728382    -1.562447621146
    H           -1.017836373448     0.190999473325    -2.296006561450
    H           -1.841190513441    -0.138333182541    -0.789678601355
    H            1.198111385406     1.861930556809     0.273232426869
    H            0.242312785013     2.180236130636    -1.165122429606
    H           -0.558025993841     1.844567251490     0.354309054620

  Mulliken Charges: (a.u.)
   Center  Symbol    Alpha    Beta     Spin     Total
       1     H     0.47054  0.47054  0.00000  0.05893
       2     C     3.04015  3.04015  0.00000 -0.08029
       3     O     4.18438  4.18438  0.00000 -0.36877
       4     H     0.46566  0.46566  0.00000  0.06867
       5     H     0.44291  0.44291  0.00000  0.11419
       6     C     2.93643  2.93643  0.00000  0.12714
       7     C     3.15340  3.15340  0.00000 -0.30681
       8     C     3.16034  3.16034  0.00000 -0.32068
       9     H     0.44680  0.44680  0.00000  0.10641
      10     H     0.44471  0.44471  0.00000  0.11058
      11     H     0.45139  0.45139  0.00000  0.09721
      12     H     0.45617  0.45617  0.00000  0.08766
      13     H     0.44401  0.44401  0.00000  0.11198
      14     H     0.44817  0.44817  0.00000  0.10367
      15     H     0.45494  0.45494  0.00000  0.09012

   Total alpha = 21.00000, Total beta = 21.00000, Total charge = -0.00000
