                              Psi4 1.0.54 Driver

  ==> Input File <==

--------------------------------------------------------------------------
set {
	reference rhf
	basis cc-pvtz
}

set_num_threads( 4 )
memory 2 gb

molecule MOL {
0 1

O	 -2.071633	 -1.227563	 -0.223463
C	 -1.652164	 -0.152425	 0.058082
C	 -0.327811	 0.006324	 0.778296
C	 -2.402515	 1.108629	 -0.298924
C	 0.843231	 -0.001575	 -0.211665
H	 -0.319484	 0.928173	 1.350354
H	 -0.227804	 -0.823091	 1.466705
C	 2.197693	 0.138030	 0.476937
H	 0.722944	 0.805202	 -0.930230
H	 0.813976	 -0.926978	 -0.776588
C	 2.270130	 -0.613892	 1.801523
H	 2.978407	 -0.223201	 -0.186781
H	 2.403943	 1.190640	 0.647266
H	 2.102433	 -1.676239	 1.658934
H	 1.521166	 -0.252205	 2.497658
H	 3.241055	 -0.492328	 2.267277
H	 -3.240910	 0.874416	 -0.936711
H	 -1.747554	 1.818823	 -0.790984
H	 -2.760419	 1.579708	 0.610998

	symmetry c1
}
set optking {
	frozen_dihedral = ("
		11 8 5 9
	")
}

ee,wfn = optimize('scf', return_wfn=True)
oeprop( wfn, 'DIPOLE', 'QUADRUPOLE', 'MULLIKEN_CHARGES')
f=open( 'psi4out.xyz', 'w' )
f.write( "19  " )
f.write( str(ee) + "\n" )
f.write( MOL.save_string_xyz() )
f.close()
--------------------------------------------------------------------------

    Molecular point group: c1
  Charge       = 0
  Multiplicity = 1
  Basis Set: CC-PVTZ
  Basis Set:
  @DF-RHF Final Energy:  -309.17108432437095
    Total Energy =                       -309.1710843243707814
    Molecular point group: c1
  Basis Set: CC-PVTZ
  Basis Set:
  Basis Set: CC-PVTZ
  Basis Set:
  @DF-RHF Final Energy:  -308.64985740965091
    Total Energy =                       -308.6498574096507355
  Basis Set: CC-PVTZ
  Basis Set:
  Basis Set: CC-PVTZ
  Basis Set:
  @DF-RHF Final Energy:  -308.84725176545481
    Total Energy =                       -308.8472517654549847
  Basis Set: CC-PVTZ
  Basis Set:
  Basis Set: CC-PVTZ
  Basis Set:
  @DF-RHF Final Energy:  -309.08956086661198
    Total Energy =                       -309.0895608666118051
  Basis Set: CC-PVTZ
  Basis Set:
  @DF-RHF Final Energy:  -309.16286149981647
    Total Energy =                       -309.1628614998165290
  @DF-RHF Final Energy:  -309.17028027567812
    Total Energy =                       -309.1702802756780102
  @DF-RHF Final Energy:  -309.17271823824314
    Total Energy =                       -309.1727182382429646
  @DF-RHF Final Energy:  -309.17305498886719
    Total Energy =                       -309.1730549888674204
  @DF-RHF Final Energy:  -309.17114578834918
    Total Energy =                       -309.1711457883494063
  @DF-RHF Final Energy:  -309.17311961093361
    Total Energy =                       -309.1731196109337816
  @DF-RHF Final Energy:  -309.17315002667215
    Total Energy =                       -309.1731500266724311
  Basis Set: CC-PVTZ
  Basis Set:
  @DF-RHF Final Energy:  -309.17311085448853
    Total Energy =                       -309.1731108544885274
  Basis Set: CC-PVTZ
  Basis Set:
  Basis Set: CC-PVTZ
  Basis Set:
  @DF-RHF Final Energy:  -309.17315247914797
    Total Energy =                       -309.1731524791477455
  Basis Set: CC-PVTZ
  Basis Set:
  Basis Set: CC-PVTZ
  Basis Set:
  @DF-RHF Final Energy:  -309.17315482069858
    Total Energy =                       -309.1731548206986417
  Basis Set: CC-PVTZ
  Basis Set:
  Charge       = 0
  Multiplicity = 1
  Basis Set: CC-PVTZ
  Basis Set:

    Orbital Energies (a.u.)
    -----------------------

    Doubly Occupied:

       1A    -20.536582     2A    -11.319146     3A    -11.229372
       4A    -11.227199     5A    -11.226958     6A    -11.223746
       7A    -11.213266     8A     -1.396808     9A     -1.091843
      10A     -1.028173    11A     -0.981732    12A     -0.903142
      13A     -0.796493    14A     -0.735296    15A     -0.662583
      16A     -0.653701    17A     -0.624303    18A     -0.604240
      19A     -0.589184    20A     -0.577972    21A     -0.551025
      22A     -0.545315    23A     -0.516027    24A     -0.505599
      25A     -0.482488    26A     -0.468880    27A     -0.464842
      28A     -0.399599

  @DF-RHF Final Energy:  -309.17315579552172

   => Energetics <=

    Nuclear Repulsion Energy =            305.6715803568429806
    One-Electron Energy =               -1024.5784433117530625
    Two-Electron Energy =                 409.7337071593885867
    DFT Exchange-Correlation Energy =       0.0000000000000000
    Empirical Dispersion Energy =           0.0000000000000000
    PCM Polarization Energy =               0.0000000000000000
    EFP Energy =                            0.0000000000000000
    Total Energy =                       -309.1731557955215521
    Molecular point group: c1
  Basis Set: CC-PVTZ
  Basis Set:

  -Total Gradient:
     Atom            X                  Y                   Z
    ------   -----------------  -----------------  -----------------
       1        0.000060307313     0.000070229499     0.000086585917
       2       -0.000046077970    -0.000034843872    -0.000027996352
       3       -0.000054794697    -0.000005775497     0.000012335426
       4        0.000048425549    -0.000033796692    -0.000049671065
       5        0.002409934661    -0.001968626723    -0.003920803643
       6       -0.000007408246    -0.000012132776    -0.000020815625
       7        0.000023559732     0.000019907200    -0.000000222275
       8        0.000399890836    -0.003594278300    -0.003136482607
       9       -0.002156693599     0.002623311612     0.004245275777
      10        0.000006087931     0.000009047422     0.000010838790
      11       -0.000626432449     0.002928619586     0.002794851470
      12        0.000002750404     0.000009225610    -0.000000602730
      13       -0.000009003803    -0.000011325010    -0.000008609301
      14        0.000007207249     0.000007516169     0.000012357154
      15       -0.000009102449     0.000000567439    -0.000006067235
      16       -0.000006493337     0.000008150582    -0.000009205550
      17        0.000003210127     0.000008255426     0.000031836382
      18       -0.000029140838    -0.000008190430     0.000008201028
      19       -0.000016226418    -0.000015861244    -0.000021805564

  **** Optimization is complete! (in 15 steps) ****
    Final optimized geometry and variables:
    Molecular point group: c1

    Geometry (in Angstrom), charge = 0, multiplicity = 1:

    O           -1.854412189915     0.246018549699    -1.380229892348
    C           -1.178944662173     0.810675257177    -0.582654045064
    C           -0.312470733043     0.039519229990     0.392886835385
    C           -1.137092055929     2.318491504448    -0.507353461792
    C            1.031683423202    -0.323044099077    -0.258880288344
    H           -0.142991257885     0.628546169758     1.288637953893
    H           -0.853854607086    -0.854220997510     0.668176749233
    C            2.029454247126    -1.016182778947     0.680227734495
    H            1.483876843991     0.601750450530    -0.604087791677
    H            0.834612185627    -0.939955010969    -1.127199271446
    C            1.438650645207    -2.055805263231     1.629145416251
    H            2.804956697601    -1.474462944382     0.076203214928
    H            2.525501426974    -0.257685636372     1.279741036448
    H            0.899180014335    -2.829063677407     1.091697512640
    H            0.755857050703    -1.608973627590     2.340710718915
    H            2.227426176787    -2.538903778563     2.193773659051
    H           -1.659435923436     2.747603717049    -1.348483579554
    H           -0.113878660253     2.675626013199    -0.482663605003
    H           -1.611403450990     2.640311234255     0.414372579598

  Mulliken Charges: (a.u.)
   Center  Symbol    Alpha    Beta     Spin     Total
       1     O     4.17709  4.17709  0.00000 -0.35419
       2     C     2.85890  2.85890  0.00000  0.28221
       3     C     3.10373  3.10373  0.00000 -0.20746
       4     C     3.15533  3.15533  0.00000 -0.31066
       5     C     3.10326  3.10326  0.00000 -0.20652
       6     H     0.44867  0.44867  0.00000  0.10265
       7     H     0.43662  0.43662  0.00000  0.12675
       8     C     3.08969  3.08969  0.00000 -0.17937
       9     H     0.44888  0.44888  0.00000  0.10224
      10     H     0.43884  0.43884  0.00000  0.12231
      11     C     3.15649  3.15649  0.00000 -0.31298
      12     H     0.44658  0.44658  0.00000  0.10683
      13     H     0.45388  0.45388  0.00000  0.09224
      14     H     0.45056  0.45056  0.00000  0.09887
      15     H     0.45233  0.45233  0.00000  0.09534
      16     H     0.44397  0.44397  0.00000  0.11206
      17     H     0.43574  0.43574  0.00000  0.12851
      18     H     0.45113  0.45113  0.00000  0.09773
      19     H     0.44829  0.44829  0.00000  0.10342

   Total alpha = 28.00000, Total beta = 28.00000, Total charge = -0.00000

*** Psi4 exiting successfully. Buy a developer a beer!
