  ==> Input File <==

--------------------------------------------------------------------------
set {
	reference rhf
	basis cc-pvtz
}

set_num_threads( 4 )
memory 2 gb

molecule MOL {
0 1

O	 1.847685	 1.294399	 -0.000190
C	 1.704209	 0.119472	 -0.000093
C	 0.380337	 -0.600947	 -0.000234
O	 2.715427	 -0.733672	 0.000025
C	 -0.824290	 0.329213	 -0.000115
H	 0.371455	 -1.255476	 -0.865660
H	 0.371410	 -1.255787	 0.864952
C	 -2.146151	 -0.432825	 -0.000068
H	 -0.773936	 0.979158	 -0.866319
H	 -0.773838	 0.979034	 0.866186
C	 -3.366283	 0.483552	 0.000557
H	 -2.189286	 -1.084450	 -0.869996
H	 -2.188867	 -1.085083	 0.869399
C	 -4.073291	 0.538794	 1.350557
H	 -4.066148	 0.148126	 -0.759598
H	 -3.061491	 1.485491	 -0.288200
H	 -4.420961	 -0.444048	 1.651192
H	 -4.933706	 1.197004	 1.316200
H	 -3.408484	 0.904266	 2.126248
C	 4.020999	 -0.192556	 0.000019
H	 4.182809	 0.412891	 -0.879449
H	 4.692590	 -1.035653	 0.000152
H	 4.182726	 0.413087	 0.879368

	symmetry c1
}
set optking {
	frozen_dihedral = ("
		15 11 8 12
	")
}

ee = optimize('scf')
oeprop('DIPOLE', 'QUADRUPOLE', 'MULLIKEN_CHARGES')
f=open( 'psi4out.xyz', 'w' )
f.write( "23  " )
f.write( str(ee) + "\n" )
f.write( MOL.save_string_xyz() )
f.close()
--------------------------------------------------------------------------

    Molecular point group: c1
  Charge       = 0
  Multiplicity = 1
  Basis Set: CC-PVTZ
  Basis Set:
  @DF-RHF Final Energy:  -423.12587475136610
    Total Energy =                       -423.1258747513663820
    Molecular point group: c1
  Basis Set: CC-PVTZ
  Basis Set:
  Basis Set: CC-PVTZ
  Basis Set:
  @DF-RHF Final Energy:  -423.12616451298749
    Total Energy =                       -423.1261645129879980
  Basis Set: CC-PVTZ
  Basis Set:
  Basis Set: CC-PVTZ
  Basis Set:
  @DF-RHF Final Energy:  -423.12623323589457
    Total Energy =                       -423.1262332358942331
  Basis Set: CC-PVTZ
  Basis Set:
  Basis Set: CC-PVTZ
  Basis Set:
  @DF-RHF Final Energy:  -423.12620775091301
    Total Energy =                       -423.1262077509129540
  Basis Set: CC-PVTZ
  Basis Set:
  Basis Set: CC-PVTZ
  Basis Set:
  @DF-RHF Final Energy:  -423.12623441972721
    Total Energy =                       -423.1262344197274388
  Basis Set: CC-PVTZ
  Basis Set:
  Charge       = 0
  Multiplicity = 1
  Basis Set: CC-PVTZ
  Basis Set:

    Orbital Energies (a.u.)
    -----------------------

    Doubly Occupied:

       1A    -20.596361     2A    -20.534179     3A    -11.364659
       4A    -11.278514     5A    -11.233675     6A    -11.217739
       7A    -11.215534     8A    -11.214211     9A    -11.207891
      10A     -1.472257    11A     -1.365831    12A     -1.093470
      13A     -1.043167    14A     -0.987439    15A     -0.932186
      16A     -0.848621    17A     -0.792976    18A     -0.769699
      19A     -0.699018    20A     -0.686579    21A     -0.675947
      22A     -0.643710    23A     -0.614959    24A     -0.598903
      25A     -0.583879    26A     -0.565047    27A     -0.539711
      28A     -0.529541    29A     -0.523191    30A     -0.504504
      31A     -0.496022    32A     -0.468385    33A     -0.462847
      34A     -0.461291    35A     -0.455766    36A     -0.438352

  @DF-RHF Final Energy:  -423.12623457556521

   => Energetics <=

    Nuclear Repulsion Energy =            455.2272204222555843
    One-Electron Energy =               -1478.4747854200727488
    Two-Electron Energy =                 600.1213304222519582
    DFT Exchange-Correlation Energy =       0.0000000000000000
    Empirical Dispersion Energy =           0.0000000000000000
    PCM Polarization Energy =               0.0000000000000000
    EFP Energy =                            0.0000000000000000
    Total Energy =                       -423.1262345755651495
    Molecular point group: c1
  Basis Set: CC-PVTZ
  Basis Set:

  -Total Gradient:
     Atom            X                  Y                   Z
    ------   -----------------  -----------------  -----------------
       1        0.000001002589     0.000012017639    -0.000029700859
       2       -0.000001624291    -0.000014366677     0.000069005089
       3        0.000009546868     0.000001923508    -0.000015534389
       4        0.000016470741    -0.000009502703    -0.000016780044
       5       -0.000012774094    -0.000012774829    -0.000001564964
       6       -0.000002097560     0.000000055348    -0.000004377267
       7        0.000003453942     0.000006179145    -0.000007427395
       8        0.001977075637     0.002810027796    -0.002290739946
       9       -0.000012080312    -0.000002107999     0.000005907028
      10       -0.000010892299    -0.000011013754    -0.000000692421
      11       -0.001782941225    -0.002576343484     0.002706209168
      12       -0.001361589663    -0.001913134126     0.001486285249
      13        0.000003682256     0.000001785977     0.000007983349
      14       -0.000001909441     0.000010136714    -0.000013271872
      15        0.001173852643     0.001679687677    -0.001877526826
      16       -0.000002753373     0.000009151981     0.000007641309
      17        0.000008287686     0.000006440095    -0.000015132079
      18       -0.000006815637     0.000005218119     0.000005038200
      19        0.000003519645    -0.000006032943    -0.000013561936
      20       -0.000000144736     0.000004784624    -0.000001227035
      21        0.000000437998     0.000000455856    -0.000002522798
      22       -0.000001013110    -0.000002553804    -0.000000259982
      23       -0.000000694261    -0.000000034160     0.000002250420

  **** Optimization is complete! (in 6 steps) ****
    Final optimized geometry and variables:
    Molecular point group: c1

    Geometry (in Angstrom), charge = 0, multiplicity = 1:

    O            1.772905524531     1.201164852997    -0.164190978095
    C            1.631984955177     0.025923211714    -0.155019582905
    C            0.309652860499    -0.697229738872    -0.159564632093
    O            2.645061659192    -0.824879488685    -0.139140296542
    C           -0.896386522255     0.230309998061    -0.181916482215
    H            0.309829913622    -1.361618112736    -1.017563562339
    H            0.293774179391    -1.342146592280     0.712916186913
    C           -2.217672828656    -0.533201319562    -0.193330350165
    H           -0.837590307061     0.873303953834    -1.052480519001
    H           -0.858590555076     0.887671550827     0.679714561503
    C           -3.455856468689     0.381852750121    -0.151543127110
    H           -2.262792306312    -1.179607721532    -1.064550726078
    H           -2.244978217680    -1.206264739849     0.660307906809
    C           -4.120445343856     0.451424189819     1.219401407037
    H           -4.177917038892     0.060594109286    -0.894202933248
    H           -3.165862830434     1.384235784539    -0.452460024554
    H           -4.490649505173    -0.521839131614     1.523483897514
    H           -4.958460804953     1.139062025901     1.215809556787
    H           -3.420109340179     0.788769847277     1.976575652774
    C            3.949335598840    -0.280837942171    -0.132810107662
    H            4.117253052193     0.317521720309    -1.015993177366
    H            4.622787698966    -1.122371408058    -0.119931158843
    H            4.102448529360     0.332577302289     0.742703493354

  Mulliken Charges: (a.u.)
   Center  Symbol    Alpha    Beta     Spin     Total
       1     O     4.19702  4.19702  0.00000 -0.39403
       2     C     2.80610  2.80610  0.00000  0.38780
       3     C     3.10293  3.10293  0.00000 -0.20586
       4     O     4.14647  4.14647  0.00000 -0.29294
       5     C     3.08360  3.08360  0.00000 -0.16720
       6     H     0.43995  0.43995  0.00000  0.12010
       7     H     0.43964  0.43964  0.00000  0.12073
       8     C     3.09859  3.09859  0.00000 -0.19718
       9     H     0.44575  0.44575  0.00000  0.10850
      10     H     0.44562  0.44562  0.00000  0.10876
      11     C     3.09109  3.09109  0.00000 -0.18218
      12     H     0.44811  0.44811  0.00000  0.10378
      13     H     0.45668  0.45668  0.00000  0.08664
      14     C     3.14700  3.14700  0.00000 -0.29399
      15     H     0.44813  0.44813  0.00000  0.10375
      16     H     0.45306  0.45306  0.00000  0.09388
      17     H     0.45533  0.45533  0.00000  0.08935
      18     H     0.44871  0.44871  0.00000  0.10258
      19     H     0.45449  0.45449  0.00000  0.09102
      20     C     3.03772  3.03772  0.00000 -0.07544
      21     H     0.45434  0.45434  0.00000  0.09132
      22     H     0.44534  0.44534  0.00000  0.10933
      23     H     0.45436  0.45436  0.00000  0.09128

   Total alpha = 36.00000, Total beta = 36.00000, Total charge = -0.00000
