                              Psi4 1.0.54 Driver

  ==> Input File <==

--------------------------------------------------------------------------
set {
	reference rhf
	basis cc-pvtz
}

set_num_threads( 4 )
memory 2 gb

molecule MOL {
0 1

H	 0.401447	 2.659561	 0.882102
C	 0.882231	 1.720998	 0.574232
C	 0.062554	 0.862911	 -0.350953
O	 1.966629	 1.456403	 0.963108
C	 -1.339253	 0.577611	 0.196911
H	 0.607026	 -0.052135	 -0.545204
H	 -0.023773	 1.407903	 -1.288292
C	 -1.813142	 -0.849710	 -0.061612
H	 -2.032833	 1.276441	 -0.256032
H	 -1.357249	 0.782269	 1.263793
H	 -1.839268	 -1.063526	 -1.124230
H	 -2.810118	 -1.001930	 0.334000
H	 -1.159274	 -1.579980	 0.402282

	symmetry c1
}
set optking {
	frozen_dihedral = ("
		6 3 5 9
	")
}

ee,wfn = optimize('scf', return_wfn=True)
oeprop( wfn, 'DIPOLE', 'QUADRUPOLE', 'MULLIKEN_CHARGES')
f=open( 'psi4out.xyz', 'w' )
f.write( "13  " )
f.write( str(ee) + "\n" )
f.write( MOL.save_string_xyz() )
f.close()
--------------------------------------------------------------------------

    Molecular point group: c1
  Charge       = 0
  Multiplicity = 1
  Basis Set: CC-PVTZ
  Basis Set:
  @DF-RHF Final Energy:  -231.06688252672282
    Total Energy =                       -231.0668825267228499
    Molecular point group: c1
  Basis Set: CC-PVTZ
  Basis Set:
  Basis Set: CC-PVTZ
  Basis Set:
  @DF-RHF Final Energy:  -231.06665141820940
    Total Energy =                       -231.0666514182091476
  Basis Set: CC-PVTZ
  Basis Set:
  Basis Set: CC-PVTZ
  Basis Set:
  @DF-RHF Final Energy:  -231.06426018032650
    Total Energy =                       -231.0642601803264711
  Basis Set: CC-PVTZ
  Basis Set:
  Basis Set: CC-PVTZ
  Basis Set:
  @DF-RHF Final Energy:  -231.06723711848610
    Total Energy =                       -231.0672371184862754
  Basis Set: CC-PVTZ
  Basis Set:
  Basis Set: CC-PVTZ
  Basis Set:
  @DF-RHF Final Energy:  -231.06727979191854
    Total Energy =                       -231.0672797919187644
  Basis Set: CC-PVTZ
  Basis Set:
  Basis Set: CC-PVTZ
  Basis Set:
  @DF-RHF Final Energy:  -231.06728447873098
    Total Energy =                       -231.0672844787309828
  Basis Set: CC-PVTZ
  Basis Set:
  Basis Set: CC-PVTZ
  Basis Set:
  @DF-RHF Final Energy:  -231.06728660456935
    Total Energy =                       -231.0672866045694605
  Basis Set: CC-PVTZ
  Basis Set:
  Charge       = 0
  Multiplicity = 1
  Basis Set: CC-PVTZ
  Basis Set:

    Orbital Energies (a.u.)
    -----------------------

    Doubly Occupied:

       1A    -20.551951     2A    -11.322056     3A    -11.237414
       4A    -11.234499     5A    -11.221490     6A     -1.407050
       7A     -1.086091     8A     -0.977357     9A     -0.840144
      10A     -0.796113    11A     -0.675348    12A     -0.645667
      13A     -0.637347    14A     -0.586870    15A     -0.557440
      16A     -0.540948    17A     -0.507503    18A     -0.494912
      19A     -0.481864    20A     -0.413339

  @DF-RHF Final Energy:  -231.06728705937388

   => Energetics <=

    Nuclear Repulsion Energy =            170.9167879403644861
    One-Electron Energy =                -651.5373451662576372
    Two-Electron Energy =                 249.5532701665194395
    DFT Exchange-Correlation Energy =       0.0000000000000000
    Empirical Dispersion Energy =           0.0000000000000000
    PCM Polarization Energy =               0.0000000000000000
    EFP Energy =                            0.0000000000000000
    Total Energy =                       -231.0672870593737116
    Molecular point group: c1
  Basis Set: CC-PVTZ
  Basis Set:

  -Total Gradient:
     Atom            X                  Y                   Z
    ------   -----------------  -----------------  -----------------
       1        0.000024903075    -0.000020754274    -0.000008337714
       2        0.000034282484     0.000031160196     0.000045634848
       3        0.001496540977    -0.000469177957     0.003385250854
       4       -0.000058598923     0.000009488629     0.000001813403
       5        0.000258838657     0.002682667549     0.002395677201
       6       -0.001220361253    -0.000038680928    -0.003253143572
       7       -0.000020006028    -0.000015346659     0.000016756499
       8       -0.000004599871    -0.000015735755    -0.000009853362
       9       -0.000522471467    -0.002188767682    -0.002575587466
      10        0.000000053407    -0.000006671803    -0.000006403244
      11       -0.000001768192     0.000002734356     0.000030614132
      12        0.000029451868     0.000006060789    -0.000013743552
      13       -0.000016264730     0.000023023537    -0.000008678027

  **** Optimization is complete! (in 8 steps) ****
    Final optimized geometry and variables:
    Molecular point group: c1

    Geometry (in Angstrom), charge = 0, multiplicity = 1:

    H            0.406807479456     1.891444083821     0.671051769760
    C            0.917772113915     0.981847181864     0.328757523241
    C            0.114713312128     0.108250724840    -0.593066250370
    O            2.020222944827     0.751746350761     0.687957834026
    C           -1.304073767510    -0.180335007981    -0.061960112520
    H            0.664378980903    -0.803079098299    -0.785964259378
    H            0.045486982723     0.633185109257    -1.542958956224
    C           -1.760532338254    -1.602144992446    -0.378010395697
    H           -2.009578519643     0.510940597588    -0.507899860980
    H           -1.342921344728    -0.026388899514     1.011522497481
    H           -1.749225006911    -1.786273799431    -1.446832534810
    H           -2.769526479892    -1.773409257184    -0.022358299345
    H           -1.111713467947    -2.333103878085     0.090781779557

  Mulliken Charges: (a.u.)
   Center  Symbol    Alpha    Beta     Spin     Total
       1     H     0.46470  0.46470  0.00000  0.07061
       2     C     2.90723  2.90723  0.00000  0.18553
       3     C     3.08149  3.08149  0.00000 -0.16299
       4     O     4.16437  4.16437  0.00000 -0.32874
       5     C     3.09335  3.09335  0.00000 -0.18670
       6     H     0.44293  0.44293  0.00000  0.11413
       7     H     0.44795  0.44795  0.00000  0.10409
       8     C     3.14623  3.14623  0.00000 -0.29245
       9     H     0.44966  0.44966  0.00000  0.10068
      10     H     0.45152  0.45152  0.00000  0.09696
      11     H     0.45272  0.45272  0.00000  0.09456
      12     H     0.44714  0.44714  0.00000  0.10573
      13     H     0.45071  0.45071  0.00000  0.09859

   Total alpha = 20.00000, Total beta = 20.00000, Total charge = -0.00000

*** Psi4 exiting successfully. Buy a developer a beer!
