  ==> Input File <==

--------------------------------------------------------------------------
set {
	reference rhf
	basis 6-31G*
}

set_num_threads( 1 )
memory 2 gb

molecule MOL {
0 1

H	 -0.835307	 -1.312655	 -0.259662
O	 -1.422729	 -0.573567	 -0.196946
C	 -0.731407	 0.539437	 0.309156
C	 0.680193	 0.672443	 -0.251532
H	 -1.319765	 1.404033	 0.030086
H	 -0.700012	 0.506517	 1.397677
C	 1.599139	 -0.492137	 0.118598
H	 0.616402	 0.758534	 -1.332349
H	 1.107032	 1.602637	 0.117369
H	 1.239738	 -1.428634	 -0.297334
H	 2.601428	 -0.335055	 -0.265730
H	 1.674954	 -0.608418	 1.197020

	symmetry c1
}
set optking {
	frozen_dihedral = ("
		8 4 3 2
	")
}

ee = energy('scf')
oeprop('DIPOLE', 'QUADRUPOLE', 'MULLIKEN_CHARGES')
f=open( 'psi4out.xyz', 'w' )
f.write( "12  " )
f.write( str(ee) + "\n" )
f.write( MOL.save_string_xyz() )
f.close()
--------------------------------------------------------------------------

    Molecular point group: c1

    Geometry (in Angstrom), charge = 0, multiplicity = 1:

       Center              X                  Y                   Z               Mass
    ------------   -----------------  -----------------  -----------------  -----------------
           H         -0.839260705662    -1.313559346101    -0.252272424204     1.007825032070
           O         -1.426682705662    -0.574471346101    -0.189556424204    15.994914619560
           C         -0.735360705662     0.538532653899     0.316545575796    12.000000000000
           C          0.676239294338     0.671538653899    -0.244142424204    12.000000000000
           H         -1.323718705662     1.403128653899     0.037475575796     1.007825032070
           H         -0.703965705662     0.505612653899     1.405066575796     1.007825032070
           C          1.595185294338    -0.493041346101     0.125987575796    12.000000000000
           H          0.612448294338     0.757629653899    -1.324959424204     1.007825032070
           H          1.103078294338     1.601732653899     0.124758575796     1.007825032070
           H          1.235784294338    -1.429538346101    -0.289944424204     1.007825032070
           H          2.597474294338    -0.335959346101    -0.258340424204     1.007825032070
           H          1.671000294338    -0.609322346101     1.204409575796     1.007825032070

  Charge       = 0
  Multiplicity = 1
  Basis Set: 6-31G*
  Basis Set:

    Orbital Energies (a.u.)
    -----------------------

    Doubly Occupied:

       1A    -20.550985     2A    -11.267267     3A    -11.224351
       4A    -11.223651     5A     -1.358945     6A     -1.055135
       7A     -0.930857     8A     -0.815116     9A     -0.685592
      10A     -0.642472    11A     -0.612329    12A     -0.586644
      13A     -0.548507    14A     -0.509485    15A     -0.496093
      16A     -0.468324    17A     -0.430668

  @DF-RHF Final Energy:  -193.10840571004707

   => Energetics <=

    Nuclear Repulsion Energy =            133.3425857827407981
    One-Electron Energy =                -526.0892409467199968
    Two-Electron Energy =                 199.6382494539321044
    DFT Exchange-Correlation Energy =       0.0000000000000000
    Empirical Dispersion Energy =           0.0000000000000000
    PCM Polarization Energy =               0.0000000000000000
    EFP Energy =                            0.0000000000000000
    Total Energy =                       -193.1084057100470943

  Mulliken Charges: (a.u.)
   Center  Symbol    Alpha    Beta     Spin     Total
       1     H     0.27863  0.27863  0.00000  0.44274
       2     O     4.37515  4.37515  0.00000 -0.75030
       3     C     2.98570  2.98570  0.00000  0.02861
       4     C     3.17410  3.17410  0.00000 -0.34820
       5     H     0.41625  0.41625  0.00000  0.16750
       6     H     0.43149  0.43149  0.00000  0.13703
       7     C     3.24910  3.24910  0.00000 -0.49820
       8     H     0.41393  0.41393  0.00000  0.17213
       9     H     0.41909  0.41909  0.00000  0.16182
      10     H     0.42773  0.42773  0.00000  0.14455
      11     H     0.41175  0.41175  0.00000  0.17649
      12     H     0.41708  0.41708  0.00000  0.16583

   Total alpha = 17.00000, Total beta = 17.00000, Total charge = -0.00000
