                              Psi4 1.0.54 Driver

  ==> Input File <==

--------------------------------------------------------------------------
set {
	reference rhf
	basis cc-pvtz
}

set_num_threads( 4 )
memory 2 gb

molecule MOL {
0 1

H	 2.255409	 -1.085792	 1.777242
O	 1.656619	 -1.262169	 1.067258
C	 0.682052	 -0.358016	 1.103960
C	 -0.318151	 -0.570512	 0.000144
O	 0.644440	 0.493899	 1.922981
C	 -1.454884	 0.441630	 -0.000560
H	 0.229475	 -0.548616	 -0.936615
H	 -0.693226	 -1.584149	 0.098933
C	 -2.822577	 -0.232186	 0.000063
H	 -1.359760	 1.084704	 -0.867077
H	 -1.359641	 1.085996	 0.864983
H	 -2.954352	 -0.858985	 -0.875745
H	 -3.615886	 0.505352	 0.000019
H	 -2.953878	 -0.858359	 0.876394

	symmetry c1
}
set optking {
	frozen_dihedral = ("
		7 4 6 10
	")
}

ee,wfn = optimize('scf', return_wfn=True)
oeprop( wfn, 'DIPOLE', 'QUADRUPOLE', 'MULLIKEN_CHARGES')
f=open( 'psi4out.xyz', 'w' )
f.write( "14  " )
f.write( str(ee) + "\n" )
f.write( MOL.save_string_xyz() )
f.close()
--------------------------------------------------------------------------

    Molecular point group: c1
  Charge       = 0
  Multiplicity = 1
  Basis Set: CC-PVTZ
  Basis Set:
  @DF-RHF Final Energy:  -305.99603214180843
    Total Energy =                       -305.9960321418084845
    Molecular point group: c1
  Basis Set: CC-PVTZ
  Basis Set:
  Basis Set: CC-PVTZ
  Basis Set:
  @DF-RHF Final Energy:  -305.99633256417644
    Total Energy =                       -305.9963325641767824
  Basis Set: CC-PVTZ
  Basis Set:
  Basis Set: CC-PVTZ
  Basis Set:
  @DF-RHF Final Energy:  -305.99621864552626
    Total Energy =                       -305.9962186455261417
  Basis Set: CC-PVTZ
  Basis Set:
  Basis Set: CC-PVTZ
  Basis Set:
  @DF-RHF Final Energy:  -305.99642748430495
    Total Energy =                       -305.9964274843049452
  Basis Set: CC-PVTZ
  Basis Set:
  Basis Set: CC-PVTZ
  Basis Set:
  @DF-RHF Final Energy:  -305.99642935084114
    Total Energy =                       -305.9964293508414812
  Basis Set: CC-PVTZ
  Basis Set:
  Charge       = 0
  Multiplicity = 1
  Basis Set: CC-PVTZ
  Basis Set:

    Orbital Energies (a.u.)
    -----------------------

    Doubly Occupied:

       1A    -20.604621     2A    -20.541825     3A    -11.374851
       4A    -11.239895     5A    -11.222197     6A    -11.214290
       7A     -1.478638     8A     -1.370075     9A     -1.081104
      10A     -0.980841    11A     -0.859642    12A     -0.791859
      13A     -0.705348    14A     -0.695103    15A     -0.663693
      16A     -0.616153    17A     -0.598501    18A     -0.569919
      19A     -0.555903    20A     -0.497769    21A     -0.491173
      22A     -0.486248    23A     -0.478954    24A     -0.449542

  @DF-RHF Final Energy:  -305.99642990320882

   => Energetics <=

    Nuclear Repulsion Energy =            240.8944799455635462
    One-Electron Energy =                -894.6455327676521847
    Two-Electron Energy =                 347.7546229188799316
    DFT Exchange-Correlation Energy =       0.0000000000000000
    Empirical Dispersion Energy =           0.0000000000000000
    PCM Polarization Energy =               0.0000000000000000
    EFP Energy =                            0.0000000000000000
    Total Energy =                       -305.9964299032087638
    Molecular point group: c1
  Basis Set: CC-PVTZ
  Basis Set:

  -Total Gradient:
     Atom            X                  Y                   Z
    ------   -----------------  -----------------  -----------------
       1        0.000008246682    -0.000001898399    -0.000004568662
       2        0.000024348679    -0.000058866875    -0.000008542281
       3       -0.000049351337     0.000067450214     0.000003350079
       4       -0.001208073398    -0.001381671014    -0.000769934801
       5       -0.000009836367     0.000040592564     0.000002016526
       6        0.001085564649     0.001303732745     0.000963352121
       7        0.000802182986     0.000921091041     0.000470286830
       8        0.000005572063     0.000010082458    -0.000009451953
       9        0.000006086317    -0.000044371552    -0.000005906620
      10       -0.000692824370    -0.000838274862    -0.000661153960
      11        0.000020648508    -0.000035674878     0.000017776384
      12        0.000004462536    -0.000002093184     0.000010188723
      13        0.000013652301     0.000020666117    -0.000005750914
      14       -0.000010679249    -0.000000764373    -0.000001661469

  **** Optimization is complete! (in 6 steps) ****
    Final optimized geometry and variables:
    Molecular point group: c1

    Geometry (in Angstrom), charge = 0, multiplicity = 1:

    H            2.514739145220    -0.815895544241     1.048747605294
    O            1.907459876576    -0.987144924636     0.344809794240
    C            0.926281275623    -0.091239555847     0.408512144033
    C           -0.085605986463    -0.309560689869    -0.687652799665
    O            0.897306819731     0.747838897545     1.240884984232
    C           -1.240064198396     0.701342335866    -0.705267500070
    H            0.472972978665    -0.301069529402    -1.616285236907
    H           -0.444178499317    -1.326233291853    -0.570450113860
    C           -2.612093723014     0.033035765223    -0.729418062044
    H           -1.144979302550     1.335942193813    -1.578439167338
    H           -1.163022771424     1.343851783489     0.159490676161
    H           -2.725831979027    -0.607648871574    -1.597771927569
    H           -3.401917584208     0.774116820687    -0.759885690741
    H           -2.764257040675    -0.576957627494     0.154702178598

  Mulliken Charges: (a.u.)
   Center  Symbol    Alpha    Beta     Spin     Total
       1     H     0.38245  0.38245  0.00000  0.23511
       2     O     4.16032  4.16032  0.00000 -0.32063
       3     C     2.80100  2.80100  0.00000  0.39801
       4     C     3.11360  3.11360  0.00000 -0.22720
       5     O     4.19074  4.19074  0.00000 -0.38148
       6     C     3.08895  3.08895  0.00000 -0.17790
       7     H     0.43321  0.43321  0.00000  0.13358
       8     H     0.43747  0.43747  0.00000  0.12505
       9     C     3.14898  3.14898  0.00000 -0.29796
      10     H     0.45145  0.45145  0.00000  0.09709
      11     H     0.43503  0.43503  0.00000  0.12995
      12     H     0.45545  0.45545  0.00000  0.08909
      13     H     0.44742  0.44742  0.00000  0.10516
      14     H     0.45393  0.45393  0.00000  0.09215

   Total alpha = 24.00000, Total beta = 24.00000, Total charge = -0.00000

*** Psi4 exiting successfully. Buy a developer a beer!
