                              Psi4 1.0.54 Driver

  ==> Input File <==

--------------------------------------------------------------------------
set {
	reference rhf
	basis cc-pvtz
}

set_num_threads( 4 )
memory 2 gb

molecule MOL {
0 1

H	 -2.266619	 1.169943	 0.000098
O	 -1.438073	 1.611259	 0.000041
C	 -0.408657	 0.734701	 0.000005
C	 0.818255	 1.212260	 -0.421935
C	 -0.561224	 -0.587018	 0.402365
H	 0.895110	 2.238187	 -0.724422
C	 1.912064	 0.373278	 -0.447564
C	 0.554682	 -1.407374	 0.366358
C	 -1.900786	 -1.106628	 0.862563
H	 2.861386	 0.751014	 -0.776325
C	 1.786044	 -0.944500	 -0.052581
H	 0.453234	 -2.431546	 0.674170
H	 -2.653845	 -1.025447	 0.083698
H	 -1.832189	 -2.149810	 1.135524
H	 -2.264499	 -0.568210	 1.733278
H	 2.632535	 -1.602924	 -0.069887

	symmetry c1
}
set optking {
	frozen_dihedral = ("
		4 3 2 1
	")
}

ee,wfn = optimize('scf', return_wfn=True)
oeprop( wfn, 'DIPOLE', 'QUADRUPOLE', 'MULLIKEN_CHARGES')
f=open( 'psi4out.xyz', 'w' )
f.write( "16  " )
f.write( str(ee) + "\n" )
f.write( MOL.save_string_xyz() )
f.close()
--------------------------------------------------------------------------

    Molecular point group: c1
  Charge       = 0
  Multiplicity = 1
  Basis Set: CC-PVTZ
  Basis Set:
  @DF-RHF Final Energy:  -344.71890114534938
    Total Energy =                       -344.7189011453493777
    Molecular point group: c1
  Basis Set: CC-PVTZ
  Basis Set:
  Basis Set: CC-PVTZ
  Basis Set:
  @DF-RHF Final Energy:  -344.71894434685117
    Total Energy =                       -344.7189443468510603
  Basis Set: CC-PVTZ
  Basis Set:
  Basis Set: CC-PVTZ
  Basis Set:
  @DF-RHF Final Energy:  -344.71895333682210
    Total Energy =                       -344.7189533368219827
  Basis Set: CC-PVTZ
  Basis Set:
  Charge       = 0
  Multiplicity = 1
  Basis Set: CC-PVTZ
  Basis Set:

    Orbital Energies (a.u.)
    -----------------------

    Doubly Occupied:

       1A    -20.580456     2A    -11.290200     3A    -11.233638
       4A    -11.231539     5A    -11.228415     6A    -11.227257
       7A    -11.217965     8A    -11.217380     9A     -1.410477
      10A     -1.153493    11A     -1.051718    12A     -1.007865
      13A     -0.943469    14A     -0.828561    15A     -0.823073
      16A     -0.734235    17A     -0.680150    18A     -0.647898
      19A     -0.615510    20A     -0.602108    21A     -0.577362
      22A     -0.571674    23A     -0.557301    24A     -0.551889
      25A     -0.505294    26A     -0.486292    27A     -0.477448
      28A     -0.333734    29A     -0.310561

  @DF-RHF Final Energy:  -344.71895421813952

   => Energetics <=

    Nuclear Repulsion Energy =            351.0049553503213247
    One-Electron Energy =               -1163.2538867633645623
    Two-Electron Energy =                 467.5299771949040064
    DFT Exchange-Correlation Energy =       0.0000000000000000
    Empirical Dispersion Energy =           0.0000000000000000
    PCM Polarization Energy =               0.0000000000000000
    EFP Energy =                            0.0000000000000000
    Total Energy =                       -344.7189542181392312
    Molecular point group: c1
  Basis Set: CC-PVTZ
  Basis Set:

  -Total Gradient:
     Atom            X                  Y                   Z
    ------   -----------------  -----------------  -----------------
       1       -0.000019878032    -0.000008827176    -0.001226418284
       2       -0.000056775474    -0.000048538618     0.001165446846
       3        0.000265841784     0.000238054912     0.000834198904
       4       -0.000150822916    -0.000227797087    -0.000771432337
       5       -0.000015310892     0.000063354303     0.000014870887
       6       -0.000007851377     0.000006434031    -0.000020692586
       7       -0.000029623988     0.000084396204    -0.000006694044
       8        0.000101682854    -0.000021813936     0.000039935711
       9        0.000047914999     0.000008477396     0.000082375490
      10       -0.000004402320    -0.000003218485     0.000004539947
      11       -0.000084609592    -0.000072989560    -0.000018543071
      12       -0.000007234026    -0.000002728975    -0.000016199822
      13       -0.000050092174    -0.000018984753    -0.000014327592
      14       -0.000009335319    -0.000021686080    -0.000046691535
      15        0.000011832264     0.000019999997    -0.000032635490
      16        0.000008664209     0.000005867825     0.000012266977

  **** Optimization is complete! (in 4 steps) ****
    Final optimized geometry and variables:
    Molecular point group: c1

    Geometry (in Angstrom), charge = 0, multiplicity = 1:

    H           -2.275440081274     1.162693221208    -0.051930114985
    O           -1.446113368023     1.603215391658    -0.067342484835
    C           -0.418443965135     0.721650031634    -0.097170866016
    C            0.801691664023     1.193256205852    -0.542114753883
    C           -0.569358305994    -0.598218287970     0.312211014342
    H            0.875935741302     2.216931050630    -0.852811319133
    C            1.894210434123     0.351829082582    -0.577622918245
    C            0.541784794943    -1.423464775551     0.258466733570
    C           -1.901748946724    -1.106824979602     0.803261022109
    H            2.839756253188     0.725254798673    -0.921736275625
    C            1.768661519512    -0.964412114107    -0.179079543588
    H            0.442186958601    -2.446474029598     0.570618538481
    H           -2.663026322035    -1.064532658049     0.028015608424
    H           -1.825152523440    -2.138243742242     1.116332068076
    H           -2.260575223925    -0.530189585234     1.649482526746
    H            2.612842210742    -1.625560744912    -0.206659551291

  Mulliken Charges: (a.u.)
   Center  Symbol    Alpha    Beta     Spin     Total
       1     H     0.38636  0.38636  0.00000  0.22727
       2     O     4.17482  4.17482  0.00000 -0.34964
       3     C     2.87530  2.87530  0.00000  0.24940
       4     C     3.11171  3.11171  0.00000 -0.22341
       5     C     3.00942  3.00942  0.00000 -0.01884
       6     H     0.41966  0.41966  0.00000  0.16067
       7     C     3.06634  3.06634  0.00000 -0.13268
       8     C     3.08479  3.08479  0.00000 -0.16957
       9     C     3.16212  3.16212  0.00000 -0.32424
      10     H     0.42248  0.42248  0.00000  0.15505
      11     C     3.09053  3.09053  0.00000 -0.18106
      12     H     0.42555  0.42555  0.00000  0.14889
      13     H     0.45555  0.45555  0.00000  0.08890
      14     H     0.44616  0.44616  0.00000  0.10767
      15     H     0.44426  0.44426  0.00000  0.11149
      16     H     0.42495  0.42495  0.00000  0.15010

   Total alpha = 29.00000, Total beta = 29.00000, Total charge =  0.00000

*** Psi4 exiting successfully. Buy a developer a beer!
