                              Psi4 1.0.54 Driver

  ==> Input File <==

--------------------------------------------------------------------------
set {
	reference rhf
	basis cc-pvtz
}

set_num_threads( 4 )
memory 2 gb

molecule MOL {
0 1

H	 -1.061670	 0.067700	 -1.838185
C	 -0.604076	 -0.484935	 -1.045889
C	 -0.600274	 -1.865035	 -1.039338
C	 0.000000	 0.179985	 0.000046
H	 -1.064751	 -2.400763	 -1.843560
C	 0.000003	 -2.552036	 -0.000012
N	 0.000000	 1.644631	 0.000076
C	 0.604074	 -0.484978	 1.045954
H	 0.000000	 -3.625035	 -0.000032
C	 0.600276	 -1.865078	 1.039345
O	 1.050559	 2.194174	 -0.000073
O	 -1.050559	 2.194174	 -0.000074
H	 1.061677	 0.067625	 1.838269
H	 1.064749	 -2.400838	 1.843547

	symmetry c1
}
set optking {
	frozen_dihedral = ("
		2 4 7 11
	")
}

ee,wfn = optimize('scf', return_wfn=True)
oeprop( wfn, 'DIPOLE', 'QUADRUPOLE', 'MULLIKEN_CHARGES')
f=open( 'psi4out.xyz', 'w' )
f.write( "14  " )
f.write( str(ee) + "\n" )
f.write( MOL.save_string_xyz() )
f.close()
--------------------------------------------------------------------------

    Molecular point group: c1
  Charge       = 0
  Multiplicity = 1
  Basis Set: CC-PVTZ
  Basis Set:
  @DF-RHF Final Energy:  -434.32292937638846
    Total Energy =                       -434.3229293763888563
    Molecular point group: c1
  Basis Set: CC-PVTZ
  Basis Set:
  Basis Set: CC-PVTZ
  Basis Set:
  @DF-RHF Final Energy:  -434.31680949707368
    Total Energy =                       -434.3168094970736774
  Basis Set: CC-PVTZ
  Basis Set:
  Basis Set: CC-PVTZ
  Basis Set:
  @DF-RHF Final Energy:  -434.32249727076345
    Total Energy =                       -434.3224972707637335
  Basis Set: CC-PVTZ
  Basis Set:
  Basis Set: CC-PVTZ
  Basis Set:
  @DF-RHF Final Energy:  -434.32340339468323
    Total Energy =                       -434.3234033946835098
  Basis Set: CC-PVTZ
  Basis Set:
  Basis Set: CC-PVTZ
  Basis Set:
  @DF-RHF Final Energy:  -434.32341588580067
    Total Energy =                       -434.3234158858005003
  Basis Set: CC-PVTZ
  Basis Set:
  Basis Set: CC-PVTZ
  Basis Set:
  @DF-RHF Final Energy:  -434.32344127020423
    Total Energy =                       -434.3234412702039435
  Basis Set: CC-PVTZ
  Basis Set:
  Charge       = 0
  Multiplicity = 1
  Basis Set: CC-PVTZ
  Basis Set:

    Orbital Energies (a.u.)
    -----------------------

    Doubly Occupied:

       1A    -20.596570     2A    -20.596244     3A    -15.847791
       4A    -11.306329     5A    -11.267848     6A    -11.267624
       7A    -11.261164     8A    -11.260052     9A    -11.259303
      10A     -1.643966    11A     -1.427039    12A     -1.206316
      13A     -1.096819    14A     -1.056664    15A     -0.959389
      16A     -0.873305    17A     -0.830654    18A     -0.786595
      19A     -0.740483    20A     -0.737096    21A     -0.716953
      22A     -0.654023    23A     -0.650950    24A     -0.626077
      25A     -0.560480    26A     -0.549926    27A     -0.533624
      28A     -0.498563    29A     -0.487834    30A     -0.457850
      31A     -0.373122    32A     -0.370432

  @DF-RHF Final Energy:  -434.32344143943135

   => Energetics <=

    Nuclear Repulsion Energy =            417.7221681534745130
    One-Electron Energy =               -1419.0890509028313318
    Two-Electron Energy =                 567.0434413099255835
    DFT Exchange-Correlation Energy =       0.0000000000000000
    Empirical Dispersion Energy =           0.0000000000000000
    PCM Polarization Energy =               0.0000000000000000
    EFP Energy =                            0.0000000000000000
    Total Energy =                       -434.3234414394312353
    Molecular point group: c1
  Basis Set: CC-PVTZ
  Basis Set:

  -Total Gradient:
     Atom            X                  Y                   Z
    ------   -----------------  -----------------  -----------------
       1       -0.000003185707    -0.000001590397     0.000006351647
       2        0.004270619960    -0.000212968121    -0.002246764349
       3       -0.000038510925     0.000026867538     0.000004702657
       4       -0.006021309407     0.000261778294     0.001183189419
       5       -0.000002577348     0.000001009699     0.000001477588
       6        0.000010008839    -0.000000284430     0.000026747532
       7        0.001615218375     0.000143377349     0.006514781068
       8        0.000017534001     0.000005612735    -0.000012311461
       9        0.000004913545     0.000000465276    -0.000005235870
      10        0.000004696237    -0.000018506190    -0.000006668454
      11        0.000217724659    -0.000198871069    -0.005466045717
      12       -0.000064554910    -0.000006338148    -0.000004952833
      13       -0.000005254089    -0.000003374663    -0.000000335582
      14       -0.000005323234     0.000002822119     0.000005064354

  **** Optimization is complete! (in 7 steps) ****
    Final optimized geometry and variables:
    Molecular point group: c1

    Geometry (in Angstrom), charge = 0, multiplicity = 1:

    H           -1.064231066109     0.079010170357    -1.831021840554
    C           -0.611004855473    -0.475814574108    -1.034639390889
    C           -0.600495352646    -1.856980511744    -1.033366205860
    C           -0.029963667238     0.179713454695     0.024972259137
    H           -1.041995390855    -2.391492541493    -1.851362057388
    C           -0.024357107678    -2.545854669593     0.017725832764
    N            0.020195502285     1.641605938107    -0.006509204841
    C            0.579872077020    -0.479464136384     1.066299370265
    H           -0.026240248617    -3.618562277378     0.017049361769
    C            0.560263709846    -1.860139927716     1.066687375193
    O            1.091707285550     2.146248316810     0.028484709585
    O           -1.010796393026     2.217347799482    -0.107691312531
    H            1.053645433306     0.072592980263     1.852652459963
    H            1.010615408592    -2.397338880078     1.878071245073

  Mulliken Charges: (a.u.)
   Center  Symbol    Alpha    Beta     Spin     Total
       1     H     0.40955  0.40955  0.00000  0.18089
       2     C     3.08730  3.08730  0.00000 -0.17461
       3     C     3.06696  3.06696  0.00000 -0.13392
       4     C     2.93047  2.93047  0.00000  0.13906
       5     H     0.41728  0.41728  0.00000  0.16544
       6     C     3.07294  3.07294  0.00000 -0.14588
       7     N     3.28347  3.28347  0.00000  0.43305
       8     C     3.08652  3.08652  0.00000 -0.17304
       9     H     0.41773  0.41773  0.00000  0.16455
      10     C     3.06631  3.06631  0.00000 -0.13263
      11     O     4.16542  4.16542  0.00000 -0.33085
      12     O     4.16758  4.16758  0.00000 -0.33517
      13     H     0.41115  0.41115  0.00000  0.17770
      14     H     0.41731  0.41731  0.00000  0.16539

   Total alpha = 32.00000, Total beta = 32.00000, Total charge =  0.00000

*** Psi4 exiting successfully. Buy a developer a beer!
