  ==> Input File <==

--------------------------------------------------------------------------
set {
	reference rhf
	basis 6-31G*
}

set_num_threads( 4 )
memory 2 gb

molecule MOL {
0 1

H	 1.351970	 0.568119	 -0.965297
C	 0.850167	 0.441173	 0.000644
C	 -0.623425	 0.760064	 0.000248
O	 1.464125	 0.073960	 0.949304
C	 -1.518387	 -0.473136	 -0.000101
H	 -0.818289	 1.390622	 -0.866171
H	 -0.818694	 1.390413	 0.866696
H	 -1.333417	 -1.085530	 -0.874338
H	 -2.563510	 -0.183466	 -0.000351
H	 -1.333864	 -1.085676	 0.874123

	symmetry c1
}
set optking {
	frozen_dihedral = ("
		4 2 3 6
	")
}

ee = optimize('scf')
oeprop('DIPOLE', 'QUADRUPOLE', 'MULLIKEN_CHARGES')
f=open( 'psi4out.xyz', 'w' )
f.write( "10  " )
f.write( str(ee) + "\n" )
f.write( MOL.save_string_xyz() )
f.close()
--------------------------------------------------------------------------

    Molecular point group: c1
  Charge       = 0
  Multiplicity = 1
  Basis Set: 6-31G*
  Basis Set:
  @DF-RHF Final Energy:  -191.94797491974572
    Total Energy =                       -191.9479749197456613
    Molecular point group: c1
  Basis Set: 6-31G*
  Basis Set:
  Basis Set: 6-31G*
  Basis Set:
  @DF-RHF Final Energy:  -191.94877244462918
    Total Energy =                       -191.9487724446292418
  Basis Set: 6-31G*
  Basis Set:
  Basis Set: 6-31G*
  Basis Set:
  @DF-RHF Final Energy:  -191.94718342627004
    Total Energy =                       -191.9471834262700440
  Basis Set: 6-31G*
  Basis Set:
  Basis Set: 6-31G*
  Basis Set:
  @DF-RHF Final Energy:  -191.94889677623391
    Total Energy =                       -191.9488967762339087
  Basis Set: 6-31G*
  Basis Set:
  Basis Set: 6-31G*
  Basis Set:
  @DF-RHF Final Energy:  -191.94890744538054
    Total Energy =                       -191.9489074453804847
  Basis Set: 6-31G*
  Basis Set:
  Charge       = 0
  Multiplicity = 1
  Basis Set: 6-31G*
  Basis Set:

    Orbital Energies (a.u.)
    -----------------------

    Doubly Occupied:

       1A    -20.563682     2A    -11.328145     3A    -11.238382
       4A    -11.231126     5A     -1.403939     6A     -1.062683
       7A     -0.904415     8A     -0.787447     9A     -0.681811
      10A     -0.639367    11A     -0.604888    12A     -0.574003
      13A     -0.539565    14A     -0.509864    15A     -0.494240
      16A     -0.411917

  @DF-RHF Final Energy:  -191.94890783835422

   => Energetics <=

    Nuclear Repulsion Energy =            118.2731611461719012
    One-Electron Energy =                -494.4931877900005475
    Two-Electron Energy =                 184.2711188054744298
    DFT Exchange-Correlation Energy =       0.0000000000000000
    Empirical Dispersion Energy =           0.0000000000000000
    PCM Polarization Energy =               0.0000000000000000
    EFP Energy =                            0.0000000000000000
    Total Energy =                       -191.9489078383542164
    Molecular point group: c1
  Basis Set: 6-31G*
  Basis Set:

  -Total Gradient:
     Atom            X                  Y                   Z
    ------   -----------------  -----------------  -----------------
       1        0.000002872755    -0.000006203260     0.000026607611
       2        0.000273117823     0.001144098612     0.000113838185
       3        0.000107696351     0.000536181466     0.000497722290
       4       -0.000190383813    -0.000935881601    -0.000150202635
       5        0.000004779653     0.000021172751     0.000015167641
       6       -0.000216333908    -0.000750371505    -0.000502029958
       7        0.000011845028    -0.000005530747    -0.000001161008
       8       -0.000002445652     0.000006462693     0.000000284587
       9        0.000008453596    -0.000001874014    -0.000000425336
      10        0.000000398166    -0.000008054396     0.000000198623

  **** Optimization is complete! (in 6 steps) ****
    Final optimized geometry and variables:
    Molecular point group: c1

    Geometry (in Angstrom), charge = 0, multiplicity = 1:

    H            1.315058239488     0.275455839829    -1.220649818476
    C            0.806007632232     0.237590459766    -0.251351232700
    C           -0.660311337617     0.602714342357    -0.246262888000
    O            1.395481371491    -0.115634140394     0.718559413747
    C           -1.528730157436    -0.663760894709    -0.254068231282
    H           -0.889233915957     1.212177791508    -1.114929249127
    H           -0.861721668146     1.183058754680     0.647075867449
    H           -1.346798137006    -1.263692086487    -1.140589487862
    H           -2.580339559845    -0.400762124211    -0.241141927995
    H           -1.316719731625    -1.273118514349     0.616328263728

  Mulliken Charges: (a.u.)
   Center  Symbol    Alpha    Beta     Spin     Total
       1     H     0.42827  0.42827  0.00000  0.14345
       2     C     2.84196  2.84196  0.00000  0.31608
       3     C     3.19936  3.19936  0.00000 -0.39872
       4     O     4.23570  4.23570  0.00000 -0.47140
       5     C     3.24776  3.24776  0.00000 -0.49552
       6     H     0.41543  0.41543  0.00000  0.16913
       7     H     0.39924  0.39924  0.00000  0.20151
       8     H     0.41657  0.41657  0.00000  0.16686
       9     H     0.41132  0.41132  0.00000  0.17736
      10     H     0.40438  0.40438  0.00000  0.19124

   Total alpha = 16.00000, Total beta = 16.00000, Total charge =  0.00000
