                              Psi4 1.0.54 Driver

  ==> Input File <==

--------------------------------------------------------------------------
set {
	reference rhf
	basis cc-pvtz
}

set_num_threads( 4 )
memory 2 gb

molecule MOL {
0 1

H	 -3.229155	 -1.098710	 -0.150465
O	 -2.404714	 -0.759757	 -0.446178
C	 -2.021813	 0.336996	 0.342658
C	 -0.669613	 0.837286	 -0.127252
H	 -2.754281	 1.135771	 0.257966
H	 -1.966888	 0.050100	 1.391018
C	 0.490865	 -0.082543	 0.241244
H	 -0.708709	 0.967192	 -1.204587
H	 -0.507562	 1.822272	 0.303070
C	 1.839800	 0.429565	 -0.255472
H	 0.305636	 -1.070211	 -0.165276
H	 0.527397	 -0.195943	 1.322876
C	 3.001144	 -0.485193	 0.119072
H	 1.804373	 0.541073	 -1.335756
H	 2.020437	 1.423114	 0.146921
H	 2.866892	 -1.477297	 -0.298806
H	 3.943543	 -0.095749	 -0.249061
H	 3.085064	 -0.590459	 1.195790

	symmetry c1
}
set optking {
	frozen_dihedral = ("
		2 3 4 8
	")
}

ee,wfn = optimize('scf', return_wfn=True)
oeprop( wfn, 'DIPOLE', 'QUADRUPOLE', 'MULLIKEN_CHARGES')
f=open( 'psi4out.xyz', 'w' )
f.write( "18  " )
f.write( str(ee) + "\n" )
f.write( MOL.save_string_xyz() )
f.close()
--------------------------------------------------------------------------

    Molecular point group: c1
  Charge       = 0
  Multiplicity = 1
  Basis Set: CC-PVTZ
  Basis Set:
  @DF-RHF Final Energy:  -271.28661139897139
    Total Energy =                       -271.2866113989715018
    Molecular point group: c1
  Basis Set: CC-PVTZ
  Basis Set:
  Basis Set: CC-PVTZ
  Basis Set:
  @DF-RHF Final Energy:  -271.28666390306745
    Total Energy =                       -271.2866639030677902
  Basis Set: CC-PVTZ
  Basis Set:
  Basis Set: CC-PVTZ
  Basis Set:
  @DF-RHF Final Energy:  -271.28667397226093
    Total Energy =                       -271.2866739722607008
  Basis Set: CC-PVTZ
  Basis Set:
  Charge       = 0
  Multiplicity = 1
  Basis Set: CC-PVTZ
  Basis Set:

    Orbital Energies (a.u.)
    -----------------------

    Doubly Occupied:

       1A    -20.546278     2A    -11.265829     3A    -11.210208
       4A    -11.209407     5A    -11.205695     6A    -11.203119
       7A     -1.363996     8A     -1.076932     9A     -1.010296
      10A     -0.914295    11A     -0.818743    12A     -0.785363
      13A     -0.708977    14A     -0.640148    15A     -0.630047
      16A     -0.581946    17A     -0.571596    18A     -0.560740
      19A     -0.525048    20A     -0.500858    21A     -0.489277
      22A     -0.469227    23A     -0.460176    24A     -0.451256
      25A     -0.429999

  @DF-RHF Final Energy:  -271.28667478789470

   => Energetics <=

    Nuclear Repulsion Energy =            249.0344257953603915
    One-Electron Energy =                -861.3832901564902613
    Two-Electron Energy =                 341.0621895732352868
    DFT Exchange-Correlation Energy =       0.0000000000000000
    Empirical Dispersion Energy =           0.0000000000000000
    PCM Polarization Energy =               0.0000000000000000
    EFP Energy =                            0.0000000000000000
    Total Energy =                       -271.2866747878946398
    Molecular point group: c1
  Basis Set: CC-PVTZ
  Basis Set:

  -Total Gradient:
     Atom            X                  Y                   Z
    ------   -----------------  -----------------  -----------------
       1        0.000011962134     0.000014556866    -0.000013911784
       2       -0.000624180185     0.000856605978    -0.000887005135
       3        0.000934172925    -0.001486574416     0.001146872835
       4       -0.000927074677     0.002431752548    -0.000095250067
       5        0.000017905086    -0.000004748738     0.000019425138
       6       -0.000010356243    -0.000020796324    -0.000026684455
       7        0.000001431965     0.000033479910     0.000056602440
       8        0.000568556385    -0.001736752855    -0.000240082300
       9        0.000011483138    -0.000070653768     0.000013590196
      10        0.000015099117     0.000011385646     0.000017277731
      11       -0.000011637298     0.000001939314     0.000005380616
      12        0.000031907970    -0.000019564843     0.000016027321
      13       -0.000006810962    -0.000010947986    -0.000014825158
      14       -0.000005509665     0.000005983187     0.000009010303
      15        0.000002140670    -0.000005694223     0.000004408264
      16        0.000006232873     0.000000517185     0.000006125209
      17       -0.000013105669    -0.000007685586    -0.000002291481
      18       -0.000002217565     0.000007198100    -0.000014669673

  **** Optimization is complete! (in 4 steps) ****
    Final optimized geometry and variables:
    Molecular point group: c1

    Geometry (in Angstrom), charge = 0, multiplicity = 1:

    H           -3.172982586116    -1.154645409259    -0.136990459204
    O           -2.363313143969    -0.784075081736    -0.435419894476
    C           -2.011499010322     0.317086155084     0.362370424702
    C           -0.657839130616     0.833766500607    -0.087396058287
    H           -2.754864238943     1.103650731892     0.260015642357
    H           -1.974517504300     0.033634283239     1.412104381736
    C            0.500573597626    -0.091410659011     0.277565808224
    H           -0.689842680663     0.960271829035    -1.165016035069
    H           -0.497650713753     1.814614985695     0.351071862484
    C            1.849256182489     0.406371266566    -0.233696257714
    H            0.304190209019    -1.080164663354    -0.122833358112
    H            0.546119213376    -0.199194994518     1.359335170922
    C            3.006425296668    -0.515665095994     0.135651064065
    H            1.805009105969     0.512286370467    -1.314112826177
    H            2.041158808900     1.400606727355     0.161697532406
    H            2.859436433899    -1.509525673917    -0.273657751848
    H            3.948244284206    -0.137083169673    -0.244939479708
    H            3.100534634866    -0.613861932144     1.212161145719

  Mulliken Charges: (a.u.)
   Center  Symbol    Alpha    Beta     Spin     Total
       1     H     0.39552  0.39552  0.00000  0.20895
       2     O     4.19930  4.19930  0.00000 -0.39860
       3     C     2.97273  2.97273  0.00000  0.05454
       4     C     3.09086  3.09086  0.00000 -0.18171
       5     H     0.46549  0.46549  0.00000  0.06902
       6     H     0.47424  0.47424  0.00000  0.05152
       7     C     3.08761  3.08761  0.00000 -0.17522
       8     H     0.45160  0.45160  0.00000  0.09680
       9     H     0.45322  0.45322  0.00000  0.09356
      10     C     3.08379  3.08379  0.00000 -0.16757
      11     H     0.44603  0.44603  0.00000  0.10795
      12     H     0.45936  0.45936  0.00000  0.08127
      13     C     3.14985  3.14985  0.00000 -0.29969
      14     H     0.45390  0.45390  0.00000  0.09220
      15     H     0.45672  0.45672  0.00000  0.08656
      16     H     0.45447  0.45447  0.00000  0.09106
      17     H     0.44923  0.44923  0.00000  0.10154
      18     H     0.45607  0.45607  0.00000  0.08785

   Total alpha = 25.00000, Total beta = 25.00000, Total charge =  0.00000

*** Psi4 exiting successfully. Buy a developer a beer!
