                              Psi4 1.0.54 Driver

  ==> Input File <==

--------------------------------------------------------------------------
set {
	reference rhf
	basis cc-pvtz
}

set_num_threads( 4 )
memory 2 gb

molecule MOL {
0 1

H	 -2.816458	 -0.841657	 -0.064679
N	 -1.878861	 -0.711874	 0.250184
C	 -1.341419	 0.551458	 -0.220231
H	 -1.333674	 -1.468530	 -0.105118
C	 0.082190	 0.731516	 0.254705
H	 -1.357065	 0.652078	 -1.304747
H	 -1.939897	 1.357530	 0.189797
O	 0.640207	 -0.525613	 0.491244
H	 0.659958	 1.260887	 -0.501683
H	 0.090993	 1.323833	 1.166852
C	 1.932117	 -0.495915	 1.000464
H	 2.258330	 -1.516571	 1.139144
H	 2.617836	 -0.000118	 0.316599
H	 1.970531	 0.017612	 1.958262

	symmetry c1
}
set optking {
	frozen_dihedral = ("
		8 5 3 6
	")
}

ee,wfn = optimize('scf', return_wfn=True)
oeprop( wfn, 'DIPOLE', 'QUADRUPOLE', 'MULLIKEN_CHARGES')
f=open( 'psi4out.xyz', 'w' )
f.write( "14  " )
f.write( str(ee) + "\n" )
f.write( MOL.save_string_xyz() )
f.close()
--------------------------------------------------------------------------

    Molecular point group: c1
  Charge       = 0
  Multiplicity = 1
  Basis Set: CC-PVTZ
  Basis Set:
  @DF-RHF Final Energy:  -248.21625801116457
    Total Energy =                       -248.2162580111644274
    Molecular point group: c1
  Basis Set: CC-PVTZ
  Basis Set:
  Basis Set: CC-PVTZ
  Basis Set:
  @DF-RHF Final Energy:  -248.15524982664161
    Total Energy =                       -248.1552498266415228
  Basis Set: CC-PVTZ
  Basis Set:
  Basis Set: CC-PVTZ
  Basis Set:
  @DF-RHF Final Energy:  -248.10516804616969
    Total Energy =                       -248.1051680461697515
  Basis Set: CC-PVTZ
  Basis Set:
  Basis Set: CC-PVTZ
  Basis Set:
  @DF-RHF Final Energy:  -248.17435941023783
    Total Energy =                       -248.1743594102378552
  Basis Set: CC-PVTZ
  Basis Set:
  @DF-RHF Final Energy:  -248.21617664914356
    Total Energy =                       -248.2161766491435628
  @DF-RHF Final Energy:  -248.21792679221792
    Total Energy =                       -248.2179267922181793
  Basis Set: CC-PVTZ
  Basis Set:
  @DF-RHF Final Energy:  -248.21820814729583
    Total Energy =                       -248.2182081472957407
  Basis Set: CC-PVTZ
  Basis Set:
  Basis Set: CC-PVTZ
  Basis Set:
  @DF-RHF Final Energy:  -248.21829000402926
    Total Energy =                       -248.2182900040292566
  Basis Set: CC-PVTZ
  Basis Set:
  Basis Set: CC-PVTZ
  Basis Set:
  @DF-RHF Final Energy:  -248.21833926929540
    Total Energy =                       -248.2183392692950861
  Basis Set: CC-PVTZ
  Basis Set:
  Charge       = 0
  Multiplicity = 1
  Basis Set: CC-PVTZ
  Basis Set:

    Orbital Energies (a.u.)
    -----------------------

    Doubly Occupied:

       1A    -20.550494     2A    -15.520601     3A    -11.266893
       4A    -11.263835     5A    -11.240800     6A     -1.385515
       7A     -1.173214     8A     -0.997618     9A     -0.910391
      10A     -0.814076    11A     -0.684009    12A     -0.678678
      13A     -0.648160    14A     -0.610178    15A     -0.603391
      16A     -0.553507    17A     -0.523241    18A     -0.493886
      19A     -0.473714    20A     -0.423075    21A     -0.374486

  @DF-RHF Final Energy:  -248.21834081025767

   => Energetics <=

    Nuclear Repulsion Energy =            195.0787823613621015
    One-Electron Energy =                -724.2147250471601865
    Two-Electron Energy =                 280.9176018755402424
    DFT Exchange-Correlation Energy =       0.0000000000000000
    Empirical Dispersion Energy =           0.0000000000000000
    PCM Polarization Energy =               0.0000000000000000
    EFP Energy =                            0.0000000000000000
    Total Energy =                       -248.2183408102578710
    Molecular point group: c1
  Basis Set: CC-PVTZ
  Basis Set:

  -Total Gradient:
     Atom            X                  Y                   Z
    ------   -----------------  -----------------  -----------------
       1        0.000015157505    -0.000024774511     0.000014556044
       2        0.000044284374     0.000047737395    -0.000090073719
       3        0.007746422181    -0.005163535447    -0.006140291543
       4       -0.000019961516    -0.000040278614    -0.000001387578
       5       -0.000189204018     0.008922988494    -0.003059572614
       6       -0.006524554324     0.002516148052     0.005891609938
       7        0.000005925803     0.000043623048     0.000031051266
       8       -0.000932786868    -0.006278219271     0.003418781117
       9        0.000008156591    -0.000003790782    -0.000003740040
      10       -0.000014565847    -0.000007410217     0.000008401400
      11       -0.000168790229    -0.000067475366    -0.000100350380
      12       -0.000011816767     0.000009630139    -0.000012946991
      13        0.000028580868     0.000042235256     0.000017838491
      14        0.000013152248     0.000003121824     0.000026124610

  **** Optimization is complete! (in 10 steps) ****
    Final optimized geometry and variables:
    Molecular point group: c1

    Geometry (in Angstrom), charge = 0, multiplicity = 1:

    H           -1.775349577797    -1.245366001343    -1.914183672010
    N           -1.105102157094    -1.066422308730    -1.198276336037
    C           -1.430913517878     0.144530157223    -0.480037843548
    H           -0.203453936609    -1.001378870248    -1.616820382246
    C           -0.361400201615     0.517797697693     0.550141541305
    H           -1.655957162579     1.013577135942    -1.099122937942
    H           -2.348758389631    -0.031419212705     0.073018839965
    O            0.892564669233     0.074794360174     0.134339076637
    H           -0.357028979967     1.594573974037     0.704296161224
    H           -0.596830193083     0.050453863242     1.504414299917
    C            1.919229843779     0.346225026687     1.028063485805
    H            2.834270644133    -0.050326422926     0.612576432680
    H            2.041237598194     1.415942193302     1.185267588741
    H            1.739728882278    -0.124518720417     1.992077646402

  Mulliken Charges: (a.u.)
   Center  Symbol    Alpha    Beta     Spin     Total
       1     H     0.43051  0.43051  0.00000  0.13898
       2     N     3.68873  3.68873  0.00000 -0.37747
       3     C     3.02660  3.02660  0.00000 -0.05321
       4     H     0.42045  0.42045  0.00000  0.15910
       5     C     2.95688  2.95688  0.00000  0.08623
       6     H     0.47047  0.47047  0.00000  0.05905
       7     H     0.46259  0.46259  0.00000  0.07483
       8     O     4.17621  4.17621  0.00000 -0.35242
       9     H     0.47287  0.47287  0.00000  0.05427
      10     H     0.47492  0.47492  0.00000  0.05016
      11     C     3.03003  3.03003  0.00000 -0.06007
      12     H     0.44735  0.44735  0.00000  0.10529
      13     H     0.47167  0.47167  0.00000  0.05666
      14     H     0.47071  0.47071  0.00000  0.05858

   Total alpha = 21.00000, Total beta = 21.00000, Total charge =  0.00000

*** Psi4 exiting successfully. Buy a developer a beer!
