  ==> Input File <==

--------------------------------------------------------------------------
set {
	reference rhf
	basis cc-pvtz
}

set_num_threads( 4 )
memory 2 gb

molecule MOL {
0 1

O	 1.294769	 -2.648328	 0.774054
C	 0.397710	 -1.966923	 0.412320
C	 -1.041334	 -2.393613	 0.359935
O	 0.550743	 -0.719877	 0.000412
H	 -1.637213	 -1.737785	 0.981404
H	 -1.128983	 -3.411694	 0.702515
H	 -1.408377	 -2.308138	 -0.654663
C	 1.863204	 -0.194033	 0.000410
H	 2.031502	 0.409177	 -0.879273
H	 2.524488	 -1.045142	 0.000793
H	 2.031291	 0.409823	 0.879686

	symmetry c1
}
set optking {
	frozen_dihedral = ("
		2 4 8 9
	")
}

ee = optimize('scf')
oeprop('DIPOLE', 'QUADRUPOLE', 'MULLIKEN_CHARGES')
f=open( 'psi4out.xyz', 'w' )
f.write( "11  " )
f.write( str(ee) + "\n" )
f.write( MOL.save_string_xyz() )
f.close()
--------------------------------------------------------------------------

    Molecular point group: c1
  Charge       = 0
  Multiplicity = 1
  Basis Set: CC-PVTZ
  Basis Set:
  @DF-RHF Final Energy:  -266.93582751400379
    Total Energy =                       -266.9358275140035630
    Molecular point group: c1
  Basis Set: CC-PVTZ
  Basis Set:
  Basis Set: CC-PVTZ
  Basis Set:
  @DF-RHF Final Energy:  -266.93699137560378
    Total Energy =                       -266.9369913756038386
  Basis Set: CC-PVTZ
  Basis Set:
  Basis Set: CC-PVTZ
  Basis Set:
  @DF-RHF Final Energy:  -266.93752506760654
    Total Energy =                       -266.9375250676066571
  Basis Set: CC-PVTZ
  Basis Set:
  Basis Set: CC-PVTZ
  Basis Set:
  @DF-RHF Final Energy:  -266.93657352482990
    Total Energy =                       -266.9365735248297824
  Basis Set: CC-PVTZ
  Basis Set:
  Basis Set: CC-PVTZ
  Basis Set:
  @DF-RHF Final Energy:  -266.93761207110140
    Total Energy =                       -266.9376120711013982
  Basis Set: CC-PVTZ
  Basis Set:
  Charge       = 0
  Multiplicity = 1
  Basis Set: CC-PVTZ
  Basis Set:

    Orbital Energies (a.u.)
    -----------------------

    Doubly Occupied:

       1A    -20.597914     2A    -20.534729     3A    -11.369892
       4A    -11.278821     5A    -11.232662     6A     -1.472130
       7A     -1.368209     8A     -1.037019     9A     -0.954029
      10A     -0.779383    11A     -0.699037    12A     -0.682866
      13A     -0.680997    14A     -0.598095    15A     -0.592485
      16A     -0.561488    17A     -0.530401    18A     -0.520955
      19A     -0.459651    20A     -0.445925

  @DF-RHF Final Energy:  -266.93761602638602

   => Energetics <=

    Nuclear Repulsion Energy =            183.3296753362274103
    One-Electron Energy =                -727.7412054481872019
    Two-Electron Energy =                 277.4739140855732558
    DFT Exchange-Correlation Energy =       0.0000000000000000
    Empirical Dispersion Energy =           0.0000000000000000
    PCM Polarization Energy =               0.0000000000000000
    EFP Energy =                            0.0000000000000000
    Total Energy =                       -266.9376160263865359
    Molecular point group: c1
  Basis Set: CC-PVTZ
  Basis Set:

  -Total Gradient:
     Atom            X                  Y                   Z
    ------   -----------------  -----------------  -----------------
       1       -0.000078788885    -0.000141409513     0.000031099262
       2        0.000275139776    -0.000294325115    -0.001042605984
       3        0.000053583471     0.000040684367    -0.000026366936
       4       -0.000134765332     0.000374203043     0.001348515635
       5        0.000020186941     0.000007721127     0.000009154656
       6        0.000015441326    -0.000010736101     0.000002073360
       7        0.000018371209     0.000000797901     0.000006020855
       8       -0.000500891366     0.001070870099     0.000330635280
       9        0.000397347342    -0.001020894961    -0.000657272737
      10       -0.000057783577    -0.000027562227    -0.000007720367
      11       -0.000007840906     0.000000651379     0.000006466977

  **** Optimization is complete! (in 6 steps) ****
    Final optimized geometry and variables:
    Molecular point group: c1

    Geometry (in Angstrom), charge = 0, multiplicity = 1:

    O            0.642913926829    -1.109417182473     0.477524937228
    C           -0.231440958886    -0.402820412609     0.109758819987
    C           -1.678451865165    -0.799511113852     0.036988826921
    O           -0.058854161460     0.846487256608    -0.290927488005
    H           -2.267306440584    -0.136370948160     0.657362921421
    H           -1.790910244419    -1.818294872626     0.370135749801
    H           -2.031798687786    -0.697627832067    -0.980875859931
    C            1.247797422065     1.388867599018    -0.316435448158
    H            1.323649114472     1.984428511299    -1.212946642456
    H            1.987385388151     0.606528768148    -0.328526145764
    H            1.392985075741     2.013172041171     0.553856626534

  Mulliken Charges: (a.u.)
   Center  Symbol    Alpha    Beta     Spin     Total
       1     O     4.19699  4.19699  0.00000 -0.39398
       2     C     2.79863  2.79863  0.00000  0.40273
       3     C     3.13938  3.13938  0.00000 -0.27876
       4     O     4.14959  4.14959  0.00000 -0.29919
       5     H     0.44540  0.44540  0.00000  0.10920
       6     H     0.43798  0.43798  0.00000  0.12404
       7     H     0.44581  0.44581  0.00000  0.10837
       8     C     3.03568  3.03568  0.00000 -0.07135
       9     H     0.44976  0.44976  0.00000  0.10049
      10     H     0.44529  0.44529  0.00000  0.10942
      11     H     0.45548  0.45548  0.00000  0.08904

   Total alpha = 20.00000, Total beta = 20.00000, Total charge =  0.00000
