  ==> Input File <==

--------------------------------------------------------------------------
set {
	reference rhf
	basis 6-31G*
}

set_num_threads( 4 )
memory 2 gb

molecule MOL {
0 1

H	 -3.161837	 0.500524	 -0.000234
C	 -2.367097	 -0.232926	 -0.000000
O	 -1.158440	 0.455814	 -0.000122
H	 -2.468853	 -0.861886	 -0.882833
H	 -2.468942	 -0.861421	 0.883154
C	 -0.867982	 1.106008	 1.200193
C	 0.469262	 1.812968	 1.063627
H	 -0.833604	 0.385623	 2.018583
H	 -1.653637	 1.824557	 1.437559
C	 0.870502	 2.555555	 2.337382
H	 1.223572	 1.075880	 0.805983
H	 0.409322	 2.504800	 0.229077
H	 0.959960	 1.876421	 3.180708
H	 1.827484	 3.050771	 2.211718
H	 0.139486	 3.315135	 2.600169

	symmetry c1
}
set optking {
	frozen_dihedral = ("
		6 3 2 4
	")
}

ee = optimize('scf')
oeprop('DIPOLE', 'QUADRUPOLE', 'MULLIKEN_CHARGES')
f=open( 'psi4out.xyz', 'w' )
f.write( "15  " )
f.write( str(ee) + "\n" )
f.write( MOL.save_string_xyz() )
f.close()
--------------------------------------------------------------------------

    Molecular point group: c1
  Charge       = 0
  Multiplicity = 1
  Basis Set: 6-31G*
  Basis Set:
  @DF-RHF Final Energy:  -232.13800519946793
    Total Energy =                       -232.1380051994678979
    Molecular point group: c1
  Basis Set: 6-31G*
  Basis Set:
  Basis Set: 6-31G*
  Basis Set:
  @DF-RHF Final Energy:  -232.13893073424819
    Total Energy =                       -232.1389307342482766
  Basis Set: 6-31G*
  Basis Set:
  Basis Set: 6-31G*
  Basis Set:
  @DF-RHF Final Energy:  -232.13919467683675
    Total Energy =                       -232.1391946768367234
  Basis Set: 6-31G*
  Basis Set:
  Charge       = 0
  Multiplicity = 1
  Basis Set: 6-31G*
  Basis Set:

    Orbital Energies (a.u.)
    -----------------------

    Doubly Occupied:

       1A    -20.553188     2A    -11.266293     3A    -11.263934
       4A    -11.214231     5A    -11.212913     6A     -1.378075
       7A     -1.057279     8A     -0.955305     9A     -0.877256
      10A     -0.809104    11A     -0.674746    12A     -0.653830
      13A     -0.630131    14A     -0.607729    15A     -0.565358
      16A     -0.541638    17A     -0.502747    18A     -0.488823
      19A     -0.478112    20A     -0.461419    21A     -0.413577

  @DF-RHF Final Energy:  -232.13919557307995

   => Energetics <=

    Nuclear Repulsion Energy =            189.7238603008954954
    One-Electron Energy =                -690.5147314062927535
    Two-Electron Energy =                 268.6516755323171992
    DFT Exchange-Correlation Energy =       0.0000000000000000
    Empirical Dispersion Energy =           0.0000000000000000
    PCM Polarization Energy =               0.0000000000000000
    EFP Energy =                            0.0000000000000000
    Total Energy =                       -232.1391955730800873
    Molecular point group: c1
  Basis Set: 6-31G*
  Basis Set:

  -Total Gradient:
     Atom            X                  Y                   Z
    ------   -----------------  -----------------  -----------------
       1        0.000037918721     0.000037066893    -0.000003374924
       2       -0.000583340445     0.000995669523    -0.000659788744
       3       -0.000634415143     0.001182135184    -0.000465078646
       4        0.000709938529    -0.001086804693     0.000732726732
       5        0.000044406002     0.000019995567     0.000018926478
       6        0.000483704703    -0.001089438379     0.000531427681
       7        0.000000916043    -0.000027780318    -0.000092221794
       8       -0.000005208365    -0.000005708393     0.000022939056
       9       -0.000001563448    -0.000006050640    -0.000046486092
      10       -0.000069953543    -0.000017539424    -0.000002461770
      11        0.000001406941    -0.000006358795    -0.000004571163
      12        0.000028480610     0.000020011077    -0.000011292629
      13        0.000003658165    -0.000004458845    -0.000001478384
      14       -0.000013959508    -0.000015224565    -0.000029254739
      15       -0.000001989260     0.000004485809     0.000009988939

  **** Optimization is complete! (in 4 steps) ****
    Final optimized geometry and variables:
    Molecular point group: c1

    Geometry (in Angstrom), charge = 0, multiplicity = 1:

    H           -2.579093998468    -0.658065080929    -0.910841950614
    C           -1.736284580820    -1.346735906182    -0.912467093281
    O           -0.521512302912    -0.668312813549    -0.910704021597
    H           -1.772177396460    -1.953451312545    -1.807120968357
    H           -1.827022541910    -2.003281786967    -0.048727256739
    C           -0.229889472007    -0.012071569507     0.286266062983
    C            1.111264651933     0.686644251910     0.146405090737
    H           -0.200578328443    -0.728659561709     1.107870732888
    H           -1.011303012721     0.712750488858     0.518967591893
    C            1.516811324060     1.431795710255     1.417279036546
    H            1.861044365042    -0.056003523381    -0.108638264572
    H            1.055405849032     1.375754340847    -0.690673440535
    H            1.602958227108     0.755232568613     2.263020957254
    H            2.476442205143     1.921336029110     1.289518449832
    H            0.789950526504     2.196183292744     1.677707223670

  Mulliken Charges: (a.u.)
   Center  Symbol    Alpha    Beta     Spin     Total
       1     H     0.42926  0.42926  0.00000  0.14149
       2     C     3.07900  3.07900  0.00000 -0.15800
       3     O     4.30610  4.30610  0.00000 -0.61220
       4     H     0.41248  0.41248  0.00000  0.17504
       5     H     0.43130  0.43130  0.00000  0.13741
       6     C     2.98156  2.98156  0.00000  0.03688
       7     C     3.15984  3.15984  0.00000 -0.31968
       8     H     0.43307  0.43307  0.00000  0.13386
       9     H     0.43368  0.43368  0.00000  0.13264
      10     C     3.24792  3.24792  0.00000 -0.49584
      11     H     0.41432  0.41432  0.00000  0.17136
      12     H     0.41433  0.41433  0.00000  0.17134
      13     H     0.42088  0.42088  0.00000  0.15825
      14     H     0.41542  0.41542  0.00000  0.16916
      15     H     0.42085  0.42085  0.00000  0.15830

   Total alpha = 21.00000, Total beta = 21.00000, Total charge =  0.00000
