  ==> Input File <==

--------------------------------------------------------------------------
set {
	reference rhf
	basis cc-pvtz
}

set_num_threads( 4 )
memory 2 gb

molecule MOL {
0 1

H	 2.646708	 0.758099	 0.000000
O	 2.258158	 -0.097743	 0.000000
C	 0.911162	 -0.015915	 0.000000
C	 0.297347	 0.442235	 -1.154180
C	 0.147962	 -0.369485	 1.096784
H	 0.905206	 0.711965	 -1.995164
C	 -1.076299	 0.542476	 -1.200238
H	 0.624182	 -0.725055	 1.992571
C	 -1.230301	 -0.263697	 1.036284
H	 -1.546533	 0.898158	 -2.097328
C	 -1.851801	 0.191207	 -0.107713
H	 -1.815511	 -0.540398	 1.892610
H	 -2.920212	 0.271920	 -0.151066

	symmetry c1
}
set optking {
	frozen_dihedral = ("
		4 3 2 1
	")
}

ee = optimize('scf')
oeprop('DIPOLE', 'QUADRUPOLE', 'MULLIKEN_CHARGES')
f=open( 'psi4out.xyz', 'w' )
f.write( "13  " )
f.write( str(ee) + "\n" )
f.write( MOL.save_string_xyz() )
f.close()
--------------------------------------------------------------------------

    Molecular point group: c1
  Charge       = 0
  Multiplicity = 1
  Basis Set: CC-PVTZ
  Basis Set:
  @DF-RHF Final Energy:  -305.66552210096671
    Total Energy =                       -305.6655221009665411
    Molecular point group: c1
  Basis Set: CC-PVTZ
  Basis Set:
  Basis Set: CC-PVTZ
  Basis Set:
  @DF-RHF Final Energy:  -305.66668241858770
    Total Energy =                       -305.6666824185876976
  Basis Set: CC-PVTZ
  Basis Set:
  Basis Set: CC-PVTZ
  Basis Set:
  @DF-RHF Final Energy:  -305.66675623811273
    Total Energy =                       -305.6667562381128391
  Basis Set: CC-PVTZ
  Basis Set:
  Basis Set: CC-PVTZ
  Basis Set:
  @DF-RHF Final Energy:  -305.66676465173202
    Total Energy =                       -305.6667646517320236
  Basis Set: CC-PVTZ
  Basis Set:
  Charge       = 0
  Multiplicity = 1
  Basis Set: CC-PVTZ
  Basis Set:

    Orbital Energies (a.u.)
    -----------------------

    Doubly Occupied:

       1A    -20.572690     2A    -11.289769     3A    -11.233771
       4A    -11.233061     5A    -11.226156     6A    -11.225014
       7A    -11.224160     8A     -1.399849     9A     -1.153241
      10A     -1.022365    11A     -1.008361    12A     -0.841145
      13A     -0.828227    14A     -0.738492    15A     -0.684725
      16A     -0.651819    17A     -0.630868    18A     -0.597346
      19A     -0.591977    20A     -0.529703    21A     -0.517492
      22A     -0.498062    23A     -0.473550    24A     -0.341960
      25A     -0.327537

  @DF-RHF Final Energy:  -305.66676628929451

   => Energetics <=

    Nuclear Repulsion Energy =            273.3677919426150993
    One-Electron Energy =                -956.3864364067806036
    Two-Electron Energy =                 377.3518781748709330
    DFT Exchange-Correlation Energy =       0.0000000000000000
    Empirical Dispersion Energy =           0.0000000000000000
    PCM Polarization Energy =               0.0000000000000000
    EFP Energy =                            0.0000000000000000
    Total Energy =                       -305.6667662892945714
    Molecular point group: c1
  Basis Set: CC-PVTZ
  Basis Set:

  -Total Gradient:
     Atom            X                  Y                   Z
    ------   -----------------  -----------------  -----------------
       1       -0.000067752213     0.000056588700     0.001609858694
       2        0.000168627669    -0.000654169493    -0.002216037310
       3       -0.000123813372     0.001645491018     0.001162693439
       4       -0.000087928583    -0.001105677066    -0.000457600217
       5        0.000202785738     0.000012216432    -0.000039620656
       6       -0.000037359828    -0.000005359042     0.000015741189
       7        0.000100956281     0.000056630868    -0.000030961941
       8        0.000045147884    -0.000000545159    -0.000016639660
       9       -0.000182235734     0.000068819967    -0.000093666461
      10       -0.000041829857    -0.000012300997     0.000002612030
      11        0.000009341140    -0.000077160848     0.000136044110
      12        0.000019430590     0.000002074234    -0.000017110558
      13       -0.000005369712     0.000013391388    -0.000055312660

  **** Optimization is complete! (in 5 steps) ****
    Final optimized geometry and variables:
    Molecular point group: c1

    Geometry (in Angstrom), charge = 0, multiplicity = 1:

    H            2.681376349879     0.649439904383     0.076816790652
    O            2.261575440313    -0.192504320839     0.088304160606
    C            0.903899814054    -0.053741385626     0.035864454884
    C            0.284702082373     0.387396672164    -1.118795958509
    C            0.149979100619    -0.420525876187     1.132746465021
    H            0.882053922249     0.645482962972    -1.972306665298
    C           -1.093024934272     0.480337391829    -1.164251614157
    H            0.649102153580    -0.774005847994     2.013647239680
    C           -1.228531087397    -0.333885772705     1.075824516986
    H           -1.571175339530     0.825977941885    -2.060964303047
    C           -1.855465613482     0.120245267656    -0.068795627210
    H           -1.812037405969    -0.620726966599     1.929816782663
    H           -2.925336696067     0.187854361256    -0.109575121053

  Mulliken Charges: (a.u.)
   Center  Symbol    Alpha    Beta     Spin     Total
       1     H     0.38710  0.38710  0.00000  0.22581
       2     O     4.19082  4.19082  0.00000 -0.38165
       3     C     2.87157  2.87157  0.00000  0.25685
       4     C     3.11637  3.11637  0.00000 -0.23275
       5     C     3.10716  3.10716  0.00000 -0.21432
       6     H     0.41995  0.41995  0.00000  0.16011
       7     C     3.06885  3.06885  0.00000 -0.13770
       8     H     0.41636  0.41636  0.00000  0.16729
       9     C     3.06703  3.06703  0.00000 -0.13405
      10     H     0.42185  0.42185  0.00000  0.15630
      11     C     3.08807  3.08807  0.00000 -0.17614
      12     H     0.42171  0.42171  0.00000  0.15658
      13     H     0.42316  0.42316  0.00000  0.15367

   Total alpha = 25.00000, Total beta = 25.00000, Total charge =  0.00000
