  ==> Input File <==

--------------------------------------------------------------------------
set {
	reference rhf
	basis 6-31G*
}

set_num_threads( 4 )
memory 2 gb

molecule MOL {
0 1

H	 3.243298	 -0.767972	 0.773066
N	 3.092854	 -0.246221	 -0.068770
C	 1.865559	 0.531981	 0.018834
H	 3.033582	 -0.912414	 -0.815432
C	 0.645745	 -0.382037	 -0.029944
H	 1.841966	 1.207024	 -0.831236
H	 1.815756	 1.155410	 0.915079
C	 -0.679275	 0.379305	 0.025956
H	 0.698998	 -0.976915	 -0.937203
H	 0.693479	 -1.083846	 0.802235
C	 -1.903357	 -0.536963	 -0.023547
H	 -0.726309	 1.082987	 -0.803784
H	 -0.717680	 0.977832	 0.934877
C	 -3.225172	 0.228290	 0.028445
H	 -1.867824	 -1.134999	 -0.931459
H	 -1.860449	 -1.239604	 0.805977
H	 -3.313397	 0.915643	 -0.808262
H	 -4.073500	 -0.448134	 -0.008893
H	 -3.306061	 0.809945	 0.942516

	symmetry c1
}
set optking {
	frozen_dihedral = ("
		1 2 3 6
	")
}

ee = optimize('scf')
oeprop('DIPOLE', 'QUADRUPOLE', 'MULLIKEN_CHARGES')
f=open( 'psi4out.xyz', 'w' )
f.write( "19  " )
f.write( str(ee) + "\n" )
f.write( MOL.save_string_xyz() )
f.close()
--------------------------------------------------------------------------

    Molecular point group: c1
  Charge       = 0
  Multiplicity = 1
  Basis Set: 6-31G*
  Basis Set:
  @DF-RHF Final Energy:  -251.34912559282492
    Total Energy =                       -251.3491255928248052
    Molecular point group: c1
  Basis Set: 6-31G*
  Basis Set:
  Basis Set: 6-31G*
  Basis Set:
  @DF-RHF Final Energy:  -251.35130877842209
    Total Energy =                       -251.3513087784220943
  Basis Set: 6-31G*
  Basis Set:
  Basis Set: 6-31G*
  Basis Set:
  @DF-RHF Final Energy:  -251.35157356681293
    Total Energy =                       -251.3515735668131015
  Basis Set: 6-31G*
  Basis Set:
  Basis Set: 6-31G*
  Basis Set:
  @DF-RHF Final Energy:  -251.35157806076467
    Total Energy =                       -251.3515780607645524
  Basis Set: 6-31G*
  Basis Set:
  Basis Set: 6-31G*
  Basis Set:
  @DF-RHF Final Energy:  -251.35158004685823
    Total Energy =                       -251.3515800468583166
  Basis Set: 6-31G*
  Basis Set:
  Charge       = 0
  Multiplicity = 1
  Basis Set: 6-31G*
  Basis Set:

    Orbital Energies (a.u.)
    -----------------------

    Doubly Occupied:

       1A    -15.532175     2A    -11.239580     3A    -11.216964
       4A    -11.215855     5A    -11.213747     6A    -11.209617
       7A     -1.176739     8A     -1.075608     9A     -0.999899
      10A     -0.901326    11A     -0.819513    12A     -0.792843
      13A     -0.678749    14A     -0.638484    15A     -0.600423
      16A     -0.582471    17A     -0.577300    18A     -0.557729
      19A     -0.519079    20A     -0.506553    21A     -0.478115
      22A     -0.473515    23A     -0.467361    24A     -0.463902
      25A     -0.374386

  @DF-RHF Final Energy:  -251.35158017587082

   => Energetics <=

    Nuclear Repulsion Energy =            245.3932968464187070
    One-Electron Energy =                -824.8658857214834370
    Two-Electron Energy =                 328.1210086991938510
    DFT Exchange-Correlation Energy =       0.0000000000000000
    Empirical Dispersion Energy =           0.0000000000000000
    PCM Polarization Energy =               0.0000000000000000
    EFP Energy =                            0.0000000000000000
    Total Energy =                       -251.3515801758708790
    Molecular point group: c1
  Basis Set: 6-31G*
  Basis Set:

  -Total Gradient:
     Atom            X                  Y                   Z
    ------   -----------------  -----------------  -----------------
       1        0.000558301852     0.000999321224     0.000551458296
       2       -0.000581416970    -0.001068747578    -0.000533220405
       3       -0.000438538099    -0.000755679235    -0.000694433612
       4       -0.000007458977     0.000004134808     0.000005449818
       5        0.000024604433     0.000003695060     0.000000310309
       6        0.000455145065     0.000814683193     0.000671768561
       7       -0.000000537977     0.000004052938     0.000002725688
       8       -0.000006512117     0.000000731273    -0.000006533715
       9       -0.000006262023     0.000002258205     0.000006731124
      10        0.000001319097    -0.000002144261    -0.000000269663
      11       -0.000010401203    -0.000000838186    -0.000005109857
      12        0.000009488718    -0.000002141714    -0.000003186741
      13       -0.000006639258    -0.000000794239    -0.000001680240
      14        0.000004412104    -0.000000150180     0.000011048021
      15        0.000000786381     0.000004863522    -0.000004717662
      16        0.000001292825    -0.000003437059    -0.000002887840
      17        0.000000357852    -0.000002977720    -0.000001949963
      18        0.000003581808    -0.000001466731     0.000003528456
      19       -0.000001523509     0.000004636680     0.000000969427

  **** Optimization is complete! (in 6 steps) ****
    Final optimized geometry and variables:
    Molecular point group: c1

    Geometry (in Angstrom), charge = 0, multiplicity = 1:

    H            3.301367287706    -0.717311298414     0.794179020167
    N            3.154776749588    -0.177443995454    -0.036787544778
    C            1.871444003783     0.505064066246     0.009019622553
    H            3.199701252048    -0.808326973193    -0.814007356914
    C            0.636962440360    -0.399023725500    -0.027019137852
    H            1.837236788742     1.208474422419    -0.818042697997
    H            1.854658371520     1.106749776142     0.913158237413
    C           -0.679931524399     0.377395484359     0.025313316276
    H            0.665856669993    -1.004003462577    -0.932757505337
    H            0.682748081905    -1.096687013488     0.808394844671
    C           -1.916999031724    -0.521705014958    -0.015470798848
    H           -0.718681467306     1.077592171976    -0.807640099273
    H           -0.706394350732     0.981468825212     0.930911553467
    C           -3.227564700150     0.262409758147     0.040026379423
    H           -1.894611661232    -1.123229224129    -0.921689079604
    H           -1.880183160255    -1.222093839935     0.816201613457
    H           -3.310316381328     0.947583140573    -0.798948573895
    H           -4.085445918248    -0.402218222442     0.009797668007
    H           -3.295407304053     0.848667375971     0.952118142096

  Mulliken Charges: (a.u.)
   Center  Symbol    Alpha    Beta     Spin     Total
       1     H     0.33481  0.33481  0.00000  0.33039
       2     N     3.91885  3.91885  0.00000 -0.83770
       3     C     3.06067  3.06067  0.00000 -0.12133
       4     H     0.33505  0.33505  0.00000  0.32989
       5     C     3.15838  3.15838  0.00000 -0.31676
       6     H     0.41894  0.41894  0.00000  0.16212
       7     H     0.42003  0.42003  0.00000  0.15993
       8     C     3.15496  3.15496  0.00000 -0.30992
       9     H     0.42702  0.42702  0.00000  0.14597
      10     H     0.42683  0.42683  0.00000  0.14635
      11     C     3.15074  3.15074  0.00000 -0.30149
      12     H     0.42286  0.42286  0.00000  0.15428
      13     H     0.42324  0.42324  0.00000  0.15351
      14     C     3.23939  3.23939  0.00000 -0.47877
      15     H     0.42295  0.42295  0.00000  0.15409
      16     H     0.42304  0.42304  0.00000  0.15391
      17     H     0.42150  0.42150  0.00000  0.15701
      18     H     0.41916  0.41916  0.00000  0.16169
      19     H     0.42158  0.42158  0.00000  0.15684

   Total alpha = 25.00000, Total beta = 25.00000, Total charge = -0.00000
