  ==> Input File <==

--------------------------------------------------------------------------
set {
	reference rhf
	basis cc-pvtz
}

set_num_threads( 4 )
memory 2 gb

molecule MOL {
0 1

H	 -3.512753	 -0.003713	 0.727103
O	 -3.101481	 -0.255066	 -0.080383
C	 -1.771634	 -0.090851	 -0.022605
C	 -1.136527	 0.393628	 1.114213
C	 -1.036116	 -0.423683	 -1.147957
H	 -1.713961	 0.649681	 1.983370
C	 0.230017	 0.542691	 1.119816
H	 -1.545456	 -0.795566	 -2.014153
C	 0.331539	 -0.268545	 -1.126084
H	 0.731905	 0.915452	 1.990602
C	 0.981121	 0.213562	 0.000000
H	 0.903155	 -0.526448	 -1.998586
C	 2.447402	 0.371303	 0.000000
O	 3.227427	 -0.521847	 0.000000
H	 2.796538	 1.409525	 0.000000

	symmetry c1
}
set optking {
	frozen_dihedral = ("
		7 11 13 14
	")
}

ee = optimize('scf')
oeprop('DIPOLE', 'QUADRUPOLE', 'MULLIKEN_CHARGES')
f=open( 'psi4out.xyz', 'w' )
f.write( "15  " )
f.write( str(ee) + "\n" )
f.write( MOL.save_string_xyz() )
f.close()
--------------------------------------------------------------------------

    Molecular point group: c1
  Charge       = 0
  Multiplicity = 1
  Basis Set: CC-PVTZ
  Basis Set:
  @DF-RHF Final Energy:  -418.42833324468296
    Total Energy =                       -418.4283332446825625
    Molecular point group: c1
  Basis Set: CC-PVTZ
  Basis Set:
  Basis Set: CC-PVTZ
  Basis Set:
  @DF-RHF Final Energy:  -418.42845828153946
    Total Energy =                       -418.4284582815392923
  Basis Set: CC-PVTZ
  Basis Set:
  Basis Set: CC-PVTZ
  Basis Set:
  @DF-RHF Final Energy:  -418.42917199914314
    Total Energy =                       -418.4291719991431364
  Basis Set: CC-PVTZ
  Basis Set:
  Basis Set: CC-PVTZ
  Basis Set:
  @DF-RHF Final Energy:  -418.42929780669630
    Total Energy =                       -418.4292978066960131
  Basis Set: CC-PVTZ
  Basis Set:
  Basis Set: CC-PVTZ
  Basis Set:
  @DF-RHF Final Energy:  -418.42930147508861
    Total Energy =                       -418.4293014750887778
  Basis Set: CC-PVTZ
  Basis Set:
  Charge       = 0
  Multiplicity = 1
  Basis Set: CC-PVTZ
  Basis Set:

    Orbital Energies (a.u.)
    -----------------------

    Doubly Occupied:

       1A    -20.597472     2A    -20.559353     3A    -11.329594
       4A    -11.312844     5A    -11.254572     6A    -11.250408
       7A    -11.241253     8A    -11.240831     9A    -11.234282
      10A     -1.429392    11A     -1.413690    12A     -1.172672
      13A     -1.042201    14A     -1.038186    15A     -0.891923
      16A     -0.861249    17A     -0.805403    18A     -0.757377
      19A     -0.706194    20A     -0.685256    21A     -0.654796
      22A     -0.631081    23A     -0.608391    24A     -0.608053
      25A     -0.594210    26A     -0.564143    27A     -0.536927
      28A     -0.505912    29A     -0.496834    30A     -0.425119
      31A     -0.358471    32A     -0.328578

  @DF-RHF Final Energy:  -418.42930216271378

   => Energetics <=

    Nuclear Repulsion Energy =            401.6088244909004175
    One-Electron Energy =               -1365.8029200682904047
    Two-Electron Energy =                 545.7647934146763191
    DFT Exchange-Correlation Energy =       0.0000000000000000
    Empirical Dispersion Energy =           0.0000000000000000
    PCM Polarization Energy =               0.0000000000000000
    EFP Energy =                            0.0000000000000000
    Total Energy =                       -418.4293021627137250
    Molecular point group: c1
  Basis Set: CC-PVTZ
  Basis Set:

  -Total Gradient:
     Atom            X                  Y                   Z
    ------   -----------------  -----------------  -----------------
       1       -0.000012065437     0.000007174297    -0.000001556020
       2       -0.000006848509     0.000035222177     0.000013019448
       3        0.000037240337    -0.000168771740    -0.000107232122
       4        0.000095676188     0.000065884288     0.000049222501
       5       -0.000141554045     0.000035902200     0.000011526759
       6       -0.000003792774    -0.000005288978    -0.000011374973
       7        0.000191003777    -0.005110458287     0.001724594659
       8        0.000001219736     0.000000459154     0.000007246346
       9        0.000088505133     0.000085595726     0.000064688385
      10        0.000020479288     0.000001243254    -0.000032986063
      11       -0.000418041627     0.007305803539     0.000429000696
      12       -0.000007572510     0.000001349331     0.000002337866
      13        0.000254888778    -0.002039264155    -0.008761099148
      14       -0.000132100952    -0.000203820895     0.006611569729
      15        0.000032962617    -0.000011029912     0.000001041937

  **** Optimization is complete! (in 6 steps) ****
    Final optimized geometry and variables:
    Molecular point group: c1

    Geometry (in Angstrom), charge = 0, multiplicity = 1:

    H           -3.511276628525    -0.027370212980     0.765413534799
    O           -3.104387498646    -0.266830739403    -0.047685762742
    C           -1.772651436639    -0.080676831912     0.001136056797
    C           -1.132698039583     0.412403477406     1.123386812891
    C           -1.038582361346    -0.406097121219    -1.128043355046
    H           -1.697201154301     0.652608474216     2.005546285380
    C            0.236963547403     0.592146114223     1.107895499735
    H           -1.548001723549    -0.795329402213    -1.987011544791
    C            0.327717378332    -0.241828721762    -1.123203533552
    H            0.723284468248     0.978018292364     1.984838248806
    C            0.977990867767     0.279189073979    -0.014503105177
    H            0.896217741194    -0.522116740191    -1.989214323957
    C            2.468531868243     0.385826557850     0.021534651279
    O            3.196413864454    -0.545143728175    -0.000838350884
    H            2.875458003966     1.396933761095     0.131005233447

  Mulliken Charges: (a.u.)
   Center  Symbol    Alpha    Beta     Spin     Total
       1     H     0.38657  0.38657  0.00000  0.22687
       2     O     4.16979  4.16979  0.00000 -0.33958
       3     C     2.85468  2.85468  0.00000  0.29064
       4     C     3.12632  3.12632  0.00000 -0.25265
       5     C     3.09819  3.09819  0.00000 -0.19638
       6     H     0.43230  0.43230  0.00000  0.13540
       7     C     3.08315  3.08315  0.00000 -0.16630
       8     H     0.41714  0.41714  0.00000  0.16573
       9     C     3.07437  3.07437  0.00000 -0.14875
      10     H     0.42303  0.42303  0.00000  0.15395
      11     C     2.96578  2.96578  0.00000  0.06844
      12     H     0.41821  0.41821  0.00000  0.16359
      13     C     2.93533  2.93533  0.00000  0.12935
      14     O     4.15798  4.15798  0.00000 -0.31597
      15     H     0.45717  0.45717  0.00000  0.08567

   Total alpha = 32.00000, Total beta = 32.00000, Total charge = -0.00000
