                              Psi4 1.0.54 Driver

  ==> Input File <==

--------------------------------------------------------------------------
set {
	reference rhf
	basis cc-pvtz
}

set_num_threads( 4 )
memory 2 gb

molecule MOL {
0 1

H	 0.553073	 -1.247011	 -0.764282
C	 0.581007	 -0.248881	 -1.222316
C	 0.062554	 0.862911	 -0.350953
O	 1.003646	 -0.112171	 -2.317689
C	 -1.339253	 0.577611	 0.196911
H	 0.087729	 1.784955	 -0.917252
H	 0.758358	 0.959577	 0.479461
C	 -1.813142	 -0.849710	 -0.061612
H	 -2.032833	 1.276441	 -0.256032
H	 -1.357249	 0.782269	 1.263793
H	 -1.839268	 -1.063526	 -1.124230
H	 -2.810118	 -1.001930	 0.334000
H	 -1.159274	 -1.579980	 0.402282

	symmetry c1
}
set optking {
	frozen_dihedral = ("
		6 3 5 9
	")
}

ee,wfn = optimize('scf', return_wfn=True)
oeprop( wfn, 'DIPOLE', 'QUADRUPOLE', 'MULLIKEN_CHARGES')
f=open( 'psi4out.xyz', 'w' )
f.write( "13  " )
f.write( str(ee) + "\n" )
f.write( MOL.save_string_xyz() )
f.close()
--------------------------------------------------------------------------

    Molecular point group: c1
  Charge       = 0
  Multiplicity = 1
  Basis Set: CC-PVTZ
  Basis Set:
  @DF-RHF Final Energy:  -231.05997902304651
    Total Energy =                       -231.0599790230463952
    Molecular point group: c1
  Basis Set: CC-PVTZ
  Basis Set:
  Basis Set: CC-PVTZ
  Basis Set:
  @DF-RHF Final Energy:  -230.95261664533763
    Total Energy =                       -230.9526166453376845
  Basis Set: CC-PVTZ
  Basis Set:
  Basis Set: CC-PVTZ
  Basis Set:
  @DF-RHF Final Energy:  -231.04230141901635
    Total Energy =                       -231.0423014190163826
  Basis Set: CC-PVTZ
  Basis Set:
  Basis Set: CC-PVTZ
  Basis Set:
  @DF-RHF Final Energy:  -231.06178922864748
    Total Energy =                       -231.0617892286476263
  Basis Set: CC-PVTZ
  Basis Set:
  @DF-RHF Final Energy:  -231.05515407887981
    Total Energy =                       -231.0551540788797524
  @DF-RHF Final Energy:  -231.06266254954335
    Total Energy =                       -231.0626625495435178
  @DF-RHF Final Energy:  -231.06288001596445
    Total Energy =                       -231.0628800159643959
  @DF-RHF Final Energy:  -231.06287055411997
    Total Energy =                       -231.0628705541198258
  Basis Set: CC-PVTZ
  Basis Set:
  @DF-RHF Final Energy:  -231.06294639748509
    Total Energy =                       -231.0629463974854048
  Basis Set: CC-PVTZ
  Basis Set:
  Basis Set: CC-PVTZ
  Basis Set:
  @DF-RHF Final Energy:  -231.06295122114562
    Total Energy =                       -231.0629512211455676
  Basis Set: CC-PVTZ
  Basis Set:
  Basis Set: CC-PVTZ
  Basis Set:
  @DF-RHF Final Energy:  -231.06295367592730
    Total Energy =                       -231.0629536759274174
  Basis Set: CC-PVTZ
  Basis Set:
  Charge       = 0
  Multiplicity = 1
  Basis Set: CC-PVTZ
  Basis Set:

    Orbital Energies (a.u.)
    -----------------------

    Doubly Occupied:

       1A    -20.551157     2A    -11.320471     3A    -11.237152
       4A    -11.234169     5A    -11.223212     6A     -1.405906
       7A     -1.082492     8A     -0.974671     9A     -0.858894
      10A     -0.776830    11A     -0.678893    12A     -0.639395
      13A     -0.625067    14A     -0.604037    15A     -0.560746
      16A     -0.533112    17A     -0.518331    18A     -0.488115
      19A     -0.478805    20A     -0.410725

  @DF-RHF Final Energy:  -231.06295375056331

   => Energetics <=

    Nuclear Repulsion Energy =            174.2849559200233500
    One-Electron Energy =                -658.2914610900320440
    Two-Electron Energy =                 252.9435514194454697
    DFT Exchange-Correlation Energy =       0.0000000000000000
    Empirical Dispersion Energy =           0.0000000000000000
    PCM Polarization Energy =               0.0000000000000000
    EFP Energy =                            0.0000000000000000
    Total Energy =                       -231.0629537505632527
    Molecular point group: c1
  Basis Set: CC-PVTZ
  Basis Set:

  -Total Gradient:
     Atom            X                  Y                   Z
    ------   -----------------  -----------------  -----------------
       1        0.000007681909    -0.000008726782    -0.000002056398
       2       -0.000028574203     0.000001085893     0.000016944204
       3        0.001648864188     0.000114445522     0.004385798761
       4        0.000009200147     0.000014053105    -0.000024993586
       5       -0.001494594748    -0.000644891967    -0.004338764528
       6       -0.001161541488    -0.000002961213    -0.003004686311
       7       -0.000006992277    -0.000001029053    -0.000001940954
       8        0.000016540903    -0.000003443860    -0.000000604264
       9        0.001005421018     0.000523928063     0.002968280916
      10        0.000002148682     0.000000462275    -0.000005469130
      11        0.000024870642    -0.000001201668    -0.000000569866
      12       -0.000005825241     0.000004935000    -0.000000365307
      13       -0.000017199531     0.000003344687     0.000008426465

  **** Optimization is complete! (in 12 steps) ****
    Final optimized geometry and variables:
    Molecular point group: c1

    Geometry (in Angstrom), charge = 0, multiplicity = 1:

    H            0.954952878595    -1.153460194278    -0.802468013641
    C            0.868394765278    -0.066896913696    -0.694748165537
    C            0.571343475396     0.437877426719     0.694128855603
    O            1.023852650751     0.631101853198    -1.637205914172
    C           -0.831373108903     0.054865838396     1.237783860987
    H            0.678894186507     1.512470848588     0.653456390583
    H            1.342932148161     0.037081728980     1.344254816251
    C           -1.590076438850    -1.029030759914     0.474636759898
    H           -1.434483399720     0.953069631916     1.281002913641
    H           -0.721743480657    -0.263422306329     2.267904495954
    H           -1.762764754828    -0.750298273371    -0.558748728816
    H           -2.556812924532    -1.193965249035     0.934124325550
    H           -1.061190862279    -1.975507159424     0.481994799430

  Mulliken Charges: (a.u.)
   Center  Symbol    Alpha    Beta     Spin     Total
       1     H     0.46236  0.46236  0.00000  0.07529
       2     C     2.90517  2.90517  0.00000  0.18966
       3     C     3.08782  3.08782  0.00000 -0.17565
       4     O     4.16619  4.16619  0.00000 -0.33237
       5     C     3.09102  3.09102  0.00000 -0.18204
       6     H     0.44148  0.44148  0.00000  0.11704
       7     H     0.44933  0.44933  0.00000  0.10134
       8     C     3.15936  3.15936  0.00000 -0.31872
       9     H     0.44530  0.44530  0.00000  0.10941
      10     H     0.44922  0.44922  0.00000  0.10156
      11     H     0.44788  0.44788  0.00000  0.10424
      12     H     0.44313  0.44313  0.00000  0.11375
      13     H     0.45175  0.45175  0.00000  0.09650

   Total alpha = 20.00000, Total beta = 20.00000, Total charge =  0.00000

*** Psi4 exiting successfully. Buy a developer a beer!
