  ==> Input File <==

--------------------------------------------------------------------------
set {
	reference rhf
	basis 6-31G*
}

set_num_threads( 4 )
memory 2 gb

molecule MOL {
0 1

H	 -3.191253	 1.184170	 -1.102837
O	 -3.452007	 0.283848	 -0.965577
C	 -3.181085	 -0.079926	 0.364119
C	 -1.765924	 0.277073	 0.805136
H	 -3.327791	 -1.152017	 0.410903
H	 -3.905698	 0.375695	 1.036898
C	 -0.677594	 -0.417312	 -0.014550
H	 -1.637766	 1.358238	 0.744969
H	 -1.659588	 0.017670	 1.857098
C	 0.738335	 -0.034840	 0.421385
H	 -0.814977	 -0.178223	 -1.064632
H	 -0.802730	 -1.495410	 0.071702
C	 1.822265	 -0.738362	 -0.399735
H	 0.853533	 1.043532	 0.342250
H	 0.871597	 -0.279636	 1.474438
C	 3.258060	 -0.455774	 0.057203
H	 1.718003	 -0.459167	 -1.447053
H	 1.651028	 -1.811884	 -0.354513
C	 3.709143	 0.994797	 -0.123830
H	 3.930637	 -1.101717	 -0.501982
H	 3.365259	 -0.739518	 1.102287
H	 3.601178	 1.310569	 -1.158127
H	 4.753787	 1.110486	 0.148516
H	 3.135362	 1.678896	 0.492569

	symmetry c1
}
set optking {
	frozen_dihedral = ("
		1 2 3 5
	")
}

ee = optimize('scf')
oeprop('DIPOLE', 'QUADRUPOLE', 'MULLIKEN_CHARGES')
f=open( 'psi4out.xyz', 'w' )
f.write( "24  " )
f.write( str(ee) + "\n" )
f.write( MOL.save_string_xyz() )
f.close()
--------------------------------------------------------------------------

    Molecular point group: c1
  Charge       = 0
  Multiplicity = 1
  Basis Set: 6-31G*
  Basis Set:
  @DF-RHF Final Energy:  -349.24723861284127
    Total Energy =                       -349.2472386128413859
    Molecular point group: c1
  Basis Set: 6-31G*
  Basis Set:
  Basis Set: 6-31G*
  Basis Set:
  @DF-RHF Final Energy:  -349.24725219976892
    Total Energy =                       -349.2472521997689796
  Basis Set: 6-31G*
  Basis Set:
  Charge       = 0
  Multiplicity = 1
  Basis Set: 6-31G*
  Basis Set:

    Orbital Energies (a.u.)
    -----------------------

    Doubly Occupied:

       1A    -20.552940     2A    -11.267426     3A    -11.219981
       4A    -11.215146     5A    -11.214330     6A    -11.213715
       7A    -11.212995     8A    -11.208348     9A     -1.359761
      10A     -1.090272    11A     -1.049637    12A     -0.986738
      13A     -0.916295    14A     -0.852262    15A     -0.802827
      16A     -0.777710    17A     -0.672363    18A     -0.655438
      19A     -0.628673    20A     -0.622585    21A     -0.600495
      22A     -0.586086    23A     -0.558272    24A     -0.541482
      25A     -0.515214    26A     -0.511932    27A     -0.499487
      28A     -0.473857    29A     -0.467081    30A     -0.462628
      31A     -0.454736    32A     -0.453094    33A     -0.420196

  @DF-RHF Final Energy:  -349.24725245326874

   => Energetics <=

    Nuclear Repulsion Energy =            384.6563424863091996
    One-Electron Energy =               -1235.6791822583072644
    Two-Electron Energy =                 501.7755873187293219
    DFT Exchange-Correlation Energy =       0.0000000000000000
    Empirical Dispersion Energy =           0.0000000000000000
    PCM Polarization Energy =               0.0000000000000000
    EFP Energy =                            0.0000000000000000
    Total Energy =                       -349.2472524532687430
    Molecular point group: c1
  Basis Set: 6-31G*
  Basis Set:

  -Total Gradient:
     Atom            X                  Y                   Z
    ------   -----------------  -----------------  -----------------
       1        0.001474203879    -0.000493140823    -0.000444209596
       2       -0.001472592061     0.000510531137     0.000443937673
       3       -0.001444726604     0.000256581405     0.000393499778
       4       -0.000082630626    -0.000297796169     0.000089949531
       5        0.001477623838    -0.000220796134    -0.000351946464
       6       -0.000010341611     0.000103764422    -0.000027257654
       7        0.000057403050    -0.000011449747     0.000033716335
       8       -0.000022574966     0.000023052403     0.000039364686
       9        0.000029610099     0.000030875474    -0.000042319860
      10        0.000019478940     0.000063941804    -0.000073116357
      11        0.000006250709     0.000006584792    -0.000062246376
      12       -0.000008494885     0.000037504050    -0.000012024883
      13       -0.000009447461    -0.000024388991     0.000019840209
      14        0.000016443120     0.000004814971    -0.000012039904
      15       -0.000018246671     0.000019388069    -0.000018194507
      16        0.000009743875    -0.000016561906     0.000016144748
      17        0.000007409781     0.000006999367     0.000012614560
      18       -0.000026408200    -0.000009357868    -0.000010220166
      19       -0.000007821764     0.000005691858     0.000003221222
      20       -0.000009713556     0.000009839518     0.000000771768
      21        0.000013046955    -0.000007715396    -0.000001593492
      22        0.000006381227    -0.000003672382     0.000002793086
      23       -0.000006661484    -0.000000466277     0.000003141915
      24        0.000002064419     0.000005776424    -0.000003826251

  **** Optimization is complete! (in 3 steps) ****
    Final optimized geometry and variables:
    Molecular point group: c1

    Geometry (in Angstrom), charge = 0, multiplicity = 1:

    H           -3.207554315155     1.179594476303    -1.104455109498
    O           -3.459206436272     0.277336138619    -0.962612297137
    C           -3.184083255878    -0.079416008809     0.367983147241
    C           -1.767381557031     0.278342983570     0.804597489596
    H           -3.320463914080    -1.152672332042     0.418745884599
    H           -3.906492618786     0.380042782431     1.040051387940
    C           -0.678719992276    -0.413678288644    -0.017545056015
    H           -1.640155108862     1.360326553366     0.747817301605
    H           -1.657865021445     0.018287196674     1.855652506237
    C            0.737114810522    -0.030058179555     0.417575564416
    H           -0.814925824958    -0.175691043560    -1.068449941438
    H           -0.803293472448    -1.491675954162     0.067460297975
    C            1.821116412610    -0.736021170374    -0.401327953763
    H            0.852786430038     1.048059145682     0.336182183742
    H            0.869469851363    -0.272507985611     1.471207882404
    C            3.256482151820    -0.456354810961     0.058662431503
    H            1.719725934859    -0.456716224792    -1.448872408663
    H            1.647355305794    -1.809161184762    -0.356437908201
    C            3.710318632380     0.993654002899    -0.119828516447
    H            3.928825631981    -1.102799633009    -0.500051048316
    H            3.361178397376    -0.741574958356     1.103579699833
    H            3.605642177973     1.310590709788    -1.154093940827
    H            4.754433795562     1.107273184012     0.155267796447
    H            3.136170793553     1.678152741725     0.495776915949

  Mulliken Charges: (a.u.)
   Center  Symbol    Alpha    Beta     Spin     Total
       1     H     0.28349  0.28349  0.00000  0.43301
       2     O     4.36957  4.36957  0.00000 -0.73913
       3     C     2.98997  2.98997  0.00000  0.02005
       4     C     3.17612  3.17612  0.00000 -0.35224
       5     H     0.41724  0.41724  0.00000  0.16552
       6     H     0.42764  0.42764  0.00000  0.14471
       7     C     3.15102  3.15102  0.00000 -0.30205
       8     H     0.42806  0.42806  0.00000  0.14388
       9     H     0.42040  0.42040  0.00000  0.15919
      10     C     3.15359  3.15359  0.00000 -0.30718
      11     H     0.41465  0.41465  0.00000  0.17071
      12     H     0.42242  0.42242  0.00000  0.15515
      13     C     3.15233  3.15233  0.00000 -0.30465
      14     H     0.42292  0.42292  0.00000  0.15416
      15     H     0.42496  0.42496  0.00000  0.15008
      16     C     3.15238  3.15238  0.00000 -0.30476
      17     H     0.42370  0.42370  0.00000  0.15259
      18     H     0.42181  0.42181  0.00000  0.15638
      19     C     3.24113  3.24113  0.00000 -0.48226
      20     H     0.42083  0.42083  0.00000  0.15834
      21     H     0.42360  0.42360  0.00000  0.15281
      22     H     0.42230  0.42230  0.00000  0.15541
      23     H     0.41929  0.41929  0.00000  0.16143
      24     H     0.42058  0.42058  0.00000  0.15885

   Total alpha = 33.00000, Total beta = 33.00000, Total charge =  0.00000
