  ==> Input File <==

--------------------------------------------------------------------------
set {
	reference rhf
	basis 6-31G*
}

set_num_threads( 4 )
memory 2 gb

molecule MOL {
0 1

H	 -4.290000	 -0.260530	 -0.758955
C	 -3.444100	 -0.331901	 -0.103197
C	 -2.272853	 -0.682576	 -0.581954
H	 -3.582098	 -0.111544	 0.938586
O	 -1.180634	 -0.819263	 0.215062
H	 -2.112147	 -0.900394	 -1.623071
C	 0.051604	 -1.018856	 -0.387932
C	 1.043764	 0.054862	 -0.001873
H	 -0.017620	 -1.041351	 -1.469781
H	 0.437898	 -1.966374	 -0.042284
F	 2.212596	 -0.199467	 -0.571921
F	 0.652529	 1.252447	 -0.405055
F	 1.230877	 0.110694	 1.300533

	symmetry c1
}
set optking {
	frozen_dihedral = ("
		3 5 7 9
	")
}

ee = optimize('scf')
oeprop('DIPOLE', 'QUADRUPOLE', 'MULLIKEN_CHARGES')
f=open( 'psi4out.xyz', 'w' )
f.write( "13  " )
f.write( str(ee) + "\n" )
f.write( MOL.save_string_xyz() )
f.close()
--------------------------------------------------------------------------

    Molecular point group: c1
  Charge       = 0
  Multiplicity = 1
  Basis Set: 6-31G*
  Basis Set:
  @DF-RHF Final Energy:  -527.53376136400334
    Total Energy =                       -527.5337613640035670
    Molecular point group: c1
  Basis Set: 6-31G*
  Basis Set:
  Basis Set: 6-31G*
  Basis Set:
  @DF-RHF Final Energy:  -527.53423093253321
    Total Energy =                       -527.5342309325336601
  Basis Set: 6-31G*
  Basis Set:
  Basis Set: 6-31G*
  Basis Set:
  @DF-RHF Final Energy:  -527.53438003336657
    Total Energy =                       -527.5343800333670288
  Basis Set: 6-31G*
  Basis Set:
  Basis Set: 6-31G*
  Basis Set:
  @DF-RHF Final Energy:  -527.53440773223542
    Total Energy =                       -527.5344077322355361
  Basis Set: 6-31G*
  Basis Set:
  @DF-RHF Final Energy:  -527.53447561676558
    Total Energy =                       -527.5344756167658034
  @DF-RHF Final Energy:  -527.53451997119430
    Total Energy =                       -527.5345199711944133
  @DF-RHF Final Energy:  -527.53453482550844
    Total Energy =                       -527.5345348255082172
  @DF-RHF Final Energy:  -527.53453704280628
    Total Energy =                       -527.5345370428062779
  @DF-RHF Final Energy:  -527.53453872092086
    Total Energy =                       -527.5345387209208639
  @DF-RHF Final Energy:  -527.53454023504912
    Total Energy =                       -527.5345402350491213
  @DF-RHF Final Energy:  -527.53454400079488
    Total Energy =                       -527.5345440007946536
  @DF-RHF Final Energy:  -527.53453819542278
    Total Energy =                       -527.5345381954226696
  @DF-RHF Final Energy:  -527.53454136153562
    Total Energy =                       -527.5345413615359575
  @DF-RHF Final Energy:  -527.53454644750752
    Total Energy =                       -527.5345464475078643
  @DF-RHF Final Energy:  -527.53454912550308
    Total Energy =                       -527.5345491255027355
  @DF-RHF Final Energy:  -527.53455149008107
    Total Energy =                       -527.5345514900805028
  Basis Set: 6-31G*
  Basis Set:
  @DF-RHF Final Energy:  -527.53455351007779
    Total Energy =                       -527.5345535100775578
  Basis Set: 6-31G*
  Basis Set:
  Basis Set: 6-31G*
  Basis Set:
  @DF-RHF Final Energy:  -527.53455516168822
    Total Energy =                       -527.5345551616881039
  Basis Set: 6-31G*
  Basis Set:
  Basis Set: 6-31G*
  Basis Set:
  @DF-RHF Final Energy:  -527.53455643673408
    Total Energy =                       -527.5345564367337374
  Basis Set: 6-31G*
  Basis Set:
  Charge       = 0
  Multiplicity = 1
  Basis Set: 6-31G*
  Basis Set:

    Orbital Energies (a.u.)
    -----------------------

    Doubly Occupied:

       1A    -26.342914     2A    -26.340239     3A    -26.338778
       4A    -20.607673     5A    -11.501830     6A    -11.318911
       7A    -11.301827     8A    -11.217743     9A     -1.739699
      10A     -1.637738    11A     -1.636173    12A     -1.438209
      13A     -1.086588    14A     -1.015560    15A     -0.923635
      16A     -0.836459    17A     -0.829515    18A     -0.812294
      19A     -0.797270    20A     -0.723628    21A     -0.710858
      22A     -0.698271    23A     -0.676592    24A     -0.657272
      25A     -0.652888    26A     -0.640874    27A     -0.629052
      28A     -0.588082    29A     -0.563119    30A     -0.527904
      31A     -0.509772    32A     -0.353369

  @DF-RHF Final Energy:  -527.53455669406480

   => Energetics <=

    Nuclear Repulsion Energy =            409.1563312045760767
    One-Electron Energy =               -1542.0723033976216811
    Two-Electron Energy =                 605.3814154989806866
    DFT Exchange-Correlation Energy =       0.0000000000000000
    Empirical Dispersion Energy =           0.0000000000000000
    PCM Polarization Energy =               0.0000000000000000
    EFP Energy =                            0.0000000000000000
    Total Energy =                       -527.5345566940648041
    Molecular point group: c1
  Basis Set: 6-31G*
  Basis Set:

  -Total Gradient:
     Atom            X                  Y                   Z
    ------   -----------------  -----------------  -----------------
       1       -0.000000391147    -0.000002857544    -0.000000406618
       2        0.000001083454     0.000018258586     0.000001994335
       3       -0.000204579010    -0.000800139678     0.000116016562
       4        0.000000466268     0.000001323414    -0.000000394104
       5        0.000368426166     0.001449407328    -0.000208664229
       6       -0.000001575195    -0.000021804502    -0.000002085680
       7       -0.000409690160    -0.001620467101     0.000230296548
       8        0.000001519054    -0.000001936553     0.000000629245
       9        0.000246226429     0.000976887891    -0.000137955494
      10       -0.000000902364    -0.000000169930     0.000000654342
      11       -0.000000713046     0.000001156916    -0.000000564282
      12        0.000000242246     0.000000215785     0.000000250380
      13       -0.000000112698     0.000000125387     0.000000228996

  **** Optimization is complete! (in 20 steps) ****
    Final optimized geometry and variables:
    Molecular point group: c1

    Geometry (in Angstrom), charge = 0, multiplicity = 1:

    H           -4.266053714046    -0.148032768208    -0.687251991895
    C           -3.444799868109    -0.306493669820    -0.015503888099
    C           -2.218041028040    -0.353867654609    -0.481910622726
    H           -3.651499944372    -0.409023954354     1.033193024928
    O           -1.142670437066    -0.511988237311     0.329432577469
    H           -1.991093810357    -0.248345110805    -1.528757031528
    C            0.066688120424    -0.897979217505    -0.232932597533
    C            1.100935577715     0.171139734897     0.026234023843
    H            0.000622993035    -1.032629470815    -1.305459169238
    H            0.405267988421    -1.820268614651     0.219781912794
    F            2.262605204292    -0.203034164899    -0.491234179067
    F            0.760430249146     1.317832989509    -0.533922907168
    F            1.282412607247     0.386513876420     1.312884180329

  Mulliken Charges: (a.u.)
   Center  Symbol    Alpha    Beta     Spin     Total
       1     H     0.40708  0.40708  0.00000  0.18585
       2     C     3.23495  3.23495  0.00000 -0.46990
       3     C     2.89693  2.89693  0.00000  0.20613
       4     H     0.40133  0.40133  0.00000  0.19733
       5     O     4.30319  4.30319  0.00000 -0.60638
       6     H     0.40698  0.40698  0.00000  0.18605
       7     C     3.05570  3.05570  0.00000 -0.11140
       8     C     2.45347  2.45347  0.00000  1.09306
       9     H     0.40646  0.40646  0.00000  0.18709
      10     H     0.39553  0.39553  0.00000  0.20894
      11     F     4.68383  4.68383  0.00000 -0.36767
      12     F     4.67924  4.67924  0.00000 -0.35848
      13     F     4.67532  4.67532  0.00000 -0.35063

   Total alpha = 32.00000, Total beta = 32.00000, Total charge =  0.00000
