  ==> Input File <==

--------------------------------------------------------------------------
set {
	reference rhf
	basis 6-31G*
}

set_num_threads( 4 )
memory 2 gb

molecule MOL {
0 1

H	 2.465338	 -2.224223	 0.000000
O	 2.784187	 -1.332015	 0.000000
C	 1.765313	 -0.449364	 0.000000
C	 1.142058	 -0.193439	 1.217374
C	 1.335369	 0.190503	 -1.146234
H	 1.494640	 -0.703392	 2.094010
C	 0.093077	 0.700141	 1.282327
H	 1.797173	 0.012314	 -2.097293
C	 0.279315	 1.081754	 -1.045040
H	 -0.382351	 0.891782	 2.226307
C	 -0.357487	 1.355922	 0.144440
N	 -0.171575	 1.755946	 -2.260627
H	 -1.169950	 2.051707	 0.178956
O	 0.397162	 1.500874	 -3.279208
O	 -1.081017	 2.521462	 -2.164891

	symmetry c1
}
set optking {
	frozen_dihedral = ("
		4 3 2 1
	")
}

ee = optimize('scf')
oeprop('DIPOLE', 'QUADRUPOLE', 'MULLIKEN_CHARGES')
f=open( 'psi4out.xyz', 'w' )
f.write( "15  " )
f.write( str(ee) + "\n" )
f.write( MOL.save_string_xyz() )
f.close()
--------------------------------------------------------------------------

    Molecular point group: c1
  Charge       = 0
  Multiplicity = 1
  Basis Set: 6-31G*
  Basis Set:
  @DF-RHF Final Energy:  -509.02219554853826
    Total Energy =                       -509.0221955485385479
    Molecular point group: c1
  Basis Set: 6-31G*
  Basis Set:
  Basis Set: 6-31G*
  Basis Set:
  @DF-RHF Final Energy:  -509.02321817594787
    Total Energy =                       -509.0232181759479317
  Basis Set: 6-31G*
  Basis Set:
  Basis Set: 6-31G*
  Basis Set:
  @DF-RHF Final Energy:  -509.00848729420187
    Total Energy =                       -509.0084872942018137
  Basis Set: 6-31G*
  Basis Set:
  Basis Set: 6-31G*
  Basis Set:
  @DF-RHF Final Energy:  -509.02298970231521
    Total Energy =                       -509.0229897023150443
  Basis Set: 6-31G*
  Basis Set:
  Basis Set: 6-31G*
  Basis Set:
  @DF-RHF Final Energy:  -509.02344829876074
    Total Energy =                       -509.0234482987608544
  Basis Set: 6-31G*
  Basis Set:
  Basis Set: 6-31G*
  Basis Set:
  @DF-RHF Final Energy:  -509.02345705325445
    Total Energy =                       -509.0234570532545604
  Basis Set: 6-31G*
  Basis Set:
  Charge       = 0
  Multiplicity = 1
  Basis Set: 6-31G*
  Basis Set:

    Orbital Energies (a.u.)
    -----------------------

    Doubly Occupied:

       1A    -20.603218     2A    -20.602975     3A    -20.601615
       4A    -15.857994     5A    -11.321258     6A    -11.308877
       7A    -11.269441     8A    -11.267325     9A    -11.266907
      10A    -11.265666    11A     -1.636718    12A     -1.420017
      13A     -1.418769    14A     -1.200589    15A     -1.094499
      16A     -1.046651    17A     -0.963975    18A     -0.866360
      19A     -0.834897    20A     -0.792589    21A     -0.735971
      22A     -0.733827    23A     -0.719551    24A     -0.710455
      25A     -0.680827    26A     -0.642358    27A     -0.624582
      28A     -0.568135    29A     -0.556926    30A     -0.528022
      31A     -0.511358    32A     -0.489607    33A     -0.484732
      34A     -0.453301    35A     -0.377391    36A     -0.357867

  @DF-RHF Final Energy:  -509.02345950238669

   => Energetics <=

    Nuclear Repulsion Energy =            502.7620302526212299
    One-Electron Energy =               -1691.9404803857594288
    Two-Electron Energy =                 680.1549906307513993
    DFT Exchange-Correlation Energy =       0.0000000000000000
    Empirical Dispersion Energy =           0.0000000000000000
    PCM Polarization Energy =               0.0000000000000000
    EFP Energy =                            0.0000000000000000
    Total Energy =                       -509.0234595023866859
    Molecular point group: c1
  Basis Set: 6-31G*
  Basis Set:

  -Total Gradient:
     Atom            X                  Y                   Z
    ------   -----------------  -----------------  -----------------
       1       -0.000029792692     0.000006760274    -0.000501074427
       2        0.000207991743     0.000109028461     0.000681821451
       3       -0.000400695966    -0.000368425060    -0.000523398353
       4        0.000070501454     0.000403033435     0.000202945952
       5        0.000171418828    -0.000182502790     0.000122988305
       6        0.000009776546     0.000007404450    -0.000019540150
       7        0.000120250834    -0.000169870188     0.000111579340
       8       -0.000001810725     0.000004599541     0.000000718275
       9       -0.000183744493     0.000119084691     0.000140439733
      10       -0.000019319499     0.000023512504    -0.000002725784
      11        0.000051846709     0.000039084066    -0.000204758122
      12        0.000069754320     0.000017507712     0.000033410549
      13        0.000002092398    -0.000016152891     0.000030923048
      14       -0.000096153217     0.000044312624     0.000031012137
      15        0.000027883759    -0.000037376823    -0.000104341955

  **** Optimization is complete! (in 7 steps) ****
    Final optimized geometry and variables:
    Molecular point group: c1

    Geometry (in Angstrom), charge = 0, multiplicity = 1:

    H            1.887342998273    -2.939082547327     0.756859743134
    O            2.183350562667    -2.038060972048     0.749867976681
    C            1.122027280310    -1.181429978263     0.811683113092
    C            0.505512947087    -0.912747081031     2.024684203648
    C            0.704912277121    -0.540145728049    -0.339101843472
    H            0.859677177161    -1.407693232437     2.910389931203
    C           -0.543148264443    -0.010933969655     2.088185806585
    H            1.187176208190    -0.733659920453    -1.275046530274
    C           -0.341309241783     0.359757537582    -0.245864140812
    H           -1.017721076194     0.192343280358     3.030083269861
    C           -0.980049680282     0.639187390887     0.946737336640
    N           -0.787651342473     1.037596328870    -1.459992393237
    H           -1.786175959490     1.342962558180     0.975459192828
    O           -0.230789983844     0.770364823963    -2.480868519260
    O           -1.685284863536     1.817813143889    -1.359939392173

  Mulliken Charges: (a.u.)
   Center  Symbol    Alpha    Beta     Spin     Total
       1     H     0.26774  0.26774  0.00000  0.46451
       2     O     4.38415  4.38415  0.00000 -0.76829
       3     C     2.82049  2.82049  0.00000  0.35901
       4     C     3.10493  3.10493  0.00000 -0.20986
       5     C     3.10707  3.10707  0.00000 -0.21414
       6     H     0.38486  0.38486  0.00000  0.23027
       7     C     3.10555  3.10555  0.00000 -0.21110
       8     H     0.35900  0.35900  0.00000  0.28200
       9     C     2.91799  2.91799  0.00000  0.16402
      10     H     0.38661  0.38661  0.00000  0.22677
      11     C     3.09027  3.09027  0.00000 -0.18055
      12     N     3.24081  3.24081  0.00000  0.51839
      13     H     0.36403  0.36403  0.00000  0.27194
      14     O     4.23273  4.23273  0.00000 -0.46546
      15     O     4.23376  4.23376  0.00000 -0.46751

   Total alpha = 36.00000, Total beta = 36.00000, Total charge =  0.00000
