                              Psi4 1.0.54 Driver

  ==> Input File <==

--------------------------------------------------------------------------
set {
	reference rhf
	basis cc-pvtz
}

set_num_threads( 4 )
memory 2 gb

molecule MOL {
0 1

H	 -3.605267	 1.126978	 1.136824
O	 -2.753718	 1.415378	 0.865297
C	 -2.021813	 0.336996	 0.342658
C	 -0.669613	 0.837286	 -0.127252
H	 -1.882314	 -0.427216	 1.103081
H	 -2.557452	 -0.118580	 -0.487958
C	 0.490865	 -0.082543	 0.241244
H	 -0.708709	 0.967192	 -1.204587
H	 -0.507562	 1.822272	 0.303070
C	 1.839800	 0.429565	 -0.255472
H	 0.305636	 -1.070211	 -0.165276
H	 0.527397	 -0.195943	 1.322876
C	 3.001144	 -0.485193	 0.119072
H	 1.804373	 0.541073	 -1.335756
H	 2.020437	 1.423114	 0.146921
H	 2.866892	 -1.477297	 -0.298806
H	 3.943543	 -0.095749	 -0.249061
H	 3.085064	 -0.590459	 1.195790

	symmetry c1
}
set optking {
	frozen_dihedral = ("
		2 3 4 8
	")
}

ee,wfn = optimize('scf', return_wfn=True)
oeprop( wfn, 'DIPOLE', 'QUADRUPOLE', 'MULLIKEN_CHARGES')
f=open( 'psi4out.xyz', 'w' )
f.write( "18  " )
f.write( str(ee) + "\n" )
f.write( MOL.save_string_xyz() )
f.close()
--------------------------------------------------------------------------

    Molecular point group: c1
  Charge       = 0
  Multiplicity = 1
  Basis Set: CC-PVTZ
  Basis Set:
  @DF-RHF Final Energy:  -271.28213029467196
    Total Energy =                       -271.2821302946716742
    Molecular point group: c1
  Basis Set: CC-PVTZ
  Basis Set:
  Basis Set: CC-PVTZ
  Basis Set:
  @DF-RHF Final Energy:  -271.28244715988427
    Total Energy =                       -271.2824471598841001
  Basis Set: CC-PVTZ
  Basis Set:
  Basis Set: CC-PVTZ
  Basis Set:
  @DF-RHF Final Energy:  -271.28249387531065
    Total Energy =                       -271.2824938753107631
  Basis Set: CC-PVTZ
  Basis Set:
  Basis Set: CC-PVTZ
  Basis Set:
  @DF-RHF Final Energy:  -271.28249536331765
    Total Energy =                       -271.2824953633179916
  Basis Set: CC-PVTZ
  Basis Set:
  Charge       = 0
  Multiplicity = 1
  Basis Set: CC-PVTZ
  Basis Set:

    Orbital Energies (a.u.)
    -----------------------

    Doubly Occupied:

       1A    -20.545330     2A    -11.265443     3A    -11.213008
       4A    -11.212388     5A    -11.209238     6A    -11.206241
       7A     -1.362528     8A     -1.080322     9A     -1.010443
      10A     -0.913521    11A     -0.821123    12A     -0.791926
      13A     -0.702116    14A     -0.651691    15A     -0.625769
      16A     -0.585243    17A     -0.572275    18A     -0.561065
      19A     -0.529875    20A     -0.497929    21A     -0.490650
      22A     -0.468791    23A     -0.463942    24A     -0.452412
      25A     -0.432037

  @DF-RHF Final Energy:  -271.28249545047476

   => Energetics <=

    Nuclear Repulsion Energy =            245.7199891728743637
    One-Electron Energy =                -854.6743611027394536
    Two-Electron Energy =                 337.6718764793902210
    DFT Exchange-Correlation Energy =       0.0000000000000000
    Empirical Dispersion Energy =           0.0000000000000000
    PCM Polarization Energy =               0.0000000000000000
    EFP Energy =                            0.0000000000000000
    Total Energy =                       -271.2824954504749257
    Molecular point group: c1
  Basis Set: CC-PVTZ
  Basis Set:

  -Total Gradient:
     Atom            X                  Y                   Z
    ------   -----------------  -----------------  -----------------
       1        0.000000988988    -0.000002694270     0.000001855809
       2        0.001129164795    -0.000538984217     0.002660827548
       3       -0.001163982903    -0.000187903571    -0.003572747169
       4       -0.001147623522     0.004319658421     0.001376354750
       5       -0.000006431260     0.000007699614     0.000006308414
       6       -0.000000598103     0.000008667788    -0.000001453995
       7       -0.000011537239     0.000003112512    -0.000007339630
       8        0.001204812424    -0.003610777384    -0.000466838608
       9       -0.000001400228    -0.000000751315     0.000000362825
      10        0.000008570249     0.000002576638    -0.000001385820
      11       -0.000002437540     0.000000750629    -0.000004583779
      12       -0.000001445846    -0.000003856847     0.000001759215
      13       -0.000004818964     0.000000322838     0.000007093728
      14       -0.000004794906    -0.000000485598    -0.000000447185
      15        0.000000883197     0.000003537798     0.000000282362
      16        0.000000217344    -0.000000998146    -0.000000393171
      17       -0.000001837916     0.000001981361    -0.000000424869
      18        0.000002271430    -0.000001856253     0.000000769574

  **** Optimization is complete! (in 5 steps) ****
    Final optimized geometry and variables:
    Molecular point group: c1

    Geometry (in Angstrom), charge = 0, multiplicity = 1:

    H           -3.542203905774     0.713570505904     0.900598937596
    O           -2.682003306553     1.004825563979     0.660191158465
    C           -1.938562674465    -0.068570837253     0.141013023467
    C           -0.578904217052     0.449248695085    -0.326555578124
    H           -1.799372445241    -0.821723809799     0.912748893630
    H           -2.470591307880    -0.540530314071    -0.680272951863
    C            0.570724486337    -0.493634264950     0.023605436677
    H           -0.589494265940     0.587002901720    -1.402832288919
    H           -0.414534265105     1.418278812346     0.127702515816
    C            1.923137838882    -0.010657858891    -0.491099722037
    H            0.367223039433    -1.482279309562    -0.383428715608
    H            0.619091762578    -0.613790145625     1.103074717172
    C            3.071827812522    -0.945437965692    -0.127361240692
    H            1.877540468196     0.100489708068    -1.570990582819
    H            2.123916123573     0.979783275371    -0.092116591878
    H            2.916120163168    -1.936501176363    -0.540801890065
    H            4.016307738239    -0.573736091463    -0.507800040199
    H            3.166663669136    -1.048853464030     0.948471475469

  Mulliken Charges: (a.u.)
   Center  Symbol    Alpha    Beta     Spin     Total
       1     H     0.39578  0.39578  0.00000  0.20845
       2     O     4.19661  4.19661  0.00000 -0.39322
       3     C     2.96414  2.96414  0.00000  0.07172
       4     C     3.08806  3.08806  0.00000 -0.17612
       5     H     0.47604  0.47604  0.00000  0.04792
       6     H     0.47261  0.47261  0.00000  0.05478
       7     C     3.09560  3.09560  0.00000 -0.19120
       8     H     0.45510  0.45510  0.00000  0.08980
       9     H     0.44466  0.44466  0.00000  0.11068
      10     C     3.08509  3.08509  0.00000 -0.17018
      11     H     0.45622  0.45622  0.00000  0.08757
      12     H     0.45356  0.45356  0.00000  0.09288
      13     C     3.14956  3.14956  0.00000 -0.29912
      14     H     0.45462  0.45462  0.00000  0.09076
      15     H     0.45319  0.45319  0.00000  0.09363
      16     H     0.45579  0.45579  0.00000  0.08842
      17     H     0.44840  0.44840  0.00000  0.10321
      18     H     0.45499  0.45499  0.00000  0.09002

   Total alpha = 25.00000, Total beta = 25.00000, Total charge = -0.00000

*** Psi4 exiting successfully. Buy a developer a beer!
