                              Psi4 1.0.54 Driver

  ==> Input File <==

--------------------------------------------------------------------------
set {
	reference rhf
	basis cc-pvtz
}

set_num_threads( 4 )
memory 2 gb

molecule MOL {
0 1

H	 -1.088256	 -1.364742	 0.152233
O	 -1.432053	 -0.565244	 -0.200812
C	 -0.727158	 0.534527	 0.310686
C	 0.680222	 0.664433	 -0.252229
H	 -1.306802	 1.408001	 0.044211
H	 -0.690821	 0.490158	 1.397609
C	 1.656857	 -0.381786	 0.276597
H	 0.627475	 0.602903	 -1.334201
H	 1.048006	 1.657478	 -0.008827
H	 1.353435	 -1.385598	 0.000154
H	 2.649593	 -0.225578	 -0.127910
H	 1.731841	 -0.338586	 1.358940

	symmetry c1
}
set optking {
	frozen_dihedral = ("
		8 4 3 2
	")
}

ee,wfn = optimize('scf', return_wfn=True)
oeprop( wfn, 'DIPOLE', 'QUADRUPOLE', 'MULLIKEN_CHARGES')
f=open( 'psi4out.xyz', 'w' )
f.write( "12  " )
f.write( str(ee) + "\n" )
f.write( MOL.save_string_xyz() )
f.close()
--------------------------------------------------------------------------

    Molecular point group: c1
  Charge       = 0
  Multiplicity = 1
  Basis Set: CC-PVTZ
  Basis Set:
  @DF-RHF Final Energy:  -193.19029872416795
    Total Energy =                       -193.1902987241678602
    Molecular point group: c1
  Basis Set: CC-PVTZ
  Basis Set:
  Basis Set: CC-PVTZ
  Basis Set:
  @DF-RHF Final Energy:  -193.19033738761669
    Total Energy =                       -193.1903373876166370
  Basis Set: CC-PVTZ
  Basis Set:
  Basis Set: CC-PVTZ
  Basis Set:
  @DF-RHF Final Energy:  -193.19034871929864
    Total Energy =                       -193.1903487192986688
  Basis Set: CC-PVTZ
  Basis Set:
  Charge       = 0
  Multiplicity = 1
  Basis Set: CC-PVTZ
  Basis Set:

    Orbital Energies (a.u.)
    -----------------------

    Doubly Occupied:

       1A    -20.546338     2A    -11.265872     3A    -11.216827
       4A    -11.214997     5A     -1.364213     6A     -1.052082
       7A     -0.927592     8A     -0.811102     9A     -0.698978
      10A     -0.638783    11A     -0.599134    12A     -0.590339
      13A     -0.543828    14A     -0.510641    15A     -0.492012
      16A     -0.469839    17A     -0.433200

  @DF-RHF Final Energy:  -193.19034890053351

   => Energetics <=

    Nuclear Repulsion Energy =            133.0022518775894866
    One-Electron Energy =                -525.6336485955685021
    Two-Electron Energy =                 199.4410478174454795
    DFT Exchange-Correlation Energy =       0.0000000000000000
    Empirical Dispersion Energy =           0.0000000000000000
    PCM Polarization Energy =               0.0000000000000000
    EFP Energy =                            0.0000000000000000
    Total Energy =                       -193.1903489005335075
    Molecular point group: c1
  Basis Set: CC-PVTZ
  Basis Set:

  -Total Gradient:
     Atom            X                  Y                   Z
    ------   -----------------  -----------------  -----------------
       1       -0.000002198734     0.000002537268     0.000000891022
       2       -0.000509330280     0.000852465697    -0.001116863946
       3        0.000755832303    -0.001573672640     0.001545078534
       4       -0.000457430888     0.002596602596    -0.000543551534
       5        0.000003860938     0.000007134404     0.000006669844
       6        0.000000520459    -0.000008597298    -0.000008633238
       7       -0.000002290920     0.000006659824    -0.000000568209
       8        0.000220349358    -0.001868004215     0.000097745789
       9       -0.000012247158    -0.000008574709     0.000002943468
      10       -0.000002495595     0.000006207309     0.000002562373
      11       -0.000011893521    -0.000006131029     0.000006423356
      12        0.000017324036    -0.000006627204     0.000007302540

  **** Optimization is complete! (in 4 steps) ****
    Final optimized geometry and variables:
    Molecular point group: c1

    Geometry (in Angstrom), charge = 0, multiplicity = 1:

    H           -1.083101025600    -1.395271466822     0.110052237630
    O           -1.435159821883    -0.598509429076    -0.241144239712
    C           -0.743252949468     0.508711341784     0.272613835656
    C            0.666100479218     0.646422661675    -0.284667897187
    H           -1.329529054644     1.373733160645    -0.006888876388
    H           -0.717058851831     0.473951217904     1.359929595779
    C            1.637914853073    -0.409732947619     0.235761113791
    H            0.610701107097     0.580408154287    -1.366018432989
    H            1.039683829851     1.635263674417    -0.036028824555
    H            1.318300175174    -1.411775829864    -0.030955586691
    H            2.627107188328    -0.269176284274    -0.183081840790
    H            1.727194166511    -0.363716331791     1.316484259716

  Mulliken Charges: (a.u.)
   Center  Symbol    Alpha    Beta     Spin     Total
       1     H     0.39321  0.39321  0.00000  0.21359
       2     O     4.20476  4.20476  0.00000 -0.40952
       3     C     2.97461  2.97461  0.00000  0.05079
       4     C     3.08535  3.08535  0.00000 -0.17070
       5     H     0.45007  0.45007  0.00000  0.09987
       6     H     0.47126  0.47126  0.00000  0.05748
       7     C     3.15588  3.15588  0.00000 -0.31176
       8     H     0.45060  0.45060  0.00000  0.09880
       9     H     0.45593  0.45593  0.00000  0.08814
      10     H     0.45925  0.45925  0.00000  0.08150
      11     H     0.44496  0.44496  0.00000  0.11009
      12     H     0.45414  0.45414  0.00000  0.09173

   Total alpha = 17.00000, Total beta = 17.00000, Total charge =  0.00000

*** Psi4 exiting successfully. Buy a developer a beer!
