  ==> Input File <==

--------------------------------------------------------------------------
set {
	reference rhf
	basis 6-31G*
}

set_num_threads( 1 )
memory 2 gb

molecule MOL {
0 1

H	 1.385568	 -1.492097	 0.452183
O	 1.586534	 -0.678666	 -0.000226
C	 0.489431	 0.077273	 0.000046
C	 -0.764129	 -0.759190	 0.000191
O	 0.537743	 1.263962	 0.000257
C	 -2.038368	 0.075731	 -0.000248
H	 -0.717284	 -1.412404	 -0.866059
H	 -0.717458	 -1.411724	 0.866967
H	 -2.086483	 0.712501	 -0.875098
H	 -2.908485	 -0.571682	 -0.000042
H	 -2.086576	 0.713280	 0.874068

	symmetry c1
}
set optking {
	frozen_dihedral = ("
		2 3 4 7
	")
}

ee = energy('scf')
oeprop('DIPOLE', 'QUADRUPOLE', 'MULLIKEN_CHARGES')
f=open( 'psi4out.xyz', 'w' )
f.write( "11  " )
f.write( str(ee) + "\n" )
f.write( MOL.save_string_xyz() )
f.close()
--------------------------------------------------------------------------

    Molecular point group: c1

    Geometry (in Angstrom), charge = 0, multiplicity = 1:

       Center              X                  Y                   Z               Mass
    ------------   -----------------  -----------------  -----------------  -----------------
           H          1.398611231501    -1.473164657041     0.446024980850     1.007825032070
           O          1.599577231501    -0.659733657041    -0.006384019150    15.994914619560
           C          0.502474231501     0.096205342959    -0.006112019150    12.000000000000
           C         -0.751085768499    -0.740257657041    -0.005967019150    12.000000000000
           O          0.550786231501     1.282894342959    -0.005901019150    15.994914619560
           C         -2.025324768499     0.094663342959    -0.006406019150    12.000000000000
           H         -0.704240768499    -1.393471657041    -0.872217019150     1.007825032070
           H         -0.704414768499    -1.392791657041     0.860808980850     1.007825032070
           H         -2.073439768499     0.731433342959    -0.881256019150     1.007825032070
           H         -2.895441768499    -0.552749657041    -0.006200019150     1.007825032070
           H         -2.073532768499     0.732212342959     0.867909980850     1.007825032070

  Charge       = 0
  Multiplicity = 1
  Basis Set: 6-31G*
  Basis Set:

    Orbital Energies (a.u.)
    -----------------------

    Doubly Occupied:

       1A    -20.613037     2A    -20.553175     3A    -11.381924
       4A    -11.254949     5A    -11.226767     6A     -1.471653
       7A     -1.372190     8A     -1.071330     9A     -0.910710
      10A     -0.826048    11A     -0.719113    12A     -0.672748
      13A     -0.660411    14A     -0.617125    15A     -0.589318
      16A     -0.535998    17A     -0.526548    18A     -0.513402
      19A     -0.479323    20A     -0.443694

  @DF-RHF Final Energy:  -266.83052803968917

   => Energetics <=

    Nuclear Repulsion Energy =            180.0421105931508521
    One-Electron Energy =                -720.8663341931693367
    Two-Electron Energy =                 273.9936955603292859
    DFT Exchange-Correlation Energy =       0.0000000000000000
    Empirical Dispersion Energy =           0.0000000000000000
    PCM Polarization Energy =               0.0000000000000000
    EFP Energy =                            0.0000000000000000
    Total Energy =                       -266.8305280396892272

  Mulliken Charges: (a.u.)
   Center  Symbol    Alpha    Beta     Spin     Total
       1     H     0.26861  0.26861  0.00000  0.46279
       2     O     4.34827  4.34827  0.00000 -0.69654
       3     C     2.61249  2.61249  0.00000  0.77502
       4     C     3.23171  3.23171  0.00000 -0.46341
       5     O     4.26383  4.26383  0.00000 -0.52766
       6     C     3.23819  3.23819  0.00000 -0.47638
       7     H     0.39672  0.39672  0.00000  0.20656
       8     H     0.41087  0.41087  0.00000  0.17826
       9     H     0.40530  0.40530  0.00000  0.18940
      10     H     0.41698  0.41698  0.00000  0.16604
      11     H     0.40703  0.40703  0.00000  0.18593

   Total alpha = 20.00000, Total beta = 20.00000, Total charge =  0.00000
