  ==> Input File <==

--------------------------------------------------------------------------
set {
	reference rhf
	basis 6-31G*
}

set_num_threads( 1 )
memory 2 gb

molecule MOL {
0 1

H	 3.120532	 -1.441901	 -0.738033
O	 2.826016	 -1.159218	 0.122261
C	 2.077727	 -0.067559	 -0.035091
C	 0.624473	 -0.343591	 0.253101
O	 2.542965	 0.974826	 -0.363729
C	 -0.265902	 0.883932	 0.072916
H	 0.324016	 -1.163849	 -0.390541
H	 0.565024	 -0.726111	 1.268924
C	 -1.728698	 0.646073	 0.462102
H	 -0.209144	 1.219470	 -0.958188
H	 0.135059	 1.692851	 0.673903
C	 -2.482460	 -0.343073	 -0.431425
H	 -2.245265	 1.602650	 0.432430
H	 -1.779332	 0.308348	 1.496285
C	 -3.960546	 -0.461025	 -0.060175
H	 -2.395034	 -0.026811	 -1.468912
H	 -2.024850	 -1.327147	 -0.371646
H	 -4.472726	 -1.168004	 -0.705284
H	 -4.465146	 0.496508	 -0.151489
H	 -4.081218	 -0.800940	 0.964585

	symmetry c1
}
set optking {
	frozen_dihedral = ("
		16 12 9 6,
		7 4 6 10,
		12 9 6 10,
		5 3 4 7
	")
}

ee = energy('scf')
oeprop('DIPOLE', 'QUADRUPOLE', 'MULLIKEN_CHARGES')
f=open( 'psi4out.xyz', 'w' )
f.write( "20  " )
f.write( str(ee) + "\n" )
f.write( MOL.save_string_xyz() )
f.close()
--------------------------------------------------------------------------

    Molecular point group: c1

    Geometry (in Angstrom), charge = 0, multiplicity = 1:

       Center              X                  Y                   Z               Mass
    ------------   -----------------  -----------------  -----------------  -----------------
           H          3.125818883290    -1.437441871962    -0.732238192426     1.007825032070
           O          2.831302883290    -1.154758871962     0.128055807574    15.994914619560
           C          2.083013883290    -0.063099871962    -0.029296192426    12.000000000000
           C          0.629759883290    -0.339131871962     0.258895807574    12.000000000000
           O          2.548251883290     0.979285128038    -0.357934192426    15.994914619560
           C         -0.260615116710     0.888391128038     0.078710807574    12.000000000000
           H          0.329302883290    -1.159389871962    -0.384746192426     1.007825032070
           H          0.570310883290    -0.721651871962     1.274718807574     1.007825032070
           C         -1.723411116710     0.650532128038     0.467896807574    12.000000000000
           H         -0.203857116710     1.223929128038    -0.952393192426     1.007825032070
           H          0.140345883290     1.697310128038     0.679697807574     1.007825032070
           C         -2.477173116710    -0.338613871962    -0.425630192426    12.000000000000
           H         -2.239978116710     1.607109128038     0.438224807574     1.007825032070
           H         -1.774045116710     0.312807128038     1.502079807574     1.007825032070
           C         -3.955259116710    -0.456565871962    -0.054380192426    12.000000000000
           H         -2.389747116710    -0.022351871962    -1.463117192426     1.007825032070
           H         -2.019563116710    -1.322687871962    -0.365851192426     1.007825032070
           H         -4.467439116710    -1.163544871962    -0.699489192426     1.007825032070
           H         -4.459859116710     0.500967128038    -0.145694192426     1.007825032070
           H         -4.075931116710    -0.796480871962     0.970379807574     1.007825032070

  Charge       = 0
  Multiplicity = 1
  Basis Set: 6-31G*
  Basis Set:

    Orbital Energies (a.u.)
    -----------------------

    Doubly Occupied:

       1A    -20.599262     2A    -20.558480     3A    -11.379933
       4A    -11.240117     5A    -11.222697     6A    -11.221783
       7A    -11.220659     8A    -11.213458     9A     -1.469699
      10A     -1.367491    11A     -1.096351    12A     -1.040557
      13A     -0.959317    14A     -0.866404    15A     -0.817974
      16A     -0.780579    17A     -0.709357    18A     -0.682707
      19A     -0.665920    20A     -0.633105    21A     -0.618905
      22A     -0.587589    23A     -0.560571    24A     -0.551947
      25A     -0.535390    26A     -0.506872    27A     -0.502726
      28A     -0.487585    29A     -0.470194    30A     -0.464865
      31A     -0.458181    32A     -0.443114

  @DF-RHF Final Energy:  -383.92913903053784

   => Energetics <=

    Nuclear Repulsion Energy =            376.0488843289239185
    One-Electron Energy =               -1268.0885527066293434
    Two-Electron Energy =                 508.1105293471671303
    DFT Exchange-Correlation Energy =       0.0000000000000000
    Empirical Dispersion Energy =           0.0000000000000000
    PCM Polarization Energy =               0.0000000000000000
    EFP Energy =                            0.0000000000000000
    Total Energy =                       -383.9291390305382947

  Mulliken Charges: (a.u.)
   Center  Symbol    Alpha    Beta     Spin     Total
       1     H     0.26486  0.26486  0.00000  0.47029
       2     O     4.35746  4.35746  0.00000 -0.71492
       3     C     2.63457  2.63457  0.00000  0.73086
       4     C     3.21061  3.21061  0.00000 -0.42123
       5     O     4.25648  4.25648  0.00000 -0.51297
       6     C     3.15524  3.15524  0.00000 -0.31048
       7     H     0.40512  0.40512  0.00000  0.18976
       8     H     0.39814  0.39814  0.00000  0.20372
       9     C     3.15525  3.15525  0.00000 -0.31051
      10     H     0.41410  0.41410  0.00000  0.17180
      11     H     0.40721  0.40721  0.00000  0.18558
      12     C     3.15469  3.15469  0.00000 -0.30938
      13     H     0.41795  0.41795  0.00000  0.16409
      14     H     0.42340  0.42340  0.00000  0.15321
      15     C     3.23916  3.23916  0.00000 -0.47832
      16     H     0.42213  0.42213  0.00000  0.15575
      17     H     0.42364  0.42364  0.00000  0.15272
      18     H     0.41859  0.41859  0.00000  0.16282
      19     H     0.42037  0.42037  0.00000  0.15927
      20     H     0.42103  0.42103  0.00000  0.15793

   Total alpha = 32.00000, Total beta = 32.00000, Total charge = -0.00000
