  ==> Input File <==

--------------------------------------------------------------------------
set {
	reference rhf
	basis 6-31G*
}

set_num_threads( 1 )
memory 2 gb

molecule MOL {
0 1

H	 -6.091001	 -3.063443	 -0.012152
O	 -6.317167	 -3.542714	 0.771569
C	 -5.281234	 -4.434373	 1.096901
C	 -4.043001	 -3.740042	 1.653148
H	 -5.691640	 -5.102735	 1.842913
H	 -5.014414	 -5.040439	 0.231875
C	 -3.354575	 -2.803352	 0.657382
H	 -4.329969	 -3.182042	 2.540646
H	 -3.339746	 -4.506745	 1.974031
C	 -2.085326	 -2.163918	 1.227425
H	 -4.051027	 -2.024432	 0.359716
H	 -3.100197	 -3.358559	 -0.245601
C	 -1.309753	 -1.282496	 0.241564
H	 -2.343932	 -1.577887	 2.107503
H	 -1.424767	 -2.955712	 1.574449
C	 -2.037799	 -0.007733	 -0.193645
H	 -0.365652	 -1.001820	 0.703854
H	 -1.051845	 -1.869105	 -0.638896
C	 -3.489788	 0.042957	 0.286558
H	 -2.017067	 0.064384	 -1.280144
H	 -1.513726	 0.868678	 0.179924
C	 -4.216917	 1.317354	 -0.141063
H	 -4.025645	 -0.823308	 -0.095450
H	 -3.513059	 -0.038752	 1.371301
H	 -4.239342	 1.411634	 -1.223113
H	 -5.243387	 1.322503	 0.212445
H	 -3.726170	 2.201406	 0.256408

	symmetry c1
}
set optking {
	frozen_dihedral = ("
		14 10 7 4,
		14 10 13 16,
		10 7 4 8,
		8 4 3 2,
		20 16 19 22,
		4 3 2 1
	")
}

ee = energy('scf')
oeprop('DIPOLE', 'QUADRUPOLE', 'MULLIKEN_CHARGES')
f=open( 'psi4out.xyz', 'w' )
f.write( "27  " )
f.write( str(ee) + "\n" )
f.write( MOL.save_string_xyz() )
f.close()
--------------------------------------------------------------------------

    Molecular point group: c1

    Geometry (in Angstrom), charge = 0, multiplicity = 1:

       Center              X                  Y                   Z               Mass
    ------------   -----------------  -----------------  -----------------  -----------------
           H         -2.460762830790    -1.200577621439    -0.628564265267     1.007825032070
           O         -2.686928830790    -1.679848621439     0.155156734733    15.994914619560
           C         -1.650995830790    -2.571507621439     0.480488734733    12.000000000000
           C         -0.412762830790    -1.877176621439     1.036735734733    12.000000000000
           H         -2.061401830790    -3.239869621439     1.226500734733     1.007825032070
           H         -1.384175830790    -3.177573621439    -0.384537265267     1.007825032070
           C          0.275663169210    -0.940486621439     0.040969734733    12.000000000000
           H         -0.699730830790    -1.319176621439     1.924233734733     1.007825032070
           H          0.290492169210    -2.643879621439     1.357618734733     1.007825032070
           C          1.544912169210    -0.301052621439     0.611012734733    12.000000000000
           H         -0.420788830790    -0.161566621439    -0.256696265267     1.007825032070
           H          0.530041169210    -1.495693621439    -0.862013265267     1.007825032070
           C          2.320485169210     0.580369378561    -0.374848265267    12.000000000000
           H          1.286306169210     0.284978378561     1.491090734733     1.007825032070
           H          2.205471169210    -1.092846621439     0.958036734733     1.007825032070
           C          1.592439169210     1.855132378561    -0.810057265267    12.000000000000
           H          3.264586169210     0.861045378561     0.087441734733     1.007825032070
           H          2.578393169210    -0.006239621439    -1.255308265267     1.007825032070
           C          0.140450169210     1.905822378561    -0.329854265267    12.000000000000
           H          1.613171169210     1.927249378561    -1.896556265267     1.007825032070
           H          2.116512169210     2.731543378561    -0.436488265267     1.007825032070
           C         -0.586678830790     3.180219378561    -0.757475265267    12.000000000000
           H         -0.395406830790     1.039557378561    -0.711862265267     1.007825032070
           H          0.117179169210     1.824113378561     0.754888734733     1.007825032070
           H         -0.609103830790     3.274499378561    -1.839525265267     1.007825032070
           H         -1.613148830790     3.185368378561    -0.403967265267     1.007825032070
           H         -0.095931830790     4.064271378561    -0.360004265267     1.007825032070

  Charge       = 0
  Multiplicity = 1
  Basis Set: 6-31G*
  Basis Set:

    Orbital Energies (a.u.)
    -----------------------

    Doubly Occupied:

       1A    -20.552918     2A    -11.266524     3A    -11.216752
       4A    -11.214699     5A    -11.213683     6A    -11.213355
       7A    -11.211895     8A    -11.211348     9A    -11.207230
      10A     -1.359442    11A     -1.103077    12A     -1.055070
      13A     -1.008672    14A     -0.952000    15A     -0.891072
      16A     -0.838705    17A     -0.792645    18A     -0.773445
      19A     -0.694083    20A     -0.652001    21A     -0.645692
      22A     -0.617235    23A     -0.598119    24A     -0.589239
      25A     -0.575091    26A     -0.569098    27A     -0.536002
      28A     -0.521721    29A     -0.505292    30A     -0.503799
      31A     -0.495119    32A     -0.484095    33A     -0.461286
      34A     -0.449558    35A     -0.442942    36A     -0.425882
      37A     -0.417560

  @DF-RHF Final Energy:  -388.24131012576390

   => Energetics <=

    Nuclear Repulsion Energy =            483.6700941143919863
    One-Electron Energy =               -1485.2906042132754010
    Two-Electron Energy =                 613.3791999731229225
    DFT Exchange-Correlation Energy =       0.0000000000000000
    Empirical Dispersion Energy =           0.0000000000000000
    PCM Polarization Energy =               0.0000000000000000
    EFP Energy =                            0.0000000000000000
    Total Energy =                       -388.2413101257604922

  Mulliken Charges: (a.u.)
   Center  Symbol    Alpha    Beta     Spin     Total
       1     H     0.27974  0.27974  0.00000  0.44053
       2     O     4.37065  4.37065  0.00000 -0.74130
       3     C     2.99764  2.99764  0.00000  0.00473
       4     C     3.15870  3.15870  0.00000 -0.31741
       5     H     0.41445  0.41445  0.00000  0.17111
       6     H     0.43201  0.43201  0.00000  0.13599
       7     C     3.16131  3.16131  0.00000 -0.32261
       8     H     0.41669  0.41669  0.00000  0.16663
       9     H     0.42506  0.42506  0.00000  0.14988
      10     C     3.16041  3.16041  0.00000 -0.32083
      11     H     0.42446  0.42446  0.00000  0.15107
      12     H     0.42683  0.42683  0.00000  0.14633
      13     C     3.15700  3.15700  0.00000 -0.31400
      14     H     0.41969  0.41969  0.00000  0.16063
      15     H     0.41875  0.41875  0.00000  0.16250
      16     C     3.15211  3.15211  0.00000 -0.30422
      17     H     0.41847  0.41847  0.00000  0.16305
      18     H     0.42171  0.42171  0.00000  0.15659
      19     C     3.16140  3.16140  0.00000 -0.32280
      20     H     0.42137  0.42137  0.00000  0.15726
      21     H     0.41985  0.41985  0.00000  0.16030
      22     C     3.23566  3.23566  0.00000 -0.47132
      23     H     0.42133  0.42133  0.00000  0.15734
      24     H     0.41917  0.41917  0.00000  0.16165
      25     H     0.42337  0.42337  0.00000  0.15327
      26     H     0.41961  0.41961  0.00000  0.16078
      27     H     0.42258  0.42258  0.00000  0.15485

   Total alpha = 37.00000, Total beta = 37.00000, Total charge =  0.00000
