                              Psi4 1.0.54 Driver

  ==> Input File <==

--------------------------------------------------------------------------
set {
	reference rhf
	basis cc-pvtz
}

set_num_threads( 4 )
memory 2 gb

molecule MOL {
0 1

H	 -3.258826	 -0.290447	 1.471440
C	 -3.308130	 -0.275748	 0.374062
C	 -2.653975	 0.914369	 -0.273699
O	 -3.855306	 -1.148933	 -0.205122
C	 -1.217067	 1.136055	 0.207784
H	 -2.700297	 0.790623	 -1.347885
H	 -3.256618	 1.780954	 -0.010723
C	 -0.248003	 0.040143	 -0.230479
H	 -0.873048	 2.093142	 -0.169012
H	 -1.209491	 1.218323	 1.291928
C	 1.181591	 0.280375	 0.247361
H	 -0.259766	 -0.030872	 -1.314880
H	 -0.591450	 -0.923428	 0.136948
C	 2.150866	 -0.811065	 -0.202653
H	 1.515773	 1.247344	 -0.115459
H	 1.191348	 0.341170	 1.333412
C	 3.579855	 -0.656591	 0.320825
H	 2.170379	 -0.847628	 -1.289422
H	 1.766466	 -1.772958	 0.124918
C	 4.327491	 0.562641	 -0.213589
H	 4.138640	 -1.549323	 0.057803
H	 3.561825	 -0.620836	 1.406966
H	 4.355807	 0.557204	 -1.298561
H	 3.866970	 1.491597	 0.100491
H	 5.351358	 0.571560	 0.142194

	symmetry c1
}
ee,wfn = energy('scf', return_wfn=True)
oeprop( wfn, 'DIPOLE', 'QUADRUPOLE', 'MULLIKEN_CHARGES')
oeprop( wfn, 'GRID_ESP')
f=open( 'psi4out.xyz', 'w' )
f.write( "25  " )
f.write( str(ee) + "\n" )
f.write( MOL.save_string_xyz() )
f.close()
--------------------------------------------------------------------------

    Molecular point group: c1

    Geometry (in Angstrom), charge = 0, multiplicity = 1:

       Center              X                  Y                   Z               Mass
    ------------   -----------------  -----------------  -----------------  -----------------
           H         -3.258659821381    -0.290394154412     1.471450432582     1.007825032070
           C         -3.307963821381    -0.275695154412     0.374072432582    12.000000000000
           C         -2.653808821381     0.914421845588    -0.273688567418    12.000000000000
           O         -3.855139821381    -1.148880154412    -0.205111567418    15.994914619560
           C         -1.216900821381     1.136107845588     0.207794432582    12.000000000000
           H         -2.700130821381     0.790675845588    -1.347874567418     1.007825032070
           H         -3.256451821381     1.781006845588    -0.010712567418     1.007825032070
           C         -0.247836821381     0.040195845588    -0.230468567418    12.000000000000
           H         -0.872881821381     2.093194845588    -0.169001567418     1.007825032070
           H         -1.209324821381     1.218375845588     1.291938432582     1.007825032070
           C          1.181757178619     0.280427845588     0.247371432582    12.000000000000
           H         -0.259599821381    -0.030819154412    -1.314869567418     1.007825032070
           H         -0.591283821381    -0.923375154412     0.136958432582     1.007825032070
           C          2.151032178619    -0.811012154412    -0.202642567418    12.000000000000
           H          1.515939178619     1.247396845588    -0.115448567418     1.007825032070
           H          1.191514178619     0.341222845588     1.333422432582     1.007825032070
           C          3.580021178619    -0.656538154412     0.320835432582    12.000000000000
           H          2.170545178619    -0.847575154412    -1.289411567418     1.007825032070
           H          1.766632178619    -1.772905154412     0.124928432582     1.007825032070
           C          4.327657178619     0.562693845588    -0.213578567418    12.000000000000
           H          4.138806178619    -1.549270154412     0.057813432582     1.007825032070
           H          3.561991178619    -0.620783154412     1.406976432582     1.007825032070
           H          4.355973178619     0.557256845588    -1.298550567418     1.007825032070
           H          3.867136178619     1.491649845588     0.100501432582     1.007825032070
           H          5.351524178619     0.571612845588     0.142204432582     1.007825032070

  Charge       = 0
  Multiplicity = 1
  Basis Set: CC-PVTZ
  Basis Set:

    Orbital Energies (a.u.)
    -----------------------

    Doubly Occupied:

       1A    -20.551384     2A    -11.320975     3A    -11.233811
       4A    -11.232860     5A    -11.221702     6A    -11.217708
       7A    -11.216270     8A    -11.215041     9A    -11.208848
      10A     -1.406393    11A     -1.105347    12A     -1.071010
      13A     -1.014646    14A     -0.943573    15A     -0.875985
      16A     -0.820991    17A     -0.788785    18A     -0.781837
      19A     -0.668149    20A     -0.663473    21A     -0.635195
      22A     -0.627414    23A     -0.602885    24A     -0.595876
      25A     -0.577209    26A     -0.550308    27A     -0.536625
      28A     -0.528357    29A     -0.508747    30A     -0.497604
      31A     -0.492132    32A     -0.479842    33A     -0.465195
      34A     -0.459384    35A     -0.442766    36A     -0.411892

  @DF-RHF Final Energy:  -387.26041420326777

   => Energetics <=

    Nuclear Repulsion Energy =            439.7233075523855064
    One-Electron Energy =               -1396.0269526016998043
    Two-Electron Energy =                 569.0432308460464128
    DFT Exchange-Correlation Energy =       0.0000000000000000
    Empirical Dispersion Energy =           0.0000000000000000
    PCM Polarization Energy =               0.0000000000000000
    EFP Energy =                            0.0000000000000000
    Total Energy =                       -387.2604142032679420

  Mulliken Charges: (a.u.)
   Center  Symbol    Alpha    Beta     Spin     Total
       1     H     0.46422  0.46422  0.00000  0.07156
       2     C     2.90481  2.90481  0.00000  0.19038
       3     C     3.08912  3.08912  0.00000 -0.17824
       4     O     4.16627  4.16627  0.00000 -0.33254
       5     C     3.11602  3.11602  0.00000 -0.23204
       6     H     0.44290  0.44290  0.00000  0.11421
       7     H     0.44051  0.44051  0.00000  0.11898
       8     C     3.08974  3.08974  0.00000 -0.17948
       9     H     0.44309  0.44309  0.00000  0.11382
      10     H     0.44988  0.44988  0.00000  0.10023
      11     C     3.09301  3.09301  0.00000 -0.18602
      12     H     0.44981  0.44981  0.00000  0.10037
      13     H     0.44788  0.44788  0.00000  0.10424
      14     C     3.09564  3.09564  0.00000 -0.19128
      15     H     0.45148  0.45148  0.00000  0.09704
      16     H     0.45426  0.45426  0.00000  0.09149
      17     C     3.09076  3.09076  0.00000 -0.18151
      18     H     0.45295  0.45295  0.00000  0.09411
      19     H     0.44785  0.44785  0.00000  0.10431
      20     C     3.15267  3.15267  0.00000 -0.30534
      21     H     0.44764  0.44764  0.00000  0.10473
      22     H     0.45470  0.45470  0.00000  0.09059
      23     H     0.45452  0.45452  0.00000  0.09096
      24     H     0.45440  0.45440  0.00000  0.09121
      25     H     0.44588  0.44588  0.00000  0.10823

   Total alpha = 36.00000, Total beta = 36.00000, Total charge = -0.00000

*** Psi4 exiting successfully. Buy a developer a beer!
