                              Psi4 1.0.54 Driver

  ==> Input File <==

--------------------------------------------------------------------------
set {
	reference rhf
	basis cc-pvtz
}

set_num_threads( 4 )
memory 2 gb

molecule MOL {
0 1

O	 0.839851	 0.090130	 0.862604
C	 0.029490	 0.077183	 0.000078
C	 -1.232113	 -0.748027	 0.000015
O	 0.130226	 0.802972	 -1.100974
C	 -2.501422	 0.088592	 -0.000052
H	 -1.188777	 -1.400384	 -0.865133
H	 -1.188857	 -1.400312	 0.865225
H	 -2.548170	 0.725504	 -0.873205
H	 -3.371613	 -0.556398	 -0.000040
H	 -2.548215	 0.725571	 0.873047
C	 1.270428	 1.627779	 -1.232412
H	 1.312103	 2.351021	 -0.431526
H	 1.167860	 2.128689	 -2.181303
H	 2.173085	 1.035086	 -1.219305

	symmetry c1
}
set optking {
	frozen_dihedral = ("
		4 2 3 6
	")
}

ee,wfn = optimize('scf', return_wfn=True)
oeprop( wfn, 'DIPOLE', 'QUADRUPOLE', 'MULLIKEN_CHARGES')
f=open( 'psi4out.xyz', 'w' )
f.write( "14  " )
f.write( str(ee) + "\n" )
f.write( MOL.save_string_xyz() )
f.close()
--------------------------------------------------------------------------

    Molecular point group: c1
  Charge       = 0
  Multiplicity = 1
  Basis Set: CC-PVTZ
  Basis Set:
  @DF-RHF Final Energy:  -305.98585870127590
    Total Energy =                       -305.9858587012758449
    Molecular point group: c1
  Basis Set: CC-PVTZ
  Basis Set:
  Basis Set: CC-PVTZ
  Basis Set:
  @DF-RHF Final Energy:  -305.98614380174399
    Total Energy =                       -305.9861438017439923
  Basis Set: CC-PVTZ
  Basis Set:
  Basis Set: CC-PVTZ
  Basis Set:
  @DF-RHF Final Energy:  -305.98615378085685
    Total Energy =                       -305.9861537808568528
  Basis Set: CC-PVTZ
  Basis Set:
  Basis Set: CC-PVTZ
  Basis Set:
  @DF-RHF Final Energy:  -305.98613853395443
    Total Energy =                       -305.9861385339540902
  Basis Set: CC-PVTZ
  Basis Set:
  Charge       = 0
  Multiplicity = 1
  Basis Set: CC-PVTZ
  Basis Set:

    Orbital Energies (a.u.)
    -----------------------

    Doubly Occupied:

       1A    -20.597847     2A    -20.533813     3A    -11.364446
       4A    -11.279353     5A    -11.236379     6A    -11.224182
       7A     -1.472866     8A     -1.365647     9A     -1.068550
      10A     -0.976721    11A     -0.886240    12A     -0.776503
      13A     -0.698545    14A     -0.683072    15A     -0.676862
      16A     -0.620562    17A     -0.590673    18A     -0.570547
      19A     -0.545744    20A     -0.520763    21A     -0.513879
      22A     -0.504145    23A     -0.460414    24A     -0.437635

  @DF-RHF Final Energy:  -305.98615560612529

   => Energetics <=

    Nuclear Repulsion Energy =            248.7140680629598819
    One-Electron Energy =                -910.1896701512399659
    Two-Electron Energy =                 355.4894464821550741
    DFT Exchange-Correlation Energy =       0.0000000000000000
    Empirical Dispersion Energy =           0.0000000000000000
    PCM Polarization Energy =               0.0000000000000000
    EFP Energy =                            0.0000000000000000
    Total Energy =                       -305.9861556061250099
    Molecular point group: c1
  Basis Set: CC-PVTZ
  Basis Set:

  -Total Gradient:
     Atom            X                  Y                   Z
    ------   -----------------  -----------------  -----------------
       1        0.000010636853    -0.000006070116     0.000010054857
       2        0.000211027648    -0.000350461687    -0.000013150693
       3       -0.000263467025     0.000289812132    -0.000158457877
       4       -0.000125339138     0.000253921160    -0.000010851978
       5        0.000074512809    -0.000025420124    -0.000008881306
       6        0.000157548468    -0.000199149321     0.000162269436
       7       -0.000001591884     0.000037321728    -0.000026731863
       8       -0.000010053908    -0.000014868491     0.000022212130
       9       -0.000020369527     0.000008722390    -0.000000432543
      10       -0.000024098305     0.000014883408     0.000006801338
      11       -0.000045741553    -0.000019801361     0.000016325888
      12        0.000011847531     0.000014368480     0.000004336984
      13        0.000007521029     0.000002720494    -0.000000925659
      14        0.000017566998    -0.000005978689    -0.000002568712

  **** Optimization is complete! (in 5 steps) ****
    Final optimized geometry and variables:
    Molecular point group: c1

    Geometry (in Angstrom), charge = 0, multiplicity = 1:

    O            1.076014337651    -0.278011621878     1.103689236256
    C            0.256685432331    -0.274091073390     0.249015533027
    C           -1.002566378005    -1.102137700224     0.261800575948
    O            0.350740302192     0.470807513195    -0.840260910857
    C           -2.274908818442    -0.254490009732     0.249078441918
    H           -0.981834442474    -1.748172776968    -0.608681984429
    H           -0.962275652417    -1.723470848946     1.143851947364
    H           -2.334904927215     0.348956234620    -0.646054543829
    H           -3.146437734850    -0.895656923126     0.286060868037
    H           -2.310955083448     0.405350840376     1.108056618914
    C            1.490584091373     1.297196048220    -0.964856508764
    H            1.539301316507     2.004386136996    -0.150216640375
    H            1.380851287993     1.816608510865    -1.902984961150
    H            2.392520527430     0.703386191737    -0.970383074805

  Mulliken Charges: (a.u.)
   Center  Symbol    Alpha    Beta     Spin     Total
       1     O     4.19886  4.19886  0.00000 -0.39772
       2     C     2.80064  2.80064  0.00000  0.39871
       3     C     3.08492  3.08492  0.00000 -0.16983
       4     O     4.15023  4.15023  0.00000 -0.30045
       5     C     3.14980  3.14980  0.00000 -0.29961
       6     H     0.44733  0.44733  0.00000  0.10533
       7     H     0.43621  0.43621  0.00000  0.12758
       8     H     0.44589  0.44589  0.00000  0.10821
       9     H     0.44767  0.44767  0.00000  0.10466
      10     H     0.44987  0.44987  0.00000  0.10027
      11     C     3.03558  3.03558  0.00000 -0.07117
      12     H     0.45432  0.45432  0.00000  0.09135
      13     H     0.44569  0.44569  0.00000  0.10862
      14     H     0.45298  0.45298  0.00000  0.09405

   Total alpha = 24.00000, Total beta = 24.00000, Total charge = -0.00000

*** Psi4 exiting successfully. Buy a developer a beer!
