  ==> Input File <==

--------------------------------------------------------------------------
set {
	reference rhf
	basis 6-31G*
}

set_num_threads( 4 )
memory 2 gb

molecule MOL {
0 1

O	 -0.988096	 -1.408613	 0.050699
C	 -0.676749	 -0.249230	 -0.009274
C	 -1.746085	 0.827156	 -0.009539
N	 0.623947	 0.147590	 -0.102813
H	 -1.701500	 1.431508	 -0.908902
H	 -2.703425	 0.330732	 0.036390
H	 -1.647323	 1.487769	 0.845106
C	 1.282817	 0.069994	 -1.391900
C	 1.503653	 0.314279	 1.033223
H	 1.934178	 0.927981	 -1.516817
H	 0.542787	 0.066565	 -2.173108
H	 1.885093	 -0.832186	 -1.474093
H	 2.218740	 1.098684	 0.815508
H	 0.959402	 0.605487	 1.917486
H	 2.059996	 -0.595074	 1.253162

	symmetry c1
}
set optking {
	frozen_dihedral = ("
		8 4 2 3
	")
}

ee = optimize('scf')
oeprop('DIPOLE', 'QUADRUPOLE', 'MULLIKEN_CHARGES')
f=open( 'psi4out.xyz', 'w' )
f.write( "15  " )
f.write( str(ee) + "\n" )
f.write( MOL.save_string_xyz() )
f.close()
--------------------------------------------------------------------------

    Molecular point group: c1
  Charge       = 0
  Multiplicity = 1
  Basis Set: 6-31G*
  Basis Set:
  @DF-RHF Final Energy:  -285.99441733636661
    Total Energy =                       -285.9944173363666664
    Molecular point group: c1
  Basis Set: 6-31G*
  Basis Set:
  Basis Set: 6-31G*
  Basis Set:
  @DF-RHF Final Energy:  -285.99970420439922
    Total Energy =                       -285.9997042043990518
  Basis Set: 6-31G*
  Basis Set:
  Basis Set: 6-31G*
  Basis Set:
  @DF-RHF Final Energy:  -286.00443318506916
    Total Energy =                       -286.0044331850691037
  Basis Set: 6-31G*
  Basis Set:
  Basis Set: 6-31G*
  Basis Set:
  @DF-RHF Final Energy:  -286.00826061194732
    Total Energy =                       -286.0082606119472644
  Basis Set: 6-31G*
  Basis Set:
  @DF-RHF Final Energy:  -286.01021938262750
    Total Energy =                       -286.0102193826275538
  @DF-RHF Final Energy:  -286.01055846590327
    Total Energy =                       -286.0105584659032729
  Basis Set: 6-31G*
  Basis Set:
  @DF-RHF Final Energy:  -286.01083575367863
    Total Energy =                       -286.0108357536786343
  Basis Set: 6-31G*
  Basis Set:
  Basis Set: 6-31G*
  Basis Set:
  @DF-RHF Final Energy:  -286.01092013534560
    Total Energy =                       -286.0109201353452590
  Basis Set: 6-31G*
  Basis Set:
  Basis Set: 6-31G*
  Basis Set:
  @DF-RHF Final Energy:  -286.01092922520081
    Total Energy =                       -286.0109292252010960
  Basis Set: 6-31G*
  Basis Set:
  Charge       = 0
  Multiplicity = 1
  Basis Set: 6-31G*
  Basis Set:

    Orbital Energies (a.u.)
    -----------------------

    Doubly Occupied:

       1A    -20.553926     2A    -15.563982     3A    -11.350360
       4A    -11.256952     5A    -11.245430     6A    -11.228861
       7A     -1.412436     8A     -1.231931     9A     -1.013715
      10A     -0.963885    11A     -0.896271    12A     -0.737603
      13A     -0.679367    14A     -0.657982    15A     -0.639910
      16A     -0.602897    17A     -0.583439    18A     -0.574666
      19A     -0.556213    20A     -0.535940    21A     -0.522931
      22A     -0.492976    23A     -0.426084    24A     -0.380274

  @DF-RHF Final Energy:  -286.01093016632683

   => Energetics <=

    Nuclear Repulsion Energy =            252.4891926499198291
    One-Electron Energy =                -888.7841830560099652
    Two-Electron Energy =                 350.2840602397631073
    DFT Exchange-Correlation Energy =       0.0000000000000000
    Empirical Dispersion Energy =           0.0000000000000000
    PCM Polarization Energy =               0.0000000000000000
    EFP Energy =                            0.0000000000000000
    Total Energy =                       -286.0109301663270571
    Molecular point group: c1
  Basis Set: 6-31G*
  Basis Set:

  -Total Gradient:
     Atom            X                  Y                   Z
    ------   -----------------  -----------------  -----------------
       1       -0.000132244978     0.000060389265     0.000061875835
       2        0.001135477237    -0.003920589898    -0.006852985805
       3       -0.000070797008     0.001533630855     0.005271973529
       4       -0.003531779645     0.006589663444    -0.000871687622
       5        0.000050394771    -0.000029663929     0.000028523478
       6       -0.000049821829     0.000020613664     0.000032262638
       7        0.000000060862    -0.000010207059     0.000018171739
       8        0.002651243243    -0.004264292204     0.002357054384
       9       -0.000005454359    -0.000017955449    -0.000034153446
      10       -0.000005526515     0.000002207402     0.000000034661
      11       -0.000009562000     0.000004821374     0.000017619989
      12       -0.000002790393     0.000003984906    -0.000007631812
      13        0.000005352100     0.000021294819    -0.000001462798
      14       -0.000032541731     0.000015826254    -0.000015996699
      15       -0.000002009754    -0.000009723444    -0.000003598071

  **** Optimization is complete! (in 10 steps) ****
    Final optimized geometry and variables:
    Molecular point group: c1

    Geometry (in Angstrom), charge = 0, multiplicity = 1:

    O           -0.755616451953    -1.278040429161     0.544713044440
    C           -0.673941806711    -0.177189803926     0.102628914334
    C           -1.880778914451     0.680476736056    -0.178281580800
    N            0.572179295778     0.492862964582    -0.084769825992
    H           -1.778615714218     1.214662110415    -1.115801097055
    H           -2.780822087467     0.081755559282    -0.180362516424
    H           -1.941355177009     1.426732887422     0.607845740834
    C            1.156854904137     0.142547309214    -1.376459823063
    C            1.510993934000     0.201113105331     0.993669490977
    H            2.039093976271     0.748463985878    -1.540604917478
    H            0.455734916277     0.354561734777    -2.176244768934
    H            1.435638820578    -0.908382123266    -1.430369224286
    H            2.383477766062     0.830473002074     0.865376972375
    H            1.058442303302     0.441865957805     1.947225415232
    H            1.823529966079    -0.839171677688     1.014366991461

  Mulliken Charges: (a.u.)
   Center  Symbol    Alpha    Beta     Spin     Total
       1     O     4.25755  4.25755  0.00000 -0.51510
       2     C     2.67026  2.67026  0.00000  0.65947
       3     C     3.27222  3.27222  0.00000 -0.54444
       4     N     3.80502  3.80502  0.00000 -0.61004
       5     H     0.40836  0.40836  0.00000  0.18329
       6     H     0.40129  0.40129  0.00000  0.19743
       7     H     0.40088  0.40088  0.00000  0.19824
       8     C     3.15623  3.15623  0.00000 -0.31246
       9     C     3.14873  3.14873  0.00000 -0.29745
      10     H     0.40899  0.40899  0.00000  0.18202
      11     H     0.41336  0.41336  0.00000  0.17327
      12     H     0.41603  0.41603  0.00000  0.16795
      13     H     0.41494  0.41494  0.00000  0.17013
      14     H     0.41193  0.41193  0.00000  0.17614
      15     H     0.41422  0.41422  0.00000  0.17157

   Total alpha = 24.00000, Total beta = 24.00000, Total charge = -0.00000
