  ==> Input File <==

--------------------------------------------------------------------------
set {
	reference rhf
	basis cc-pvtz
}

set_num_threads( 4 )
memory 2 gb

molecule MOL {
0 1

H	 3.444384	 -0.062458	 -0.824248
C	 2.734029	 -0.255294	 -0.030843
C	 1.322304	 0.099773	 -0.484271
H	 2.810572	 -1.303432	 0.235460
H	 3.030980	 0.332412	 0.830414
C	 0.308557	 -0.162619	 0.622645
H	 1.051679	 -0.485701	 -1.354165
H	 1.272625	 1.144526	 -0.765269
N	 -1.069352	 -0.004081	 0.085342
H	 0.371632	 -1.172932	 0.991288
H	 0.400391	 0.548875	 1.426218
O	 -1.584901	 -0.965470	 -0.377818
O	 -1.548033	 1.079343	 0.130056

	symmetry c1
}
set optking {
	frozen_dihedral = ("
		7 3 6 9
	")
}

ee = optimize('scf')
oeprop('DIPOLE', 'QUADRUPOLE', 'MULLIKEN_CHARGES')
f=open( 'psi4out.xyz', 'w' )
f.write( "13  " )
f.write( str(ee) + "\n" )
f.write( MOL.save_string_xyz() )
f.close()
--------------------------------------------------------------------------

    Molecular point group: c1
  Charge       = 0
  Multiplicity = 1
  Basis Set: CC-PVTZ
  Basis Set:
  @DF-RHF Final Energy:  -321.86126214282558
    Total Energy =                       -321.8612621428256944
    Molecular point group: c1
  Basis Set: CC-PVTZ
  Basis Set:
  Basis Set: CC-PVTZ
  Basis Set:
  @DF-RHF Final Energy:  -321.86128148633213
    Total Energy =                       -321.8612814863322455
  Basis Set: CC-PVTZ
  Basis Set:
  Basis Set: CC-PVTZ
  Basis Set:
  @DF-RHF Final Energy:  -321.86076574228946
    Total Energy =                       -321.8607657422892316
  Basis Set: CC-PVTZ
  Basis Set:
  Basis Set: CC-PVTZ
  Basis Set:
  @DF-RHF Final Energy:  -321.86128499315305
    Total Energy =                       -321.8612849931531628
  Basis Set: CC-PVTZ
  Basis Set:
  Basis Set: CC-PVTZ
  Basis Set:
  @DF-RHF Final Energy:  -321.86128977431804
    Total Energy =                       -321.8612897743180383
  Basis Set: CC-PVTZ
  Basis Set:
  Basis Set: CC-PVTZ
  Basis Set:
  @DF-RHF Final Energy:  -321.86129319591407
    Total Energy =                       -321.8612931959140155
  Basis Set: CC-PVTZ
  Basis Set:
  Charge       = 0
  Multiplicity = 1
  Basis Set: CC-PVTZ
  Basis Set:

    Orbital Energies (a.u.)
    -----------------------

    Doubly Occupied:

       1A    -20.590451     2A    -20.590340     3A    -15.836956
       4A    -11.297243     5A    -11.254345     6A    -11.237290
       7A     -1.635998     8A     -1.420316     9A     -1.134264
      10A     -1.027985    11A     -0.884187    12A     -0.834640
      13A     -0.761620    14A     -0.738560    15A     -0.727552
      16A     -0.672682    17A     -0.604484    18A     -0.588974
      19A     -0.551515    20A     -0.520692    21A     -0.514428
      22A     -0.486780    23A     -0.475289    24A     -0.452950

  @DF-RHF Final Energy:  -321.86129356988579

   => Energetics <=

    Nuclear Repulsion Energy =            248.0376883265367667
    One-Electron Energy =                -930.1188881747468713
    Two-Electron Energy =                 360.2199062783246859
    DFT Exchange-Correlation Energy =       0.0000000000000000
    Empirical Dispersion Energy =           0.0000000000000000
    PCM Polarization Energy =               0.0000000000000000
    EFP Energy =                            0.0000000000000000
    Total Energy =                       -321.8612935698853903
    Molecular point group: c1
  Basis Set: CC-PVTZ
  Basis Set:

  -Total Gradient:
     Atom            X                  Y                   Z
    ------   -----------------  -----------------  -----------------
       1       -0.000004394723    -0.000001013078    -0.000000538453
       2       -0.000014033373     0.000000809167    -0.000002012110
       3        0.001167019117    -0.002001836052     0.000613136175
       4        0.000004599897    -0.000003267963     0.000001021283
       5       -0.000007219267    -0.000000428549    -0.000003694230
       6       -0.000175259736     0.001876782117     0.000263777957
       7       -0.000952745653     0.001293207067    -0.000552342253
       8        0.000004829537     0.000027241348    -0.000012581007
       9       -0.000030350214    -0.001129475849    -0.000293270216
      10        0.000006532372    -0.000013667965     0.000015680009
      11       -0.000003805303    -0.000000626255    -0.000019629657
      12        0.000007120906    -0.000020613852    -0.000014154304
      13       -0.000002293565    -0.000027110140     0.000004606804

  **** Optimization is complete! (in 7 steps) ****
    Final optimized geometry and variables:
    Molecular point group: c1

    Geometry (in Angstrom), charge = 0, multiplicity = 1:

    H            3.449800815016    -0.008935749329    -0.808397093477
    C            2.738597532284    -0.219444475152    -0.020270302786
    C            1.325387385031     0.126406270164    -0.473942886450
    H            2.824721246930    -1.269600891736     0.234045992182
    H            3.026533923706     0.361150040602     0.849110006983
    C            0.309876074236    -0.133239980516     0.633111140471
    H            1.052254511622    -0.456724696001    -1.344945704876
    H            1.269904685861     1.169422334588    -0.760482648680
    N           -1.067154633096     0.032111580766     0.096054739962
    H            0.365325068327    -1.146739662021     0.994065345667
    H            0.407021814966     0.570880121288     1.442567196129
    O           -1.598634968785    -0.932544079347    -0.341775955391
    O           -1.529574560559     1.123375589014     0.115295107712

  Mulliken Charges: (a.u.)
   Center  Symbol    Alpha    Beta     Spin     Total
       1     H     0.44175  0.44175  0.00000  0.11651
       2     C     3.15081  3.15081  0.00000 -0.30163
       3     C     3.09583  3.09583  0.00000 -0.19166
       4     H     0.45091  0.45091  0.00000  0.09818
       5     H     0.45204  0.45204  0.00000  0.09592
       6     C     3.03887  3.03887  0.00000 -0.07773
       7     H     0.43798  0.43798  0.00000  0.12405
       8     H     0.43859  0.43859  0.00000  0.12281
       9     N     3.27647  3.27647  0.00000  0.44706
      10     H     0.43567  0.43567  0.00000  0.12865
      11     H     0.43381  0.43381  0.00000  0.13238
      12     O     4.17290  4.17290  0.00000 -0.34580
      13     O     4.17437  4.17437  0.00000 -0.34874

   Total alpha = 24.00000, Total beta = 24.00000, Total charge = -0.00000
