  ==> Input File <==

--------------------------------------------------------------------------
set {
	reference rhf
	basis cc-pvtz
}

set_num_threads( 4 )
memory 2 gb

molecule MOL {
0 1

H	 2.747948	 0.076468	 -0.253713
N	 1.773676	 0.285480	 -0.257782
C	 1.195517	 0.057080	 1.051190
C	 1.090456	 -0.478079	 -1.282493
H	 1.716860	 0.665917	 1.779799
H	 1.277953	 -0.985413	 1.364291
C	 -0.272670	 0.441707	 1.027473
H	 1.535668	 -0.257029	 -2.244924
H	 1.166253	 -1.554383	 -1.116836
C	 -0.377594	 -0.092750	 -1.303152
H	 -0.354915	 1.520834	 0.868376
H	 -0.720948	 0.216492	 1.987912
N	 -0.976577	 -0.298712	 -0.000000
H	 -0.901739	 -0.704412	 -2.027901
H	 -0.467067	 0.949557	 -1.622810
C	 -2.391156	 -0.021003	 -0.000000
H	 -2.853954	 -0.458728	 -0.875714
H	 -2.853954	 -0.458728	 0.875714
H	 -2.614037	 1.049773	 -0.000000

	symmetry c1
}
set optking {
	frozen_dihedral = ("
		7 13 16 19
	")
}

ee = optimize('scf')
oeprop('DIPOLE', 'QUADRUPOLE', 'MULLIKEN_CHARGES')
f=open( 'psi4out.xyz', 'w' )
f.write( "19  " )
f.write( str(ee) + "\n" )
f.write( MOL.save_string_xyz() )
f.close()
--------------------------------------------------------------------------

    Molecular point group: c1
  Charge       = 0
  Multiplicity = 1
  Basis Set: CC-PVTZ
  Basis Set:
  @DF-RHF Final Energy:  -305.30835528587534
    Total Energy =                       -305.3083552858753933
    Molecular point group: c1
  Basis Set: CC-PVTZ
  Basis Set:
  Basis Set: CC-PVTZ
  Basis Set:
  @DF-RHF Final Energy:  -305.30843011040753
    Total Energy =                       -305.3084301104073575
  Basis Set: CC-PVTZ
  Basis Set:
  Basis Set: CC-PVTZ
  Basis Set:
  @DF-RHF Final Energy:  -305.30843480226389
    Total Energy =                       -305.3084348022636618
  Basis Set: CC-PVTZ
  Basis Set:
  Charge       = 0
  Multiplicity = 1
  Basis Set: CC-PVTZ
  Basis Set:

    Orbital Energies (a.u.)
    -----------------------

    Doubly Occupied:

       1A    -15.537006     2A    -15.531179     3A    -11.237287
       4A    -11.237215     5A    -11.235850     6A    -11.235822
       7A    -11.233203     8A     -1.249334     9A     -1.187783
      10A     -1.023799    11A     -0.965703    12A     -0.861513
      13A     -0.858415    14A     -0.758015    15A     -0.692805
      16A     -0.634716    17A     -0.627284    18A     -0.609797
      19A     -0.605167    20A     -0.581264    21A     -0.543629
      22A     -0.529381    23A     -0.512806    24A     -0.490429
      25A     -0.467313    26A     -0.458028    27A     -0.365974
      28A     -0.349196

  @DF-RHF Final Energy:  -305.30843521349323

   => Energetics <=

    Nuclear Repulsion Energy =            340.3302841779354821
    One-Electron Energy =               -1088.0376249090661531
    Two-Electron Energy =                 442.3989055176378997
    DFT Exchange-Correlation Energy =       0.0000000000000000
    Empirical Dispersion Energy =           0.0000000000000000
    PCM Polarization Energy =               0.0000000000000000
    EFP Energy =                            0.0000000000000000
    Total Energy =                       -305.3084352134927713
    Molecular point group: c1
  Basis Set: CC-PVTZ
  Basis Set:

  -Total Gradient:
     Atom            X                  Y                   Z
    ------   -----------------  -----------------  -----------------
       1       -0.000008474408    -0.000001602382    -0.000004050632
       2       -0.000004712702     0.000000539362     0.000002465831
       3        0.000004756738    -0.000019662890     0.000006125161
       4        0.000032701016     0.000009751707    -0.000010838354
       5       -0.000012264950    -0.000001363988    -0.000004268662
       6        0.000013227070    -0.000009059569     0.000004360274
       7        0.000325102206     0.001659313366    -0.001458168400
       8        0.000009454078    -0.000000747195    -0.000003383406
       9       -0.000006198475     0.000007262821     0.000001703026
      10       -0.000023611225    -0.000031991770     0.000055710511
      11       -0.000006244732     0.000020594093     0.000008150470
      12        0.000005788507     0.000003031552     0.000001475176
      13       -0.000471683175    -0.002247269630     0.002779996090
      14       -0.000006785969     0.000002081709    -0.000005446083
      15        0.000002084949    -0.000000245291     0.000005265544
      16        0.000134553627     0.000591913482    -0.004375738738
      17        0.000021813704    -0.000008647690     0.000005983825
      18       -0.000016440897     0.000000454808     0.000020310374
      19        0.000006934644     0.000025647505     0.002970347993

  **** Optimization is complete! (in 4 steps) ****
    Final optimized geometry and variables:
    Molecular point group: c1

    Geometry (in Angstrom), charge = 0, multiplicity = 1:

    H            2.752078813954     0.088028781787    -0.138613915465
    N            1.778113371192     0.298739082093    -0.144418645560
    C            1.195798766668     0.069116856371     1.162259146563
    C            1.095715541451    -0.460212413015    -1.172837450080
    H            1.712458341899     0.679595544716     1.892970751760
    H            1.279250546356    -0.972985605342     1.476506263032
    C           -0.272899326174     0.450900252831     1.131476595545
    H            1.541944011776    -0.235629838602    -2.134102141789
    H            1.170833742333    -1.537314392234    -1.011510668779
    C           -0.372970957455    -0.076206414327    -1.194412639995
    H           -0.357434162038     1.528205813955     0.963341809541
    H           -0.723908005802     0.232932003144     2.092869525747
    N           -0.975226207786    -0.295884047974     0.106816062304
    H           -0.892540698748    -0.683372083564    -1.925862201197
    H           -0.462206028921     0.968498025962    -1.506195489709
    C           -2.389671873601    -0.007875516073     0.111350776735
    H           -2.866974011223    -0.460903707284    -0.747311187161
    H           -2.846433141932    -0.421702022341     1.003305534112
    H           -2.603652746715     1.064043504393     0.106553307312

  Mulliken Charges: (a.u.)
   Center  Symbol    Alpha    Beta     Spin     Total
       1     H     0.43998  0.43998  0.00000  0.12004
       2     N     3.64290  3.64290  0.00000 -0.28580
       3     C     3.04051  3.04051  0.00000 -0.08101
       4     C     3.04124  3.04124  0.00000 -0.08247
       5     H     0.45245  0.45245  0.00000  0.09510
       6     H     0.46524  0.46524  0.00000  0.06951
       7     C     3.03567  3.03567  0.00000 -0.07134
       8     H     0.45246  0.45246  0.00000  0.09509
       9     H     0.46537  0.46537  0.00000  0.06926
      10     C     3.03364  3.03364  0.00000 -0.06728
      11     H     0.46742  0.46742  0.00000  0.06516
      12     H     0.45416  0.45416  0.00000  0.09167
      13     N     3.61500  3.61500  0.00000 -0.23001
      14     H     0.45391  0.45391  0.00000  0.09218
      15     H     0.46903  0.46903  0.00000  0.06194
      16     C     3.09689  3.09689  0.00000 -0.19378
      17     H     0.45292  0.45292  0.00000  0.09417
      18     H     0.45149  0.45149  0.00000  0.09703
      19     H     0.46972  0.46972  0.00000  0.06056

   Total alpha = 28.00000, Total beta = 28.00000, Total charge = -0.00000
