  ==> Input File <==

--------------------------------------------------------------------------
set {
	reference rhf
	basis 6-31G*
}

set_num_threads( 1 )
memory 2 gb

molecule MOL {
0 1

H	 -3.426445	 1.555291	 -0.281803
C	 -2.705475	 0.951772	 0.234558
C	 -2.076860	 -0.007332	 -0.404944
H	 -2.516829	 1.152568	 1.272346
O	 -1.180634	 -0.819263	 0.215062
H	 -2.246121	 -0.219845	 -1.445802
C	 0.051604	 -1.018856	 -0.387932
C	 1.043764	 0.054862	 -0.001873
H	 -0.017620	 -1.041351	 -1.469781
H	 0.437898	 -1.966374	 -0.042284
F	 2.212596	 -0.199467	 -0.571921
F	 0.652529	 1.252447	 -0.405055
F	 1.230877	 0.110694	 1.300533

	symmetry c1
}
set optking {
	frozen_dihedral = ("
		11 8 7 9,
		3 5 7 9,
		6 3 2 1
	")
}

ee = energy('scf')
oeprop('DIPOLE', 'QUADRUPOLE', 'MULLIKEN_CHARGES')
f=open( 'psi4out.xyz', 'w' )
f.write( "13  " )
f.write( str(ee) + "\n" )
f.write( MOL.save_string_xyz() )
f.close()
--------------------------------------------------------------------------

    Molecular point group: c1

    Geometry (in Angstrom), charge = 0, multiplicity = 1:

       Center              X                  Y                   Z               Mass
    ------------   -----------------  -----------------  -----------------  -----------------
           H         -3.480875562869     1.489865867200    -0.288801012845     1.007825032070
           C         -2.759905562869     0.886346867200     0.227559987155    12.000000000000
           C         -2.131290562869    -0.072757132800    -0.411942012845    12.000000000000
           H         -2.571259562869     1.087142867200     1.265347987155     1.007825032070
           O         -1.235064562869    -0.884688132800     0.208063987155    15.994914619560
           H         -2.300551562869    -0.285270132800    -1.452800012845     1.007825032070
           C         -0.002826562869    -1.084281132800    -0.394930012845    12.000000000000
           C          0.989333437131    -0.010563132800    -0.008871012845    12.000000000000
           H         -0.072050562869    -1.106776132800    -1.476779012845     1.007825032070
           H          0.383467437131    -2.031799132800    -0.049282012845     1.007825032070
           F          2.158165437131    -0.264892132800    -0.578919012845    18.998403224000
           F          0.598098437131     1.187021867200    -0.412053012845    18.998403224000
           F          1.176446437131     0.045268867200     1.293534987155    18.998403224000

  Charge       = 0
  Multiplicity = 1
  Basis Set: 6-31G*
  Basis Set:

    Orbital Energies (a.u.)
    -----------------------

    Doubly Occupied:

       1A    -26.341929     2A    -26.338533     3A    -26.338393
       4A    -20.602783     5A    -11.500177     6A    -11.316079
       7A    -11.296044     8A    -11.220878     9A     -1.738519
      10A     -1.636877    11A     -1.634696    12A     -1.434337
      13A     -1.081371    14A     -1.016357    15A     -0.923054
      16A     -0.834344    17A     -0.827673    18A     -0.815885
      19A     -0.790875    20A     -0.713855    21A     -0.710541
      22A     -0.689373    23A     -0.674121    24A     -0.662857
      25A     -0.652028    26A     -0.642077    27A     -0.639727
      28A     -0.582165    29A     -0.565692    30A     -0.527005
      31A     -0.487292    32A     -0.361326

  @DF-RHF Final Energy:  -527.53423523268089

   => Energetics <=

    Nuclear Repulsion Energy =            416.7123457866518379
    One-Electron Energy =               -1557.2994021376089222
    Two-Electron Energy =                 613.0528211182758014
    DFT Exchange-Correlation Energy =       0.0000000000000000
    Empirical Dispersion Energy =           0.0000000000000000
    PCM Polarization Energy =               0.0000000000000000
    EFP Energy =                            0.0000000000000000
    Total Energy =                       -527.5342352326812261

  Mulliken Charges: (a.u.)
   Center  Symbol    Alpha    Beta     Spin     Total
       1     H     0.40726  0.40726  0.00000  0.18549
       2     C     3.21882  3.21882  0.00000 -0.43764
       3     C     2.90930  2.90930  0.00000  0.18141
       4     H     0.40012  0.40012  0.00000  0.19975
       5     O     4.30325  4.30325  0.00000 -0.60650
       6     H     0.40907  0.40907  0.00000  0.18186
       7     C     3.05800  3.05800  0.00000 -0.11601
       8     C     2.45663  2.45663  0.00000  1.08675
       9     H     0.40784  0.40784  0.00000  0.18433
      10     H     0.39294  0.39294  0.00000  0.21413
      11     F     4.68322  4.68322  0.00000 -0.36643
      12     F     4.67826  4.67826  0.00000 -0.35651
      13     F     4.67531  4.67531  0.00000 -0.35062

   Total alpha = 32.00000, Total beta = 32.00000, Total charge =  0.00000
