  ==> Input File <==

--------------------------------------------------------------------------
set {
	reference rhf
	basis 6-31G*
}

set_num_threads( 1 )
memory 2 gb

molecule MOL {
0 1

O	 3.044943	 -3.047031	 -0.592848
C	 2.604198	 -2.088638	 -0.044864
C	 1.160117	 -1.883325	 0.344063
O	 3.347903	 -1.046386	 0.304773
C	 0.265221	 -3.063770	 -0.027184
H	 1.143382	 -1.679458	 1.409591
H	 0.822430	 -0.969558	 -0.138321
C	 -1.220435	 -2.827975	 0.265600
H	 0.606960	 -3.951490	 0.496540
H	 0.390066	 -3.273267	 -1.084041
C	 -1.573509	 -2.701828	 1.750368
H	 -1.782635	 -3.658074	 -0.155812
H	 -1.557104	 -1.937072	 -0.262562
C	 -3.078690	 -2.578068	 1.995551
H	 -1.192726	 -3.571520	 2.283715
H	 -1.075264	 -1.836606	 2.181779
C	 -3.442909	 -2.446151	 3.475441
H	 -3.583855	 -3.447442	 1.578142
H	 -3.461998	 -1.714775	 1.453795
C	 -4.948084	 -2.326905	 3.711937
H	 -3.059750	 -3.307521	 4.018462
H	 -2.942362	 -1.575194	 3.893373
H	 -5.174410	 -2.234867	 4.769724
H	 -5.474345	 -3.199757	 3.335941
H	 -5.356051	 -1.454414	 3.209348
C	 4.728119	 -1.109107	 -0.004993
H	 4.882018	 -1.033965	 -1.071845
H	 5.068212	 -2.067527	 0.355250
H	 5.265056	 -0.311663	 0.488280

	symmetry c1
}
set optking {
	frozen_dihedral = ("
		21 17 14 11,
		17 14 11 15,
		15 11 8 5,
		6 3 5 9,
		11 8 5 9,
		1 2 4 26,
		6 3 2 1
	")
}

ee = energy('scf')
oeprop('DIPOLE', 'QUADRUPOLE', 'MULLIKEN_CHARGES')
f=open( 'psi4out.xyz', 'w' )
f.write( "29  " )
f.write( str(ee) + "\n" )
f.write( MOL.save_string_xyz() )
f.close()
--------------------------------------------------------------------------

    Molecular point group: c1

    Geometry (in Angstrom), charge = 0, multiplicity = 1:

       Center              X                  Y                   Z               Mass
    ------------   -----------------  -----------------  -----------------  -----------------
           O          2.921184531068    -0.774671137342    -1.604378846823    15.994914619560
           C          2.480439531068     0.183721862658    -1.056394846823    12.000000000000
           C          1.036358531068     0.389034862658    -0.667467846823    12.000000000000
           O          3.224144531068     1.225973862658    -0.706757846823    15.994914619560
           C          0.141462531068    -0.791410137342    -1.038714846823    12.000000000000
           H          1.019623531068     0.592901862658     0.398060153177     1.007825032070
           H          0.698671531068     1.302801862658    -1.149851846823     1.007825032070
           C         -1.344193468932    -0.555615137342    -0.745930846823    12.000000000000
           H          0.483201531068    -1.679130137342    -0.514990846823     1.007825032070
           H          0.266307531068    -1.000907137342    -2.095571846823     1.007825032070
           C         -1.697267468932    -0.429468137342     0.738837153177    12.000000000000
           H         -1.906393468932    -1.385714137342    -1.167342846823     1.007825032070
           H         -1.680862468932     0.335287862658    -1.274092846823     1.007825032070
           C         -3.202448468932    -0.305708137342     0.984020153177    12.000000000000
           H         -1.316484468932    -1.299160137342     1.272184153177     1.007825032070
           H         -1.199022468932     0.435753862658     1.170248153177     1.007825032070
           C         -3.566667468932    -0.173791137342     2.463910153177    12.000000000000
           H         -3.707613468932    -1.175082137342     0.566611153177     1.007825032070
           H         -3.585756468932     0.557584862658     0.442264153177     1.007825032070
           C         -5.071842468932    -0.054545137342     2.700406153177    12.000000000000
           H         -3.183508468932    -1.035161137342     3.006931153177     1.007825032070
           H         -3.066120468932     0.697165862658     2.881842153177     1.007825032070
           H         -5.298168468932     0.037492862658     3.758193153177     1.007825032070
           H         -5.598103468932    -0.927397137342     2.324410153177     1.007825032070
           H         -5.479809468932     0.817945862658     2.197817153177     1.007825032070
           C          4.604360531068     1.163252862658    -1.016523846823    12.000000000000
           H          4.758259531068     1.238394862658    -2.083375846823     1.007825032070
           H          4.944453531068     0.204832862658    -0.656280846823     1.007825032070
           H          5.141297531068     1.960696862658    -0.523250846823     1.007825032070

  Charge       = 0
  Multiplicity = 1
  Basis Set: 6-31G*
  Basis Set:

    Orbital Energies (a.u.)
    -----------------------

    Doubly Occupied:

       1A    -20.602450     2A    -20.545222     3A    -11.372599
       4A    -11.280179     5A    -11.234865     6A    -11.219165
       7A    -11.217692     8A    -11.216026     9A    -11.215884
      10A    -11.214479    11A    -11.209085    12A     -1.469068
      13A     -1.362441    14A     -1.098130    15A     -1.066857
      16A     -1.019418    17A     -0.976768    18A     -0.928361
      19A     -0.861607    20A     -0.799244    21A     -0.790465
      22A     -0.762956    23A     -0.701136    24A     -0.683155
      25A     -0.673058    26A     -0.650968    27A     -0.629265
      28A     -0.606624    29A     -0.595204    30A     -0.581887
      31A     -0.566866    32A     -0.549612    33A     -0.532417
      34A     -0.527191    35A     -0.515089    36A     -0.510461
      37A     -0.496010    38A     -0.477864    39A     -0.470227
      40A     -0.462464    41A     -0.458874    42A     -0.455194
      43A     -0.441539    44A     -0.435500

  @DF-RHF Final Energy:  -501.04221823810963

   => Energetics <=

    Nuclear Repulsion Energy =            610.3097201510536252
    One-Electron Energy =               -1891.7370719022396770
    Two-Electron Energy =                 780.3851335130775624
    DFT Exchange-Correlation Energy =       0.0000000000000000
    Empirical Dispersion Energy =           0.0000000000000000
    PCM Polarization Energy =               0.0000000000000000
    EFP Energy =                            0.0000000000000000
    Total Energy =                       -501.0422182381084895

  Mulliken Charges: (a.u.)
   Center  Symbol    Alpha    Beta     Spin     Total
       1     O     4.28596  4.28596  0.00000 -0.57192
       2     C     2.60469  2.60469  0.00000  0.79063
       3     C     3.20952  3.20952  0.00000 -0.41904
       4     O     4.30844  4.30844  0.00000 -0.61688
       5     C     3.15387  3.15387  0.00000 -0.30773
       6     H     0.39879  0.39879  0.00000  0.20242
       7     H     0.40108  0.40108  0.00000  0.19784
       8     C     3.15663  3.15663  0.00000 -0.31326
       9     H     0.41310  0.41310  0.00000  0.17379
      10     H     0.40871  0.40871  0.00000  0.18258
      11     C     3.15508  3.15508  0.00000 -0.31016
      12     H     0.41820  0.41820  0.00000  0.16359
      13     H     0.42384  0.42384  0.00000  0.15233
      14     C     3.15030  3.15030  0.00000 -0.30059
      15     H     0.42262  0.42262  0.00000  0.15477
      16     H     0.42358  0.42358  0.00000  0.15283
      17     C     3.15147  3.15147  0.00000 -0.30295
      18     H     0.42332  0.42332  0.00000  0.15337
      19     H     0.42396  0.42396  0.00000  0.15208
      20     C     3.23936  3.23936  0.00000 -0.47873
      21     H     0.42280  0.42280  0.00000  0.15440
      22     H     0.42342  0.42342  0.00000  0.15317
      23     H     0.41922  0.41922  0.00000  0.16155
      24     H     0.42154  0.42154  0.00000  0.15692
      25     H     0.42182  0.42182  0.00000  0.15636
      26     C     3.09345  3.09345  0.00000 -0.18689
      27     H     0.41128  0.41128  0.00000  0.17744
      28     H     0.40620  0.40620  0.00000  0.18759
      29     H     0.40775  0.40775  0.00000  0.18451

   Total alpha = 44.00000, Total beta = 44.00000, Total charge =  0.00000
