                              Psi4 1.0.54 Driver

  ==> Input File <==

--------------------------------------------------------------------------
set {
	reference rhf
	basis cc-pvtz
}

set_num_threads( 4 )
memory 2 gb

molecule MOL {
0 1

H	 -2.739889	 1.763666	 1.671796
C	 -2.554308	 0.756485	 1.359617
C	 -1.468122	 0.481857	 0.679819
H	 -3.265538	 -0.004312	 1.614840
O	 -1.189946	 -0.765863	 0.237511
H	 -0.744570	 1.234948	 0.425942
C	 0.026572	 -0.995256	 -0.379403
C	 1.057223	 0.049888	 -0.004615
H	 -0.054361	 -1.010670	 -1.459674
H	 0.397526	 -1.952058	 -0.044198
F	 2.203233	 -0.234060	 -0.590375
F	 0.698147	 1.254887	 -0.392621
F	 1.266440	 0.094219	 1.288722

	symmetry c1
}
set optking {
	frozen_dihedral = ("
		3 5 7 9
	")
}

ee,wfn = optimize('scf', return_wfn=True)
oeprop( wfn, 'DIPOLE', 'QUADRUPOLE', 'MULLIKEN_CHARGES')
f=open( 'psi4out.xyz', 'w' )
f.write( "13  " )
f.write( str(ee) + "\n" )
f.write( MOL.save_string_xyz() )
f.close()
--------------------------------------------------------------------------

    Molecular point group: c1
  Charge       = 0
  Multiplicity = 1
  Basis Set: CC-PVTZ
  Basis Set:
  @DF-RHF Final Energy:  -527.71494231865324
    Total Energy =                       -527.7149423186532431
    Molecular point group: c1
  Basis Set: CC-PVTZ
  Basis Set:
  Basis Set: CC-PVTZ
  Basis Set:
  @DF-RHF Final Energy:  -527.72804029543590
    Total Energy =                       -527.7280402954361307
  Basis Set: CC-PVTZ
  Basis Set:
  Basis Set: CC-PVTZ
  Basis Set:
  @DF-RHF Final Energy:  -527.71037625320014
    Total Energy =                       -527.7103762532000246
  Basis Set: CC-PVTZ
  Basis Set:
  Basis Set: CC-PVTZ
  Basis Set:
  @DF-RHF Final Energy:  -527.72671403264053
    Total Energy =                       -527.7267140326408708
  Basis Set: CC-PVTZ
  Basis Set:
  @DF-RHF Final Energy:  -527.73292846162201
    Total Energy =                       -527.7329284616225777
  @DF-RHF Final Energy:  -527.73320782513201
    Total Energy =                       -527.7332078251320127
  @DF-RHF Final Energy:  -527.73329011029955
    Total Energy =                       -527.7332901102997766
  Basis Set: CC-PVTZ
  Basis Set:
  @DF-RHF Final Energy:  -527.73331576632654
    Total Energy =                       -527.7333157663263137
  Basis Set: CC-PVTZ
  Basis Set:
  Basis Set: CC-PVTZ
  Basis Set:
  @DF-RHF Final Energy:  -527.73331955897947
    Total Energy =                       -527.7333195589793604
  Basis Set: CC-PVTZ
  Basis Set:
  Basis Set: CC-PVTZ
  Basis Set:
  @DF-RHF Final Energy:  -527.73332216321865
    Total Energy =                       -527.7333221632188724
  Basis Set: CC-PVTZ
  Basis Set:
  Charge       = 0
  Multiplicity = 1
  Basis Set: CC-PVTZ
  Basis Set:

    Orbital Energies (a.u.)
    -----------------------

    Doubly Occupied:

       1A    -26.347986     2A    -26.347587     3A    -26.347196
       4A    -20.599634     5A    -11.507913     6A    -11.321335
       7A    -11.295484     8A    -11.210236     9A     -1.758474
      10A     -1.654164    11A     -1.653326    12A     -1.437095
      13A     -1.088649    14A     -1.023563    15A     -0.937834
      16A     -0.851703    17A     -0.847696    18A     -0.842307
      19A     -0.770452    20A     -0.731593    21A     -0.728939
      22A     -0.708454    23A     -0.688392    24A     -0.671082
      25A     -0.664684    26A     -0.658887    27A     -0.649181
      28A     -0.588741    29A     -0.560790    30A     -0.532571
      31A     -0.504039    32A     -0.352083

  @DF-RHF Final Energy:  -527.73332287121605

   => Energetics <=

    Nuclear Repulsion Energy =            416.1550516142723382
    One-Electron Energy =               -1556.0126065559313702
    Two-Electron Energy =                 612.1242320704427584
    DFT Exchange-Correlation Energy =       0.0000000000000000
    Empirical Dispersion Energy =           0.0000000000000000
    PCM Polarization Energy =               0.0000000000000000
    EFP Energy =                            0.0000000000000000
    Total Energy =                       -527.7333228712163873
    Molecular point group: c1
  Basis Set: CC-PVTZ
  Basis Set:

  -Total Gradient:
     Atom            X                  Y                   Z
    ------   -----------------  -----------------  -----------------
       1        0.000005994755     0.000001488098     0.000002853179
       2       -0.000012877555    -0.000048361911    -0.000006186322
       3        0.001298061791    -0.000363184595     0.002756381594
       4       -0.000006397325     0.000015809780    -0.000004068892
       5       -0.001821816789    -0.000242846062    -0.004312211464
       6       -0.000003432496    -0.000032779903     0.000018428248
       7       -0.000354164321     0.003947199858     0.001775427123
       8        0.000080451559    -0.000021450369     0.000033321725
       9        0.000849405745    -0.003305453246    -0.000236523355
      10       -0.000012837369     0.000032373958    -0.000005714270
      11       -0.000021153919     0.000008199600    -0.000022297002
      12        0.000006925366    -0.000014158366    -0.000023823438
      13       -0.000008159432     0.000023163154     0.000024412868

  **** Optimization is complete! (in 11 steps) ****
    Final optimized geometry and variables:
    Molecular point group: c1

    Geometry (in Angstrom), charge = 0, multiplicity = 1:

    H           -3.581291002587    -0.063707381033     1.445696044128
    C           -2.905211622400    -0.784467568186     1.033549912169
    C           -1.835499611170    -0.372901971090     0.396216970759
    H           -3.123868926403    -1.827475373399     1.153120008601
    O           -0.969431257105    -1.251232638334    -0.159087335753
    H           -1.618791925554     0.668024382942     0.272368695965
    C            0.254556581952    -0.895227322670    -0.708643429716
    C            0.919067479711     0.375517041815    -0.214327146741
    H            0.187313939092    -0.834574364974    -1.788447915716
    H            0.942843423013    -1.693116634108    -0.470000026895
    F            2.152286846503     0.400683864335    -0.672775014793
    F            0.326415482254     1.473213345795    -0.641188992281
    F            0.972172023253     0.437797958685     1.095287796895

  Mulliken Charges: (a.u.)
   Center  Symbol    Alpha    Beta     Spin     Total
       1     H     0.42517  0.42517  0.00000  0.14965
       2     C     3.19933  3.19933  0.00000 -0.39866
       3     C     2.96744  2.96744  0.00000  0.06513
       4     H     0.42634  0.42634  0.00000  0.14733
       5     O     4.14553  4.14553  0.00000 -0.29107
       6     H     0.42332  0.42332  0.00000  0.15337
       7     C     2.99609  2.99609  0.00000  0.00783
       8     C     2.68998  2.68998  0.00000  0.62005
       9     H     0.45382  0.45382  0.00000  0.09237
      10     H     0.44599  0.44599  0.00000  0.10803
      11     F     4.60638  4.60638  0.00000 -0.21276
      12     F     4.61277  4.61277  0.00000 -0.22554
      13     F     4.60786  4.60786  0.00000 -0.21572

   Total alpha = 32.00000, Total beta = 32.00000, Total charge = -0.00000

*** Psi4 exiting successfully. Buy a developer a beer!
