  ==> Input File <==

--------------------------------------------------------------------------
set {
	reference rhf
	basis cc-pvtz
}

set_num_threads( 4 )
memory 2 gb

molecule MOL {
0 1

H	 2.168389	 -2.732781	 4.217228
C	 1.942827	 -2.584602	 3.167812
C	 0.702370	 -1.715957	 2.990685
H	 2.810914	 -2.126390	 2.705744
H	 1.807737	 -3.562695	 2.718255
C	 0.348313	 -1.482538	 1.529477
H	 0.848877	 -0.754466	 3.470097
H	 -0.140568	 -2.185971	 3.491801
N	 -0.817866	 -0.636581	 1.394873
H	 1.179750	 -0.990725	 1.033492
H	 0.218384	 -2.447093	 1.029641
C	 -1.215959	 -0.382435	 0.027143
H	 -1.582333	 -1.033611	 1.900122
C	 -2.451944	 0.502410	 -0.038737
H	 -0.392141	 0.114742	 -0.476161
H	 -1.402480	 -1.307180	 -0.527054
C	 -3.752217	 -0.292550	 0.005776
H	 -2.407325	 1.093801	 -0.946480
H	 -2.431979	 1.206234	 0.790023
H	 -3.817783	 -0.982946	 -0.828547
H	 -4.612613	 0.364348	 -0.042306
H	 -3.830160	 -0.871666	 0.919868

	symmetry c1
}
set optking {
	frozen_dihedral = ("
		15 12 14 18
	")
}

ee = optimize('scf')
oeprop('DIPOLE', 'QUADRUPOLE', 'MULLIKEN_CHARGES')
f=open( 'psi4out.xyz', 'w' )
f.write( "22  " )
f.write( str(ee) + "\n" )
f.write( MOL.save_string_xyz() )
f.close()
--------------------------------------------------------------------------

    Molecular point group: c1
  Charge       = 0
  Multiplicity = 1
  Basis Set: CC-PVTZ
  Basis Set:
  @DF-RHF Final Energy:  -290.48678639259930
    Total Energy =                       -290.4867863925991855
    Molecular point group: c1
  Basis Set: CC-PVTZ
  Basis Set:
  Basis Set: CC-PVTZ
  Basis Set:
  @DF-RHF Final Energy:  -290.48708690930732
    Total Energy =                       -290.4870869093074361
  Basis Set: CC-PVTZ
  Basis Set:
  Basis Set: CC-PVTZ
  Basis Set:
  @DF-RHF Final Energy:  -290.48715022440570
    Total Energy =                       -290.4871502244058092
  Basis Set: CC-PVTZ
  Basis Set:
  Basis Set: CC-PVTZ
  Basis Set:
  @DF-RHF Final Energy:  -290.48715139114586
    Total Energy =                       -290.4871513911458010
  Basis Set: CC-PVTZ
  Basis Set:
  Charge       = 0
  Multiplicity = 1
  Basis Set: CC-PVTZ
  Basis Set:

    Orbital Energies (a.u.)
    -----------------------

    Doubly Occupied:

       1A    -15.528485     2A    -11.236228     3A    -11.236169
       4A    -11.211848     5A    -11.211679     6A    -11.209214
       7A    -11.207563     8A     -1.207483     9A     -1.059698
      10A     -1.025467    11A     -0.929305    12A     -0.876698
      13A     -0.807700    14A     -0.792644    15A     -0.667518
      16A     -0.635979    17A     -0.620987    18A     -0.590647
      19A     -0.576263    20A     -0.569264    21A     -0.549991
      22A     -0.527737    23A     -0.507030    24A     -0.488358
      25A     -0.479593    26A     -0.470355    27A     -0.467897
      28A     -0.452375    29A     -0.360845

  @DF-RHF Final Energy:  -290.48715152741414

   => Energetics <=

    Nuclear Repulsion Energy =            316.5434810636430143
    One-Electron Energy =               -1019.0512284969280472
    Two-Electron Energy =                 412.0205959058712324
    DFT Exchange-Correlation Energy =       0.0000000000000000
    Empirical Dispersion Energy =           0.0000000000000000
    PCM Polarization Energy =               0.0000000000000000
    EFP Energy =                            0.0000000000000000
    Total Energy =                       -290.4871515274137437
    Molecular point group: c1
  Basis Set: CC-PVTZ
  Basis Set:

  -Total Gradient:
     Atom            X                  Y                   Z
    ------   -----------------  -----------------  -----------------
       1       -0.000004301000     0.000001626554    -0.000001107466
       2       -0.000003141516    -0.000000848604    -0.000006509400
       3       -0.000001790887    -0.000002757327     0.000004962805
       4       -0.000000033176     0.000001084930     0.000000690043
       5        0.000001392853    -0.000002112236    -0.000000801106
       6        0.000034197454    -0.000009589328     0.000004696764
       7        0.000000691084     0.000002768014    -0.000004029716
       8       -0.000000587738    -0.000001779014     0.000003332946
       9       -0.000010080471     0.000010674604    -0.000014331703
      10       -0.000000709534     0.000002688437     0.000000796602
      11       -0.000005065337     0.000003428277     0.000003222575
      12        0.001481603781     0.002691304455     0.004304234083
      13       -0.000006874891    -0.000006861698     0.000000136585
      14       -0.002300856976    -0.003752347279    -0.002942933669
      15       -0.000884237023    -0.001648882805    -0.003140398751
      16       -0.000004940763    -0.000011249400     0.000004880653
      17        0.000012419691     0.000010780029     0.000001804216
      18        0.001689243737     0.002701226090     0.001769885754
      19       -0.000000568237     0.000000864435     0.000009550135
      20        0.000006323029     0.000006274347     0.000003367814
      21       -0.000002628530     0.000001452297     0.000001207240
      22       -0.000000055549     0.000002255224    -0.000002656405

  **** Optimization is complete! (in 5 steps) ****
    Final optimized geometry and variables:
    Molecular point group: c1

    Geometry (in Angstrom), charge = 0, multiplicity = 1:

    H            2.916529110783    -1.792447860725     2.917146645755
    C            2.689584121896    -1.642637393042     1.868247014343
    C            1.457913818826    -0.761039170338     1.694100316253
    H            3.561102358213    -1.193907820990     1.403344949237
    H            2.542754277356    -2.619532037754     1.419764619491
    C            1.102973706618    -0.523980719525     0.233702689912
    H            1.615679039332     0.198814981491     2.173137855516
    H            0.611242652980    -1.222299703915     2.197108379220
    N           -0.054608520153     0.334265504198     0.101651245726
    H            1.938042461764    -0.040390996514    -0.264414211891
    H            0.961910084855    -1.486861163025    -0.266119828775
    C           -0.443453074036     0.598486398261    -1.267686357178
    H           -0.822207992970    -0.060773568603     0.603073063398
    C           -1.710529753367     1.449054211234    -1.355888146023
    H            0.372278034344     1.108788717317    -1.768014082390
    H           -0.595883614815    -0.326694756809    -1.833045188658
    C           -3.007961379193     0.649430173726    -1.287443651374
    H           -1.682449062766     2.033887461163    -2.269174038872
    H           -1.682954215997     2.171275862990    -0.546394868490
    H           -3.084148957047    -0.044441928025    -2.117613007823
    H           -3.871220694606     1.303854436289    -1.321972985795
    H           -3.076004645527     0.073071010553    -0.370299436826

  Mulliken Charges: (a.u.)
   Center  Symbol    Alpha    Beta     Spin     Total
       1     H     0.44771  0.44771  0.00000  0.10457
       2     C     3.15332  3.15332  0.00000 -0.30665
       3     C     3.08028  3.08028  0.00000 -0.16056
       4     H     0.45467  0.45467  0.00000  0.09066
       5     H     0.45612  0.45612  0.00000  0.08777
       6     C     3.02170  3.02170  0.00000 -0.04341
       7     H     0.44915  0.44915  0.00000  0.10171
       8     H     0.45985  0.45985  0.00000  0.08030
       9     N     3.63619  3.63619  0.00000 -0.27237
      10     H     0.45918  0.45918  0.00000  0.08163
      11     H     0.47426  0.47426  0.00000  0.05148
      12     C     3.03139  3.03139  0.00000 -0.06279
      13     H     0.44528  0.44528  0.00000  0.10944
      14     C     3.09221  3.09221  0.00000 -0.18441
      15     H     0.45425  0.45425  0.00000  0.09151
      16     H     0.47572  0.47572  0.00000  0.04855
      17     C     3.14623  3.14623  0.00000 -0.29245
      18     H     0.45085  0.45085  0.00000  0.09829
      19     H     0.45034  0.45034  0.00000  0.09933
      20     H     0.45451  0.45451  0.00000  0.09098
      21     H     0.44724  0.44724  0.00000  0.10551
      22     H     0.45954  0.45954  0.00000  0.08093

   Total alpha = 29.00000, Total beta = 29.00000, Total charge =  0.00000
