                              Psi4 1.0.54 Driver

  ==> Input File <==

--------------------------------------------------------------------------
set {
	reference rhf
	basis cc-pvtz
}

set_num_threads( 4 )
memory 2 gb

molecule MOL {
0 1

H	 -0.000342	 -0.223902	 -3.352295
C	 -0.027146	 0.371068	 -2.446756
C	 0.024493	 -0.518541	 -1.216015
H	 -0.932586	 0.964979	 -2.449855
H	 0.819708	 1.049865	 -2.473332
N	 -0.042516	 0.263377	 0.000000
H	 -0.822211	 -1.197105	 -1.225584
H	 0.921114	 -1.142847	 -1.255206
C	 0.024493	 -0.518541	 1.216015
H	 0.682568	 0.950412	 0.000000
C	 -1.322416	 -1.139028	 1.547115
H	 0.757641	 -1.304917	 1.069200
H	 0.372176	 0.072909	 2.067207
H	 -1.662955	 -1.767045	 0.733365
H	 -1.257363	 -1.741683	 2.445605
H	 -2.073296	 -0.373645	 1.717411

	symmetry c1
}
set optking {
	frozen_dihedral = ("
		12 9 6 3
	")
}

ee,wfn = optimize('scf', return_wfn=True)
oeprop( wfn, 'DIPOLE', 'QUADRUPOLE', 'MULLIKEN_CHARGES')
f=open( 'psi4out.xyz', 'w' )
f.write( "16  " )
f.write( str(ee) + "\n" )
f.write( MOL.save_string_xyz() )
f.close()
--------------------------------------------------------------------------

    Molecular point group: c1
  Charge       = 0
  Multiplicity = 1
  Basis Set: CC-PVTZ
  Basis Set:
  @DF-RHF Final Energy:  -212.39097417370976
    Total Energy =                       -212.3909741737098216
    Molecular point group: c1
  Basis Set: CC-PVTZ
  Basis Set:
  Basis Set: CC-PVTZ
  Basis Set:
  @DF-RHF Final Energy:  -212.39231077024297
    Total Energy =                       -212.3923107702430570
  Basis Set: CC-PVTZ
  Basis Set:
  Basis Set: CC-PVTZ
  Basis Set:
  @DF-RHF Final Energy:  -212.39258294805407
    Total Energy =                       -212.3925829480542689
  Basis Set: CC-PVTZ
  Basis Set:
  Charge       = 0
  Multiplicity = 1
  Basis Set: CC-PVTZ
  Basis Set:

    Orbital Energies (a.u.)
    -----------------------

    Doubly Occupied:

       1A    -15.528959     2A    -11.239704     3A    -11.238900
       4A    -11.206840     5A    -11.201939     6A     -1.205697
       7A     -1.025685     8A     -0.966999     9A     -0.845412
      10A     -0.802834    11A     -0.664147    12A     -0.628735
      13A     -0.615569    14A     -0.581258    15A     -0.538532
      16A     -0.528571    17A     -0.508990    18A     -0.493468
      19A     -0.482654    20A     -0.467450    21A     -0.362303

  @DF-RHF Final Energy:  -212.39258704108806

   => Energetics <=

    Nuclear Repulsion Energy =            191.1012149981190760
    One-Electron Energy =                -664.7183181460154628
    Two-Electron Energy =                 261.2245161068083803
    DFT Exchange-Correlation Energy =       0.0000000000000000
    Empirical Dispersion Energy =           0.0000000000000000
    PCM Polarization Energy =               0.0000000000000000
    EFP Energy =                            0.0000000000000000
    Total Energy =                       -212.3925870410880066
    Molecular point group: c1
  Basis Set: CC-PVTZ
  Basis Set:

  -Total Gradient:
     Atom            X                  Y                   Z
    ------   -----------------  -----------------  -----------------
       1       -0.000002892312    -0.000015803581     0.000020504784
       2        0.000023459657     0.000032746285     0.000040793537
       3        0.000674643023     0.000056965245     0.000030184711
       4       -0.000004847292     0.000001330477    -0.000002000041
       5        0.000002579964     0.000009915928    -0.000007104388
       6       -0.001078716372    -0.000145955182    -0.000247576558
       7       -0.000026116345    -0.000019482196     0.000019789368
       8        0.000006016800     0.000019160889     0.000012032364
       9        0.000940816928     0.000601239959     0.000363962240
      10       -0.000019939371     0.000020894069    -0.000042860090
      11        0.000128157625     0.000009759653     0.000033999505
      12       -0.000639055727    -0.000562211580    -0.000262328508
      13       -0.000036212541    -0.000023586535     0.000016748015
      14        0.000027047013     0.000027882594     0.000004435390
      15       -0.000015823745    -0.000036181411     0.000039342984
      16        0.000020882694     0.000023325387    -0.000019923311

  **** Optimization is complete! (in 4 steps) ****
    Final optimized geometry and variables:
    Molecular point group: c1

    Geometry (in Angstrom), charge = 0, multiplicity = 1:

    H            0.293359466616     0.116560207501    -3.188022557344
    C            0.266288439280     0.695547889005    -2.272183912399
    C            0.285744319714    -0.217217552607    -1.057510016197
    H           -0.627673143309     1.306564889110    -2.275628346826
    H            1.125993230191     1.358610776548    -2.275640519344
    N            0.230969295933     0.549433536821     0.170560075668
    H           -0.573822885880    -0.876037344619    -1.094440799005
    H            1.169856143593    -0.858866255987    -1.097198649435
    C            0.282270643011    -0.234412169453     1.392044901206
    H            0.971649455995     1.216889073767     0.171326673322
    C           -1.080208775681    -0.787092033950     1.788022120600
    H            0.992849426075    -1.060159833926     1.312267612656
    H            0.639104508456     0.410903263929     2.186163755618
    H           -1.472246799566    -1.461822680285     1.036425595024
    H           -1.009476864484    -1.339039941747     2.719238540324
    H           -1.790807679841     0.019854015825     1.917269207519

  Mulliken Charges: (a.u.)
   Center  Symbol    Alpha    Beta     Spin     Total
       1     H     0.45412  0.45412  0.00000  0.09177
       2     C     3.14284  3.14284  0.00000 -0.28567
       3     C     3.02313  3.02313  0.00000 -0.04627
       4     H     0.44926  0.44926  0.00000  0.10148
       5     H     0.45938  0.45938  0.00000  0.08125
       6     N     3.63805  3.63805  0.00000 -0.27609
       7     H     0.45764  0.45764  0.00000  0.08471
       8     H     0.47291  0.47291  0.00000  0.05417
       9     C     3.03351  3.03351  0.00000 -0.06702
      10     H     0.44294  0.44294  0.00000  0.11411
      11     C     3.13754  3.13754  0.00000 -0.27508
      12     H     0.47165  0.47165  0.00000  0.05669
      13     H     0.45408  0.45408  0.00000  0.09184
      14     H     0.45676  0.45676  0.00000  0.08647
      15     H     0.45436  0.45436  0.00000  0.09128
      16     H     0.45182  0.45182  0.00000  0.09636

   Total alpha = 21.00000, Total beta = 21.00000, Total charge = -0.00000

*** Psi4 exiting successfully. Buy a developer a beer!
