                              Psi4 1.0.54 Driver

  ==> Input File <==

--------------------------------------------------------------------------
set {
	reference rhf
	basis cc-pvtz
}

set_num_threads( 4 )
memory 2 gb

molecule MOL {
0 1

H	 -1.663259	 2.567911	 -2.148308
C	 -0.726741	 2.806585	 -1.625953
C	 -0.745020	 2.550191	 -0.143449
O	 0.192927	 3.240005	 -2.229001
C	 -1.216901	 1.136108	 0.207794
H	 0.241621	 2.751675	 0.253134
H	 -1.432978	 3.273927	 0.288089
C	 -0.247837	 0.040196	 -0.230469
H	 -1.362822	 1.080072	 1.281064
H	 -2.192642	 0.961040	 -0.238831
C	 1.181757	 0.280428	 0.247371
H	 -0.259600	 -0.030819	 -1.314870
H	 -0.591284	 -0.923375	 0.136958
C	 2.151032	 -0.811012	 -0.202643
H	 1.515939	 1.247397	 -0.115449
H	 1.191514	 0.341223	 1.333422
C	 3.580021	 -0.656538	 0.320835
H	 2.170545	 -0.847575	 -1.289412
H	 1.766632	 -1.772905	 0.124928
C	 4.327657	 0.562694	 -0.213579
H	 4.138806	 -1.549270	 0.057813
H	 3.561991	 -0.620783	 1.406976
H	 4.355973	 0.557257	 -1.298551
H	 3.867136	 1.491650	 0.100501
H	 5.351524	 0.571613	 0.142204

	symmetry c1
}
set optking {
	frozen_dihedral = ("
		3 5 8 12
	")
}

ee,wfn = optimize('scf', return_wfn=True)
oeprop( wfn, 'DIPOLE', 'QUADRUPOLE', 'MULLIKEN_CHARGES')
f=open( 'psi4out.xyz', 'w' )
f.write( "25  " )
f.write( str(ee) + "\n" )
f.write( MOL.save_string_xyz() )
f.close()
--------------------------------------------------------------------------

    Molecular point group: c1
  Charge       = 0
  Multiplicity = 1
  Basis Set: CC-PVTZ
  Basis Set:
  @DF-RHF Final Energy:  -387.25682806338375
    Total Energy =                       -387.2568280633842051
    Molecular point group: c1
  Basis Set: CC-PVTZ
  Basis Set:
  Basis Set: CC-PVTZ
  Basis Set:
  @DF-RHF Final Energy:  -387.25197368461426
    Total Energy =                       -387.2519736846139722
  Basis Set: CC-PVTZ
  Basis Set:
  Basis Set: CC-PVTZ
  Basis Set:
  @DF-RHF Final Energy:  -387.25812505389393
    Total Energy =                       -387.2581250538939912
  Basis Set: CC-PVTZ
  Basis Set:
  Basis Set: CC-PVTZ
  Basis Set:
  @DF-RHF Final Energy:  -387.25822129220694
    Total Energy =                       -387.2582212922071676
  Basis Set: CC-PVTZ
  Basis Set:
  @DF-RHF Final Energy:  -387.25525364216844
    Total Energy =                       -387.2552536421682134
  @DF-RHF Final Energy:  -387.25846928363580
    Total Energy =                       -387.2584692836359181
  Basis Set: CC-PVTZ
  Basis Set:
  @DF-RHF Final Energy:  -387.25854404089915
    Total Energy =                       -387.2585440408988688
  Basis Set: CC-PVTZ
  Basis Set:
  Basis Set: CC-PVTZ
  Basis Set:
  @DF-RHF Final Energy:  -387.25854663708594
    Total Energy =                       -387.2585466370863969
  Basis Set: CC-PVTZ
  Basis Set:
  Basis Set: CC-PVTZ
  Basis Set:
  @DF-RHF Final Energy:  -387.25854837263108
    Total Energy =                       -387.2585483726310258
  Basis Set: CC-PVTZ
  Basis Set:
  Charge       = 0
  Multiplicity = 1
  Basis Set: CC-PVTZ
  Basis Set:

    Orbital Energies (a.u.)
    -----------------------

    Doubly Occupied:

       1A    -20.552217     2A    -11.321308     3A    -11.233733
       4A    -11.232915     5A    -11.221270     6A    -11.213744
       7A    -11.212790     8A    -11.212059     9A    -11.203421
      10A     -1.406910    11A     -1.103680    12A     -1.067331
      13A     -1.009786    14A     -0.943642    15A     -0.878511
      16A     -0.820718    17A     -0.786372    18A     -0.772255
      19A     -0.669887    20A     -0.658364    21A     -0.639673
      22A     -0.618186    23A     -0.607999    24A     -0.596727
      25A     -0.567454    26A     -0.548756    27A     -0.540411
      28A     -0.521095    29A     -0.516236    30A     -0.499020
      31A     -0.480063    32A     -0.476576    33A     -0.461717
      34A     -0.453040    35A     -0.443194    36A     -0.411536

  @DF-RHF Final Energy:  -387.25854855899161

   => Energetics <=

    Nuclear Repulsion Energy =            454.1099556629355902
    One-Electron Energy =               -1424.9318123787929835
    Two-Electron Energy =                 583.5633081568660145
    DFT Exchange-Correlation Energy =       0.0000000000000000
    Empirical Dispersion Energy =           0.0000000000000000
    PCM Polarization Energy =               0.0000000000000000
    EFP Energy =                            0.0000000000000000
    Total Energy =                       -387.2585485589913787
    Molecular point group: c1
  Basis Set: CC-PVTZ
  Basis Set:

  -Total Gradient:
     Atom            X                  Y                   Z
    ------   -----------------  -----------------  -----------------
       1       -0.000022044472     0.000012123491     0.000006047313
       2        0.000283040923     0.000072048680    -0.000062926409
       3        0.000695330115     0.000054441003     0.001506616979
       4       -0.000208942061    -0.000100539330     0.000072919073
       5       -0.001329792933    -0.000529439400    -0.002109262089
       6       -0.000020501783     0.000016888391    -0.000048228133
       7       -0.000023337369     0.000026181981     0.000021808725
       8        0.001892611160     0.002177565084     0.000731254370
       9       -0.000014839825     0.000040867716     0.000002282590
      10       -0.000017528517    -0.000010751624    -0.000010419177
      11       -0.000004252373     0.000037264444    -0.000037072236
      12       -0.001256415492    -0.001747013591    -0.000062643134
      13        0.000001784178    -0.000014627266    -0.000009632635
      14        0.000026279610     0.000021620410    -0.000002875514
      15        0.000070170876    -0.000024468639     0.000008727973
      16       -0.000047425793    -0.000013225063    -0.000003380183
      17       -0.000008209909    -0.000019546889    -0.000030478305
      18        0.000003651799    -0.000007875249     0.000019103389
      19       -0.000000661404     0.000002704804     0.000021827788
      20        0.000007799932     0.000009592492    -0.000005762654
      21        0.000021775273    -0.000002821574    -0.000010373187
      22       -0.000014216624    -0.000002860956    -0.000006999105
      23       -0.000001905623    -0.000004906460    -0.000000283774
      24       -0.000038780113     0.000006635477     0.000009148072
      25        0.000006410420     0.000000142069     0.000000600261

  **** Optimization is complete! (in 10 steps) ****
    Final optimized geometry and variables:
    Molecular point group: c1

    Geometry (in Angstrom), charge = 0, multiplicity = 1:

    H           -2.801913024132     1.305676402305    -1.690192705939
    C           -1.965042386102     1.644699072509    -1.064732769855
    C           -2.048305001562     1.241060096835     0.381602852055
    O           -1.089383154186     2.279570794898    -1.542782203218
    C           -2.184920726746    -0.276619510694     0.559905032222
    H           -1.187629231041     1.635853851833     0.901534187993
    H           -2.933941691348     1.719695960241     0.793076371267
    C           -1.009482005477    -1.111705086755     0.042057285981
    H           -2.321365057361    -0.472674714573     1.618254877265
    H           -3.095474835814    -0.612121303682     0.071995965662
    C            0.360932497355    -0.725892908936     0.594493045769
    H           -0.988148319866    -1.082677637621    -1.044679679349
    H           -1.211652317169    -2.148351631730     0.296737929440
    C            1.457141331844    -1.699861487118     0.165415000145
    H            0.616401853490     0.274766336177     0.269034326097
    H            0.314213450298    -0.697941696129     1.681593310885
    C            2.844181302671    -1.392969024283     0.732789891758
    H            1.512537137228    -1.720118481981    -0.920510182307
    H            1.172877034177    -2.702390811102     0.473477926051
    C            3.470224938748    -0.097172942203     0.222762860885
    H            3.504688551137    -2.218567303250     0.486004439123
    H            2.788951623669    -1.364765177157     1.818043031055
    H            3.533787664359    -0.095776080156    -0.860480753762
    H            2.900533533581     0.774820999872     0.519740956950
    H            4.474833729566     0.022338747431     0.612193995137

  Mulliken Charges: (a.u.)
   Center  Symbol    Alpha    Beta     Spin     Total
       1     H     0.46049  0.46049  0.00000  0.07902
       2     C     2.90533  2.90533  0.00000  0.18934
       3     C     3.10200  3.10200  0.00000 -0.20400
       4     O     4.16773  4.16773  0.00000 -0.33546
       5     C     3.11907  3.11907  0.00000 -0.23815
       6     H     0.43890  0.43890  0.00000  0.12220
       7     H     0.43500  0.43500  0.00000  0.12999
       8     C     3.10305  3.10305  0.00000 -0.20610
       9     H     0.44272  0.44272  0.00000  0.11457
      10     H     0.44285  0.44285  0.00000  0.11430
      11     C     3.09473  3.09473  0.00000 -0.18947
      12     H     0.44921  0.44921  0.00000  0.10158
      13     H     0.44424  0.44424  0.00000  0.11152
      14     C     3.09602  3.09602  0.00000 -0.19204
      15     H     0.44255  0.44255  0.00000  0.11491
      16     H     0.45412  0.45412  0.00000  0.09176
      17     C     3.09028  3.09028  0.00000 -0.18057
      18     H     0.45232  0.45232  0.00000  0.09535
      19     H     0.44984  0.44984  0.00000  0.10032
      20     C     3.15202  3.15202  0.00000 -0.30405
      21     H     0.44867  0.44867  0.00000  0.10266
      22     H     0.45567  0.45567  0.00000  0.08866
      23     H     0.45344  0.45344  0.00000  0.09313
      24     H     0.45268  0.45268  0.00000  0.09465
      25     H     0.44706  0.44706  0.00000  0.10588

   Total alpha = 36.00000, Total beta = 36.00000, Total charge = -0.00000

*** Psi4 exiting successfully. Buy a developer a beer!
