  ==> Input File <==

--------------------------------------------------------------------------
set {
	reference rhf
	basis 6-31G*
}

set_num_threads( 4 )
memory 2 gb

molecule MOL {
0 1

H	 -4.169831	 0.901839	 -0.980693
O	 -3.452007	 0.283848	 -0.965577
C	 -3.181085	 -0.079926	 0.364119
C	 -1.765924	 0.277073	 0.805136
H	 -3.327791	 -1.152017	 0.410903
H	 -3.905698	 0.375695	 1.036898
C	 -0.677594	 -0.417312	 -0.014550
H	 -1.637766	 1.358238	 0.744969
H	 -1.659588	 0.017670	 1.857098
C	 0.738335	 -0.034840	 0.421385
H	 -0.814977	 -0.178223	 -1.064632
H	 -0.802730	 -1.495410	 0.071702
C	 1.822265	 -0.738362	 -0.399735
H	 0.853533	 1.043532	 0.342250
H	 0.871597	 -0.279636	 1.474438
C	 3.258060	 -0.455774	 0.057203
H	 1.718003	 -0.459167	 -1.447053
H	 1.651028	 -1.811884	 -0.354513
C	 3.709143	 0.994797	 -0.123830
H	 3.930637	 -1.101717	 -0.501982
H	 3.365259	 -0.739518	 1.102287
H	 3.601178	 1.310569	 -1.158127
H	 4.753787	 1.110486	 0.148516
H	 3.135362	 1.678896	 0.492569

	symmetry c1
}
set optking {
	frozen_dihedral = ("
		1 2 3 5
	")
}

ee = optimize('scf')
oeprop('DIPOLE', 'QUADRUPOLE', 'MULLIKEN_CHARGES')
f=open( 'psi4out.xyz', 'w' )
f.write( "24  " )
f.write( str(ee) + "\n" )
f.write( MOL.save_string_xyz() )
f.close()
--------------------------------------------------------------------------

    Molecular point group: c1
  Charge       = 0
  Multiplicity = 1
  Basis Set: 6-31G*
  Basis Set:
  @DF-RHF Final Energy:  -349.24505991831307
    Total Energy =                       -349.2450599183126201
    Molecular point group: c1
  Basis Set: 6-31G*
  Basis Set:
  Basis Set: 6-31G*
  Basis Set:
  @DF-RHF Final Energy:  -349.24549888454425
    Total Energy =                       -349.2454988845443040
  Basis Set: 6-31G*
  Basis Set:
  Basis Set: 6-31G*
  Basis Set:
  @DF-RHF Final Energy:  -349.24562611420424
    Total Energy =                       -349.2456261142040148
  Basis Set: 6-31G*
  Basis Set:
  Charge       = 0
  Multiplicity = 1
  Basis Set: 6-31G*
  Basis Set:

    Orbital Energies (a.u.)
    -----------------------

    Doubly Occupied:

       1A    -20.551311     2A    -11.268221     3A    -11.211554
       4A    -11.211527     5A    -11.208727     6A    -11.208102
       7A    -11.206102     8A    -11.204895     9A     -1.357717
      10A     -1.084985    11A     -1.045640    12A     -0.983574
      13A     -0.912114    14A     -0.844849    15A     -0.792261
      16A     -0.773019    17A     -0.697429    18A     -0.649658
      19A     -0.625061    20A     -0.611600    21A     -0.583707
      22A     -0.577844    23A     -0.556805    24A     -0.534725
      25A     -0.520742    26A     -0.503317    27A     -0.492213
      28A     -0.479757    29A     -0.466585    30A     -0.453717
      31A     -0.450637    32A     -0.437682    33A     -0.421432

  @DF-RHF Final Energy:  -349.24562673621762

   => Energetics <=

    Nuclear Repulsion Energy =            384.3790642155667570
    One-Electron Energy =               -1235.3943626794750799
    Two-Electron Energy =                 501.7696717276907066
    DFT Exchange-Correlation Energy =       0.0000000000000000
    Empirical Dispersion Energy =           0.0000000000000000
    PCM Polarization Energy =               0.0000000000000000
    EFP Energy =                            0.0000000000000000
    Total Energy =                       -349.2456267362175595
    Molecular point group: c1
  Basis Set: 6-31G*
  Basis Set:

  -Total Gradient:
     Atom            X                  Y                   Z
    ------   -----------------  -----------------  -----------------
       1       -0.000118305369    -0.000249437100    -0.000083043160
       2       -0.000020836762     0.000589251328     0.000259267951
       3        0.000225799092    -0.000503994190    -0.000145723540
       4        0.000089520531     0.000321451317    -0.000202058304
       5       -0.000238852548    -0.000096567657     0.000113814742
       6        0.000016438873     0.000018779773    -0.000096499757
       7       -0.000003902101    -0.000034243654    -0.000061109003
       8        0.000126333220     0.000000105410    -0.000027711571
       9       -0.000031954413     0.000011172282     0.000037141719
      10       -0.000042326677    -0.000009211580     0.000075170567
      11       -0.000001432108    -0.000016076949     0.000128919631
      12        0.000009107357    -0.000037947599    -0.000016491895
      13       -0.000031251053    -0.000013159353     0.000001007507
      14        0.000005901978     0.000013430510     0.000001814090
      15        0.000036806599     0.000005611473     0.000007760433
      16       -0.000005739250     0.000002339048     0.000003191784
      17       -0.000002144946    -0.000006503376    -0.000000139165
      18       -0.000007437448     0.000001520089     0.000002367213
      19       -0.000005289502     0.000000910061     0.000005809534
      20       -0.000002206691     0.000004878960    -0.000006018025
      21        0.000006583931    -0.000005653060    -0.000000510217
      22        0.000002072118    -0.000002246315     0.000001274543
      23        0.000002855907     0.000003004051     0.000003486139
      24       -0.000009740736     0.000002586531    -0.000001721216

  **** Optimization is complete! (in 4 steps) ****
    Final optimized geometry and variables:
    Molecular point group: c1

    Geometry (in Angstrom), charge = 0, multiplicity = 1:

    H           -4.114124559236     0.928986435027    -1.004510122278
    O           -3.406841706748     0.304532868014    -0.965847866534
    C           -3.175979172185    -0.088326984651     0.368139741357
    C           -1.764563934651     0.276269422865     0.806383106161
    H           -3.324276587684    -1.162197792459     0.438693659102
    H           -3.898459763268     0.378629953867     1.032579017850
    C           -0.678272023594    -0.420879182913    -0.013420587279
    H           -1.645142917056     1.354894827490     0.732572504157
    H           -1.654409909035     0.017097132823     1.858606895940
    C            0.737442277641    -0.036690058351     0.421584279457
    H           -0.817326025335    -0.179063184866    -1.062269270736
    H           -0.801896269880    -1.499431436107     0.074219070857
    C            1.821713232270    -0.737299584616    -0.401492728476
    H            0.849976068010     1.041790311813     0.342801080058
    H            0.872726031142    -0.282260329366     1.474378836611
    C            3.257655781845    -0.451446612475     0.052974312928
    H            1.714868287716    -0.457923218321    -1.448422443403
    H            1.653318092977    -1.811399090045    -0.356507588043
    C            3.704242645825     1.000647401036    -0.126976438741
    H            3.931126945522    -1.094734543052    -0.508272223985
    H            3.367647812479    -0.736156739627     1.097569240422
    H            3.593892971589     1.317223178741    -1.160740680628
    H            4.748949526891     1.119237522382     0.144198917031
    H            3.128891505765     1.682209654942     0.490667929303

  Mulliken Charges: (a.u.)
   Center  Symbol    Alpha    Beta     Spin     Total
       1     H     0.27927  0.27927  0.00000  0.44147
       2     O     4.37243  4.37243  0.00000 -0.74485
       3     C     3.00048  3.00048  0.00000 -0.00097
       4     C     3.15626  3.15626  0.00000 -0.31252
       5     H     0.42322  0.42322  0.00000  0.15356
       6     H     0.42933  0.42933  0.00000  0.14135
       7     C     3.15469  3.15469  0.00000 -0.30939
       8     H     0.42244  0.42244  0.00000  0.15512
       9     H     0.42626  0.42626  0.00000  0.14748
      10     C     3.15368  3.15368  0.00000 -0.30736
      11     H     0.40789  0.40789  0.00000  0.18421
      12     H     0.42574  0.42574  0.00000  0.14851
      13     C     3.15214  3.15214  0.00000 -0.30428
      14     H     0.42205  0.42205  0.00000  0.15589
      15     H     0.42646  0.42646  0.00000  0.14709
      16     C     3.15213  3.15213  0.00000 -0.30426
      17     H     0.42340  0.42340  0.00000  0.15320
      18     H     0.42277  0.42277  0.00000  0.15446
      19     C     3.24090  3.24090  0.00000 -0.48181
      20     H     0.42161  0.42161  0.00000  0.15678
      21     H     0.42419  0.42419  0.00000  0.15162
      22     H     0.42219  0.42219  0.00000  0.15563
      23     H     0.42013  0.42013  0.00000  0.15975
      24     H     0.42034  0.42034  0.00000  0.15932

   Total alpha = 33.00000, Total beta = 33.00000, Total charge =  0.00000
