                              Psi4 1.0.54 Driver

  ==> Input File <==

--------------------------------------------------------------------------
set {
	reference rhf
	basis cc-pvtz
}

set_num_threads( 4 )
memory 2 gb

molecule MOL {
0 1

O	 0.623971	 1.347241	 -0.000777
C	 0.485107	 0.171416	 -0.000134
C	 1.606966	 -0.836201	 0.000174
O	 -0.695554	 -0.422406	 0.000602
C	 2.988788	 -0.202529	 -0.000115
H	 1.465110	 -1.474645	 -0.864821
H	 1.465209	 -1.474077	 0.865596
H	 3.131767	 0.419673	 -0.873407
H	 3.750876	 -0.972315	 0.000098
H	 3.131883	 0.420264	 0.872742
C	 -1.650983	 0.000656	 -0.961926
C	 -2.903387	 -0.820060	 -0.760935
H	 -1.240032	 -0.138337	 -1.951950
H	 -1.842513	 1.056112	 -0.829060
H	 -2.699202	 -1.874853	 -0.895448
H	 -3.655493	 -0.521824	 -1.481785
H	 -3.305162	 -0.673568	 0.233795

	symmetry c1
}
set optking {
	frozen_dihedral = ("
		11 4 2 3
	")
}

ee,wfn = optimize('scf', return_wfn=True)
oeprop( wfn, 'DIPOLE', 'QUADRUPOLE', 'MULLIKEN_CHARGES')
f=open( 'psi4out.xyz', 'w' )
f.write( "17  " )
f.write( str(ee) + "\n" )
f.write( MOL.save_string_xyz() )
f.close()
--------------------------------------------------------------------------

    Molecular point group: c1
  Charge       = 0
  Multiplicity = 1
  Basis Set: CC-PVTZ
  Basis Set:
  @DF-RHF Final Energy:  -345.02962245391535
    Total Energy =                       -345.0296224539154082
    Molecular point group: c1
  Basis Set: CC-PVTZ
  Basis Set:
  Basis Set: CC-PVTZ
  Basis Set:
  @DF-RHF Final Energy:  -345.02797291843115
    Total Energy =                       -345.0279729184309758
  Basis Set: CC-PVTZ
  Basis Set:
  Basis Set: CC-PVTZ
  Basis Set:
  @DF-RHF Final Energy:  -345.03011944458569
    Total Energy =                       -345.0301194445859210
  Basis Set: CC-PVTZ
  Basis Set:
  Basis Set: CC-PVTZ
  Basis Set:
  @DF-RHF Final Energy:  -345.03036678955425
    Total Energy =                       -345.0303667895539093
  Basis Set: CC-PVTZ
  Basis Set:
  Basis Set: CC-PVTZ
  Basis Set:
  @DF-RHF Final Energy:  -345.03039847745765
    Total Energy =                       -345.0303984774576520
  Basis Set: CC-PVTZ
  Basis Set:
  Basis Set: CC-PVTZ
  Basis Set:
  @DF-RHF Final Energy:  -345.03040075942533
    Total Energy =                       -345.0304007594251061
  Basis Set: CC-PVTZ
  Basis Set:
  Charge       = 0
  Multiplicity = 1
  Basis Set: CC-PVTZ
  Basis Set:

    Orbital Energies (a.u.)
    -----------------------

    Doubly Occupied:

       1A    -20.582359     2A    -20.538705     3A    -11.365511
       4A    -11.286771     5A    -11.238032     6A    -11.221003
       7A    -11.215181     8A     -1.464105     9A     -1.366181
      10A     -1.068877    11A     -1.034025    12A     -0.909321
      13A     -0.854226    14A     -0.771896    15A     -0.701570
      16A     -0.684926    17A     -0.664993    18A     -0.632452
      19A     -0.596330    20A     -0.567368    21A     -0.558057
      22A     -0.527634    23A     -0.522840    24A     -0.518173
      25A     -0.503927    26A     -0.495668    27A     -0.454036
      28A     -0.436416

  @DF-RHF Final Energy:  -345.03040095890509

   => Energetics <=

    Nuclear Repulsion Energy =            314.8422785825319465
    One-Electron Energy =               -1094.1841930652492465
    Two-Electron Energy =                 434.3115135238122662
    DFT Exchange-Correlation Energy =       0.0000000000000000
    Empirical Dispersion Energy =           0.0000000000000000
    PCM Polarization Energy =               0.0000000000000000
    EFP Energy =                            0.0000000000000000
    Total Energy =                       -345.0304009589050906
    Molecular point group: c1
  Basis Set: CC-PVTZ
  Basis Set:

  -Total Gradient:
     Atom            X                  Y                   Z
    ------   -----------------  -----------------  -----------------
       1       -0.000048934377    -0.000060133903     0.000034635533
       2        0.001547934730    -0.002146715848     0.007125257088
       3       -0.000193454686    -0.000271084388    -0.006628618010
       4       -0.003551978618     0.007749817738     0.004100341255
       5       -0.000021063410    -0.000008545892     0.000000864460
       6        0.000002528750     0.000002369569     0.000002613992
       7        0.000001766114     0.000017748527    -0.000012419276
       8       -0.000002513488    -0.000002821995    -0.000000689314
       9       -0.000003434654     0.000002041734    -0.000001116521
      10        0.000001928630    -0.000000438599     0.000000600786
      11        0.002270621726    -0.005288794081    -0.004615435625
      12       -0.000000059690     0.000002458911    -0.000003463557
      13       -0.000000838496    -0.000001986491     0.000002197196
      14       -0.000001743965     0.000007326209    -0.000001591906
      15        0.000000437163    -0.000000860989    -0.000000233159
      16       -0.000002864612    -0.000001224897    -0.000001071461
      17        0.000001668881     0.000000844400    -0.000001871481

  **** Optimization is complete! (in 7 steps) ****
    Final optimized geometry and variables:
    Molecular point group: c1

    Geometry (in Angstrom), charge = 0, multiplicity = 1:

    O            0.605499875735     1.437401106195     0.094376414665
    C            0.450572496824     0.273389671958     0.214467318595
    C            1.557700659628    -0.747864256712     0.216895909422
    O           -0.756383344584    -0.296324811202     0.274122288464
    C            2.948530913479    -0.149373511229     0.348758828024
    H            1.450661709519    -1.292146709372    -0.717177361492
    H            1.354151722555    -1.467568867490     1.001156402540
    H            3.148426703191     0.549931144960    -0.451333731687
    H            3.696725473731    -0.931969039989     0.316824048519
    H            3.054727950958     0.383548976844     1.284935699315
    C           -1.725431506493     0.121298333359    -0.677578079512
    C           -2.991613969988    -0.664226970844    -0.431397563996
    H           -1.337366419409    -0.069018678417    -1.672048341485
    H           -1.895619828443     1.183409648007    -0.578389717773
    H           -2.811417081648    -1.727365730440    -0.528161848297
    H           -3.748151735064    -0.375814302437    -1.151742480319
    H           -3.372272848962    -0.470104624346     0.563198827085

  Mulliken Charges: (a.u.)
   Center  Symbol    Alpha    Beta     Spin     Total
       1     O     4.18459  4.18459  0.00000 -0.36918
       2     C     2.80540  2.80540  0.00000  0.38920
       3     C     3.09376  3.09376  0.00000 -0.18752
       4     O     4.16491  4.16491  0.00000 -0.32983
       5     C     3.13994  3.13994  0.00000 -0.27987
       6     H     0.44669  0.44669  0.00000  0.10663
       7     H     0.43886  0.43886  0.00000  0.12228
       8     H     0.44637  0.44637  0.00000  0.10726
       9     H     0.45058  0.45058  0.00000  0.09883
      10     H     0.44953  0.44953  0.00000  0.10095
      11     C     2.97788  2.97788  0.00000  0.04423
      12     C     3.13435  3.13435  0.00000 -0.26871
      13     H     0.46520  0.46520  0.00000  0.06960
      14     H     0.44572  0.44572  0.00000  0.10856
      15     H     0.45184  0.45184  0.00000  0.09631
      16     H     0.45580  0.45580  0.00000  0.08841
      17     H     0.44858  0.44858  0.00000  0.10284

   Total alpha = 28.00000, Total beta = 28.00000, Total charge = -0.00000

*** Psi4 exiting successfully. Buy a developer a beer!
