  ==> Input File <==

--------------------------------------------------------------------------
set {
	reference rhf
	basis 6-31G*
}

set_num_threads( 4 )
memory 2 gb

molecule MOL {
0 1

H	 -3.420663	 1.227371	 -1.044276
O	 -3.452007	 0.283848	 -0.965577
C	 -3.181085	 -0.079926	 0.364119
C	 -1.765924	 0.277073	 0.805136
H	 -3.327791	 -1.152017	 0.410903
H	 -3.905698	 0.375695	 1.036898
C	 -0.677594	 -0.417312	 -0.014550
H	 -1.637766	 1.358238	 0.744969
H	 -1.659588	 0.017670	 1.857098
C	 0.288044	 0.563314	 -0.683201
H	 -1.144225	 -1.043830	 -0.768500
H	 -0.118033	 -1.087867	 0.635558
C	 1.378068	 -0.139286	 -1.497010
H	 -0.277935	 1.236050	 -1.323133
H	 0.755467	 1.187007	 0.077803
C	 2.422732	 0.797876	 -2.113906
H	 0.914013	 -0.728055	 -2.286757
H	 1.890524	 -0.849698	 -0.851625
C	 1.876358	 1.739827	 -3.188433
H	 3.212901	 0.192272	 -2.551131
H	 2.891305	 1.383035	 -1.325089
H	 1.390444	 1.182626	 -3.985022
H	 2.677242	 2.321559	 -3.634538
H	 1.152331	 2.440084	 -2.785210

	symmetry c1
}
set optking {
	frozen_dihedral = ("
		11 7 4 3
	")
}

ee = optimize('scf')
oeprop('DIPOLE', 'QUADRUPOLE', 'MULLIKEN_CHARGES')
f=open( 'psi4out.xyz', 'w' )
f.write( "24  " )
f.write( str(ee) + "\n" )
f.write( MOL.save_string_xyz() )
f.close()
--------------------------------------------------------------------------

    Molecular point group: c1
  Charge       = 0
  Multiplicity = 1
  Basis Set: 6-31G*
  Basis Set:
  @DF-RHF Final Energy:  -349.24261273079600
    Total Energy =                       -349.2426127307960542
    Molecular point group: c1
  Basis Set: 6-31G*
  Basis Set:
  Basis Set: 6-31G*
  Basis Set:
  @DF-RHF Final Energy:  -349.24281828770961
    Total Energy =                       -349.2428182877097811
  Basis Set: 6-31G*
  Basis Set:
  Basis Set: 6-31G*
  Basis Set:
  @DF-RHF Final Energy:  -349.24290884980695
    Total Energy =                       -349.2429088498072929
  Basis Set: 6-31G*
  Basis Set:
  Basis Set: 6-31G*
  Basis Set:
  @DF-RHF Final Energy:  -349.24291973286091
    Total Energy =                       -349.2429197328608552
  Basis Set: 6-31G*
  Basis Set:
  Basis Set: 6-31G*
  Basis Set:
  @DF-RHF Final Energy:  -349.24292344478181
    Total Energy =                       -349.2429234447816384
  Basis Set: 6-31G*
  Basis Set:
  Basis Set: 6-31G*
  Basis Set:
  @DF-RHF Final Energy:  -349.24292071029515
    Total Energy =                       -349.2429207102953228
  Basis Set: 6-31G*
  Basis Set:
  Basis Set: 6-31G*
  Basis Set:
  @DF-RHF Final Energy:  -349.24292414849936
    Total Energy =                       -349.2429241484995828
  Basis Set: 6-31G*
  Basis Set:
  Charge       = 0
  Multiplicity = 1
  Basis Set: 6-31G*
  Basis Set:

    Orbital Energies (a.u.)
    -----------------------

    Doubly Occupied:

       1A    -20.554079     2A    -11.267766     3A    -11.217018
       4A    -11.213382     5A    -11.211755     6A    -11.210949
       7A    -11.210442     8A    -11.206447     9A     -1.360685
      10A     -1.086711    11A     -1.046166    12A     -0.985208
      13A     -0.914110    14A     -0.850273    15A     -0.801434
      16A     -0.775793    17A     -0.679591    18A     -0.649352
      19A     -0.628192    20A     -0.617313    21A     -0.598841
      22A     -0.579872    23A     -0.558160    24A     -0.532197
      25A     -0.526126    26A     -0.509721    27A     -0.492965
      28A     -0.476921    29A     -0.466107    30A     -0.457080
      31A     -0.452424    32A     -0.446552    33A     -0.420737

  @DF-RHF Final Energy:  -349.24292399566582

   => Energetics <=

    Nuclear Repulsion Energy =            389.6456460604327958
    One-Electron Energy =               -1245.7684039957143796
    Two-Electron Energy =                 506.8798339396158781
    DFT Exchange-Correlation Energy =       0.0000000000000000
    Empirical Dispersion Energy =           0.0000000000000000
    PCM Polarization Energy =               0.0000000000000000
    EFP Energy =                            0.0000000000000000
    Total Energy =                       -349.2429239956657057
    Molecular point group: c1
  Basis Set: 6-31G*
  Basis Set:

  -Total Gradient:
     Atom            X                  Y                   Z
    ------   -----------------  -----------------  -----------------
       1       -0.000000598528     0.000003206862    -0.000010067992
       2       -0.000011341516     0.000028458643     0.000011711209
       3        0.000017348073     0.000115170536    -0.000172479661
       4       -0.000020364186    -0.000271588491     0.000297257367
       5       -0.000016044806    -0.000012794991     0.000017834712
       6        0.000017231689     0.000011298702    -0.000014948562
       7        0.000039170885     0.000342585384    -0.000291193250
       8        0.000005568703     0.000000080405     0.000010855638
       9       -0.000004914917     0.000016181669    -0.000001916733
      10        0.000003809296     0.000000324701    -0.000028929893
      11       -0.000012880844    -0.000231256463     0.000184292679
      12        0.000002238169    -0.000013543024    -0.000012997775
      13       -0.000007042924     0.000000951333     0.000002745522
      14        0.000004354934    -0.000015400715    -0.000009518589
      15       -0.000001791445     0.000014004994    -0.000001999932
      16       -0.000007251833     0.000016394140     0.000022917244
      17       -0.000009497853     0.000011154337    -0.000002282659
      18       -0.000000046947    -0.000009055977     0.000001215939
      19       -0.000000502448    -0.000003556634    -0.000006887199
      20       -0.000005479207    -0.000005679216     0.000008559866
      21        0.000000004575     0.000005590210     0.000001160796
      22       -0.000002844598     0.000000974837    -0.000000422849
      23        0.000002420624    -0.000002573575    -0.000000394938
      24        0.000008455112    -0.000000927666    -0.000004510941

  **** Optimization is complete! (in 8 steps) ****
    Final optimized geometry and variables:
    Molecular point group: c1

    Geometry (in Angstrom), charge = 0, multiplicity = 1:

    H           -2.942489239783     0.833614289819    -0.131220270999
    O           -2.984871500090    -0.108965525058    -0.047735514514
    C           -2.743799491849    -0.467740558015     1.289019543480
    C           -1.331289522011    -0.120735940923     1.745108017462
    H           -2.901884790367    -1.537968228351     1.338624404046
    H           -3.474988233792    -0.000597673089     1.946589569996
    C           -0.229566164725    -0.810537202703     0.911826484837
    H           -1.211279878495     0.961151418249     1.699143696928
    H           -1.238897579420    -0.382808889598     2.796103257662
    C            0.735745236827     0.170047104807     0.241493738964
    H           -0.691120487540    -1.423715274935     0.144085020222
    H            0.337519715169    -1.488340546010     1.544667711121
    C            1.824780593005    -0.530846981658    -0.573498989278
    H            0.162776652337     0.837141108002    -0.397559866082
    H            1.201900228316     0.795943559473     1.001736149480
    C            2.865743861956     0.407987197977    -1.194238841219
    H            1.359561476387    -1.121231759804    -1.361183874291
    H            2.340909769585    -1.239234059080     0.071624883796
    C            2.314220189685     1.346346526366    -2.269244559952
    H            3.656530588169    -0.196266758568    -1.632133782665
    H            3.334554473799     0.995812723154    -0.407469751485
    H            1.827014404699     0.786504117362    -3.063002495650
    H            3.112520057150     1.929115809309    -2.718709832459
    H            1.589554425312     2.045489805642    -1.865263236171

  Mulliken Charges: (a.u.)
   Center  Symbol    Alpha    Beta     Spin     Total
       1     H     0.28321  0.28321  0.00000  0.43357
       2     O     4.36837  4.36837  0.00000 -0.73674
       3     C     2.99936  2.99936  0.00000  0.00128
       4     C     3.17130  3.17130  0.00000 -0.34260
       5     H     0.41592  0.41592  0.00000  0.16817
       6     H     0.42875  0.42875  0.00000  0.14250
       7     C     3.15426  3.15426  0.00000 -0.30852
       8     H     0.42532  0.42532  0.00000  0.14936
       9     H     0.41949  0.41949  0.00000  0.16103
      10     C     3.15479  3.15479  0.00000 -0.30958
      11     H     0.40901  0.40901  0.00000  0.18198
      12     H     0.42267  0.42267  0.00000  0.15466
      13     C     3.15358  3.15358  0.00000 -0.30716
      14     H     0.42233  0.42233  0.00000  0.15534
      15     H     0.42572  0.42572  0.00000  0.14856
      16     C     3.15224  3.15224  0.00000 -0.30447
      17     H     0.42213  0.42213  0.00000  0.15575
      18     H     0.42300  0.42300  0.00000  0.15399
      19     C     3.24070  3.24070  0.00000 -0.48140
      20     H     0.42127  0.42127  0.00000  0.15747
      21     H     0.42415  0.42415  0.00000  0.15170
      22     H     0.42133  0.42133  0.00000  0.15735
      23     H     0.41987  0.41987  0.00000  0.16025
      24     H     0.42124  0.42124  0.00000  0.15753

   Total alpha = 33.00000, Total beta = 33.00000, Total charge = -0.00000
