  ==> Input File <==

--------------------------------------------------------------------------
set {
	reference rhf
	basis 6-31G*
}

set_num_threads( 4 )
memory 2 gb

molecule MOL {
0 1

O	 0.074228	 1.262779	 -0.000085
C	 0.028650	 0.075053	 -0.000277
C	 -1.233602	 -0.752807	 0.000328
O	 1.109162	 -0.694619	 -0.000298
C	 -2.501530	 0.091881	 0.000126
H	 -1.193807	 -1.406641	 -0.865785
H	 -1.193516	 -1.405779	 0.867015
H	 -2.545121	 0.729328	 -0.874513
H	 -3.377167	 -0.548497	 0.000561
H	 -2.544818	 0.730135	 0.874258
C	 1.162167	 -1.727832	 0.966785
H	 1.121954	 -1.316119	 1.964927
H	 2.102292	 -2.232611	 0.807957
H	 0.340066	 -2.416083	 0.832875

	symmetry c1
}
set optking {
	frozen_dihedral = ("
		11 4 2 3
	")
}

ee = optimize('scf')
oeprop('DIPOLE', 'QUADRUPOLE', 'MULLIKEN_CHARGES')
f=open( 'psi4out.xyz', 'w' )
f.write( "14  " )
f.write( str(ee) + "\n" )
f.write( MOL.save_string_xyz() )
f.close()
--------------------------------------------------------------------------

    Molecular point group: c1
  Charge       = 0
  Multiplicity = 1
  Basis Set: 6-31G*
  Basis Set:
  @DF-RHF Final Energy:  -305.84609947681906
    Total Energy =                       -305.8460994768191199
    Molecular point group: c1
  Basis Set: 6-31G*
  Basis Set:
  Basis Set: 6-31G*
  Basis Set:
  @DF-RHF Final Energy:  -305.84816287744138
    Total Energy =                       -305.8481628774415526
  Basis Set: 6-31G*
  Basis Set:
  Basis Set: 6-31G*
  Basis Set:
  @DF-RHF Final Energy:  -305.85228989603343
    Total Energy =                       -305.8522898960337670
  Basis Set: 6-31G*
  Basis Set:
  Basis Set: 6-31G*
  Basis Set:
  @DF-RHF Final Energy:  -305.85304079731407
    Total Energy =                       -305.8530407973138949
  Basis Set: 6-31G*
  Basis Set:
  @DF-RHF Final Energy:  -305.85308775325427
    Total Energy =                       -305.8530877532541012
  @DF-RHF Final Energy:  -305.85317852952693
    Total Energy =                       -305.8531785295268719
  @DF-RHF Final Energy:  -305.85321259088005
    Total Energy =                       -305.8532125908801618
  @DF-RHF Final Energy:  -305.85321742172061
    Total Energy =                       -305.8532174217206148
  Basis Set: 6-31G*
  Basis Set:
  @DF-RHF Final Energy:  -305.85321843848021
    Total Energy =                       -305.8532184384803259
  Basis Set: 6-31G*
  Basis Set:
  Basis Set: 6-31G*
  Basis Set:
  @DF-RHF Final Energy:  -305.85319077561564
    Total Energy =                       -305.8531907756155306
  Basis Set: 6-31G*
  Basis Set:
  Basis Set: 6-31G*
  Basis Set:
  @DF-RHF Final Energy:  -305.85321847698503
    Total Energy =                       -305.8532184769849778
  Basis Set: 6-31G*
  Basis Set:
  Charge       = 0
  Multiplicity = 1
  Basis Set: 6-31G*
  Basis Set:

    Orbital Energies (a.u.)
    -----------------------

    Doubly Occupied:

       1A    -20.594535     2A    -20.550000     3A    -11.374980
       4A    -11.296164     5A    -11.246701     6A    -11.220842
       7A     -1.461294     8A     -1.368374     9A     -1.062689
      10A     -0.982380    11A     -0.897661    12A     -0.767786
      13A     -0.702984    14A     -0.682035    15A     -0.673727
      16A     -0.628162    17A     -0.610113    18A     -0.560780
      19A     -0.547337    20A     -0.525191    21A     -0.512775
      22A     -0.492512    23A     -0.454801    24A     -0.435350

  @DF-RHF Final Energy:  -305.85321862108674

   => Energetics <=

    Nuclear Repulsion Energy =            247.0936987511940970
    One-Electron Energy =                -906.5954901111631443
    Two-Electron Energy =                 353.6485727388822511
    DFT Exchange-Correlation Energy =       0.0000000000000000
    Empirical Dispersion Energy =           0.0000000000000000
    PCM Polarization Energy =               0.0000000000000000
    EFP Energy =                            0.0000000000000000
    Total Energy =                       -305.8532186210867962
    Molecular point group: c1
  Basis Set: 6-31G*
  Basis Set:

  -Total Gradient:
     Atom            X                  Y                   Z
    ------   -----------------  -----------------  -----------------
       1       -0.000069394782     0.000004981096     0.000017371397
       2        0.000930558020     0.000912205963     0.005500040592
       3       -0.000080432586     0.000157173073    -0.002907774381
       4       -0.002226433659    -0.003100012818    -0.004757816067
       5       -0.000005508059    -0.000001827891    -0.000010377689
       6        0.000006715014     0.000004553339    -0.000004270980
       7        0.000006359713    -0.000008481077    -0.000013024116
       8       -0.000002577876     0.000001347427     0.000003169496
       9       -0.000004190611     0.000003458941     0.000001333977
      10       -0.000000013943    -0.000000234282     0.000000528063
      11        0.001441336392     0.002030673397     0.002165413373
      12       -0.000001481477     0.000002252565    -0.000001648619
      13        0.000002068376    -0.000003159199     0.000002869004
      14        0.000002995479    -0.000002930532     0.000004185950

  **** Optimization is complete! (in 12 steps) ****
    Final optimized geometry and variables:
    Molecular point group: c1

    Geometry (in Angstrom), charge = 0, multiplicity = 1:

    O            0.267755105840     1.527641350522    -0.145191674947
    C            0.206326720678     0.348187326773    -0.100753507357
    C           -1.096376429336    -0.426696091574    -0.100105458593
    O            1.330844161619    -0.386259885361    -0.160786068586
    C           -2.316431421474     0.471623962685    -0.267466021882
    H           -1.035973636665    -1.161168051168    -0.898433665120
    H           -1.172001166022    -0.993295967386     0.824287306659
    H           -2.269407931061     1.021007744415    -1.199414412237
    H           -3.221934448828    -0.125671041567    -0.266048284728
    H           -2.379892182751     1.193483505231     0.536961295660
    C            1.520705271649    -1.468539991751     0.722203995654
    H            1.366251401900    -1.163721390154     1.750723354271
    H            2.546141296872    -1.779365359525     0.597819494366
    H            0.868130563145    -2.300922789300     0.487299891056

  Mulliken Charges: (a.u.)
   Center  Symbol    Alpha    Beta     Spin     Total
       1     O     4.25654  4.25654  0.00000 -0.51309
       2     C     2.60955  2.60955  0.00000  0.78090
       3     C     3.22319  3.22319  0.00000 -0.44637
       4     O     4.30648  4.30648  0.00000 -0.61296
       5     C     3.23625  3.23625  0.00000 -0.47250
       6     H     0.40036  0.40036  0.00000  0.19927
       7     H     0.40581  0.40581  0.00000  0.18838
       8     H     0.40782  0.40782  0.00000  0.18436
       9     H     0.41848  0.41848  0.00000  0.16304
      10     H     0.40782  0.40782  0.00000  0.18435
      11     C     3.09455  3.09455  0.00000 -0.18910
      12     H     0.41548  0.41548  0.00000  0.16905
      13     H     0.39921  0.39921  0.00000  0.20157
      14     H     0.41845  0.41845  0.00000  0.16310

   Total alpha = 24.00000, Total beta = 24.00000, Total charge = -0.00000
