                              Psi4 1.0.54 Driver

  ==> Input File <==

--------------------------------------------------------------------------
set {
	reference rhf
	basis cc-pvtz
}

set_num_threads( 4 )
memory 2 gb

molecule MOL {
0 1

H	 2.739147	 0.852510	 2.257342
O	 1.817102	 0.710121	 2.371291
C	 1.186133	 0.612682	 1.184762
C	 1.859568	 0.716679	 -0.022860
C	 -0.177506	 0.402098	 1.197529
H	 2.921854	 0.880725	 -0.030962
C	 1.169093	 0.610050	 -1.213167
H	 -0.700480	 0.321336	 2.128560
C	 -0.861704	 0.296439	 0.000000
H	 1.700650	 0.692137	 -2.141354
C	 -0.195100	 0.399381	 -1.209076
C	 -2.330689	 0.069587	 0.000000
H	 -0.734706	 0.316051	 -2.133073
O	 -2.848621	 -0.993976	 0.000000
H	 -2.934306	 0.982410	 0.000000

	symmetry c1
}
set optking {
	frozen_dihedral = ("
		11 9 12 14
	")
}

ee,wfn = optimize('scf', return_wfn=True)
oeprop( wfn, 'DIPOLE', 'QUADRUPOLE', 'MULLIKEN_CHARGES')
f=open( 'psi4out.xyz', 'w' )
f.write( "15  " )
f.write( str(ee) + "\n" )
f.write( MOL.save_string_xyz() )
f.close()
--------------------------------------------------------------------------

    Molecular point group: c1
  Charge       = 0
  Multiplicity = 1
  Basis Set: CC-PVTZ
  Basis Set:
  @DF-RHF Final Energy:  -418.42689375951721
    Total Energy =                       -418.4268937595178386
    Molecular point group: c1
  Basis Set: CC-PVTZ
  Basis Set:
  Basis Set: CC-PVTZ
  Basis Set:
  @DF-RHF Final Energy:  -418.42710482945978
    Total Energy =                       -418.4271048294598359
  Basis Set: CC-PVTZ
  Basis Set:
  Basis Set: CC-PVTZ
  Basis Set:
  @DF-RHF Final Energy:  -418.42618655367215
    Total Energy =                       -418.4261865536724372
  Basis Set: CC-PVTZ
  Basis Set:
  Basis Set: CC-PVTZ
  Basis Set:
  @DF-RHF Final Energy:  -418.42722280162349
    Total Energy =                       -418.4272228016233157
  Basis Set: CC-PVTZ
  Basis Set:
  Basis Set: CC-PVTZ
  Basis Set:
  @DF-RHF Final Energy:  -418.42724290997666
    Total Energy =                       -418.4272429099767123
  Basis Set: CC-PVTZ
  Basis Set:
  Charge       = 0
  Multiplicity = 1
  Basis Set: CC-PVTZ
  Basis Set:

    Orbital Energies (a.u.)
    -----------------------

    Doubly Occupied:

       1A    -20.596677     2A    -20.564324     3A    -11.333380
       4A    -11.312417     5A    -11.256559     6A    -11.249489
       7A    -11.238595     8A    -11.237221     9A    -11.235986
      10A     -1.428592    11A     -1.418775    12A     -1.172027
      13A     -1.050996    14A     -1.026910    15A     -0.901660
      16A     -0.845484    17A     -0.821285    18A     -0.742891
      19A     -0.703285    20A     -0.679947    21A     -0.669329
      22A     -0.643660    23A     -0.616272    24A     -0.607568
      25A     -0.587149    26A     -0.546439    27A     -0.534699
      28A     -0.515430    29A     -0.498557    30A     -0.426686
      31A     -0.357497    32A     -0.328517

  @DF-RHF Final Energy:  -418.42724382845313

   => Energetics <=

    Nuclear Repulsion Energy =            402.8202708144372082
    One-Electron Energy =               -1368.1984308536634671
    Two-Electron Energy =                 546.9509162107730162
    DFT Exchange-Correlation Energy =       0.0000000000000000
    Empirical Dispersion Energy =           0.0000000000000000
    PCM Polarization Energy =               0.0000000000000000
    EFP Energy =                            0.0000000000000000
    Total Energy =                       -418.4272438284532427
    Molecular point group: c1
  Basis Set: CC-PVTZ
  Basis Set:

  -Total Gradient:
     Atom            X                  Y                   Z
    ------   -----------------  -----------------  -----------------
       1       -0.000000451605     0.000015204383     0.000004815889
       2        0.000025747118     0.000020786654    -0.000011038559
       3       -0.000181369437    -0.000129987268     0.000117604356
       4        0.000003509140     0.000017925322    -0.000228912575
       5        0.000131225687     0.000065690723     0.000081602995
       6       -0.000003084941     0.000006270241     0.000015124022
       7        0.000196892794     0.000024518352     0.000122710342
       8       -0.000000492564    -0.000001885206    -0.000000918418
       9        0.000109851732    -0.000254849055    -0.000072164761
      10       -0.000009005087     0.000000326263    -0.000012175287
      11       -0.000229764983     0.000175462554     0.000091332179
      12       -0.000121986295     0.000030838947    -0.000362975228
      13        0.000016132267    -0.000002375918     0.000000241546
      14        0.000026206434     0.000040468329     0.000247401268
      15        0.000036589744    -0.000008394323     0.000007352230

  **** Optimization is complete! (in 6 steps) ****
    Final optimized geometry and variables:
    Molecular point group: c1

    Geometry (in Angstrom), charge = 0, multiplicity = 1:

    H            2.780519033982     0.539344840252     1.959266282607
    O            1.855559693403     0.409444518573     2.066753936419
    C            1.237142658597     0.312417762541     0.875142287187
    C            1.915221771297     0.419227015722    -0.325306159998
    C           -0.130780280641     0.098610910229     0.883639908560
    H            2.976824993483     0.585845017617    -0.331728530472
    C            1.220480171073     0.309371047664    -1.514400159451
    H           -0.637589969714     0.013585980087     1.825216540395
    C           -0.810371683272    -0.014506274524    -0.311370383326
    H            1.751718078091     0.390017742054    -2.443330339300
    C           -0.142341941606     0.095694549313    -1.519929744389
    C           -2.295770350954    -0.229591970488    -0.296759841419
    H           -0.674303112877     0.005055529802    -2.446942917165
    O           -2.808455714404    -1.292621759304    -0.301192316620
    H           -2.904408615449     0.680491676478    -0.281230020364

  Mulliken Charges: (a.u.)
   Center  Symbol    Alpha    Beta     Spin     Total
       1     H     0.38624  0.38624  0.00000  0.22751
       2     O     4.17142  4.17142  0.00000 -0.34284
       3     C     2.83587  2.83587  0.00000  0.32825
       4     C     3.14189  3.14189  0.00000 -0.28378
       5     C     3.13576  3.13576  0.00000 -0.27153
       6     H     0.43267  0.43267  0.00000  0.13466
       7     C     3.05277  3.05277  0.00000 -0.10555
       8     H     0.41833  0.41833  0.00000  0.16333
       9     C     2.91822  2.91822  0.00000  0.16356
      10     H     0.41973  0.41973  0.00000  0.16055
      11     C     3.12063  3.12063  0.00000 -0.24127
      12     C     2.93066  2.93066  0.00000  0.13867
      13     H     0.42326  0.42326  0.00000  0.15347
      14     O     4.15474  4.15474  0.00000 -0.30948
      15     H     0.45779  0.45779  0.00000  0.08442

   Total alpha = 32.00000, Total beta = 32.00000, Total charge =  0.00000

*** Psi4 exiting successfully. Buy a developer a beer!
