  ==> Input File <==

--------------------------------------------------------------------------
set {
	reference rhf
	basis 6-31G*
}

set_num_threads( 4 )
memory 2 gb

molecule MOL {
0 1

O	 -0.682937	 1.318834	 -0.186099
C	 -0.860635	 0.152188	 -0.042321
C	 -2.173363	 -0.477127	 0.338347
O	 0.083258	 -0.765189	 -0.202595
H	 -2.477673	 -1.180929	 -0.427595
H	 -2.923125	 0.290956	 0.455536
H	 -2.058825	 -1.029004	 1.264191
C	 0.408394	 -1.179386	 -1.527557
C	 1.400258	 -0.233390	 -2.178667
H	 -0.498558	 -1.257110	 -2.107676
H	 0.835118	 -2.164644	 -1.406420
H	 1.685601	 -0.615031	 -3.154198
H	 0.965796	 0.749394	 -2.311879
H	 2.295445	 -0.143200	 -1.572927

	symmetry c1
}
set optking {
	frozen_dihedral = ("
		8 4 2 1
	")
}

ee = optimize('scf')
oeprop('DIPOLE', 'QUADRUPOLE', 'MULLIKEN_CHARGES')
f=open( 'psi4out.xyz', 'w' )
f.write( "14  " )
f.write( str(ee) + "\n" )
f.write( MOL.save_string_xyz() )
f.close()
--------------------------------------------------------------------------

    Molecular point group: c1
  Charge       = 0
  Multiplicity = 1
  Basis Set: 6-31G*
  Basis Set:
  @DF-RHF Final Energy:  -305.85536969223199
    Total Energy =                       -305.8553696922319887
    Molecular point group: c1
  Basis Set: 6-31G*
  Basis Set:
  Basis Set: 6-31G*
  Basis Set:
  @DF-RHF Final Energy:  -305.85384237964081
    Total Energy =                       -305.8538423796409234
  Basis Set: 6-31G*
  Basis Set:
  Basis Set: 6-31G*
  Basis Set:
  @DF-RHF Final Energy:  -305.85635442807404
    Total Energy =                       -305.8563544280740985
  Basis Set: 6-31G*
  Basis Set:
  Basis Set: 6-31G*
  Basis Set:
  @DF-RHF Final Energy:  -305.85662577085054
    Total Energy =                       -305.8566257708505987
  Basis Set: 6-31G*
  Basis Set:
  Basis Set: 6-31G*
  Basis Set:
  @DF-RHF Final Energy:  -305.85663262120534
    Total Energy =                       -305.8566326212053355
  Basis Set: 6-31G*
  Basis Set:
  Charge       = 0
  Multiplicity = 1
  Basis Set: 6-31G*
  Basis Set:

    Orbital Energies (a.u.)
    -----------------------

    Doubly Occupied:

       1A    -20.583720     2A    -20.557121     3A    -11.378375
       4A    -11.296420     5A    -11.236887     6A    -11.217040
       7A     -1.458385     8A     -1.366567     9A     -1.047743
      10A     -1.004549    11A     -0.881265    12A     -0.769918
      13A     -0.692617    14A     -0.680984    15A     -0.664120
      16A     -0.606573    17A     -0.590207    18A     -0.580090
      19A     -0.556756    20A     -0.539171    21A     -0.513270
      22A     -0.487886    23A     -0.451002    24A     -0.436911

  @DF-RHF Final Energy:  -305.85663344401064

   => Energetics <=

    Nuclear Repulsion Energy =            247.6367883237926151
    One-Electron Energy =                -907.7916920606729718
    Two-Electron Energy =                 354.2982702928695744
    DFT Exchange-Correlation Energy =       0.0000000000000000
    Empirical Dispersion Energy =           0.0000000000000000
    PCM Polarization Energy =               0.0000000000000000
    EFP Energy =                            0.0000000000000000
    Total Energy =                       -305.8566334440107539
    Molecular point group: c1
  Basis Set: 6-31G*
  Basis Set:

  -Total Gradient:
     Atom            X                  Y                   Z
    ------   -----------------  -----------------  -----------------
       1        0.001006425406     0.000379083460     0.004341739611
       2       -0.002583895951    -0.001949279251    -0.006334796592
       3        0.000014154369     0.000020439726     0.000025959702
       4        0.004033624834     0.004113377583     0.001783132968
       5        0.000006214635     0.000004771966    -0.000007182166
       6       -0.000023457881     0.000000474629     0.000000881365
       7       -0.000004028122     0.000000505363    -0.000024499925
       8       -0.002442845852    -0.002579456504     0.000148368419
       9       -0.000011446662     0.000010815378     0.000027850097
      10       -0.000005746151    -0.000010748292     0.000000106223
      11       -0.000004491271    -0.000000346831     0.000031813735
      12       -0.000011046227    -0.000005171843     0.000018253967
      13        0.000008706829     0.000004990049    -0.000008078059
      14        0.000017832042     0.000010544563    -0.000003549345

  **** Optimization is complete! (in 6 steps) ****
    Final optimized geometry and variables:
    Molecular point group: c1

    Geometry (in Angstrom), charge = 0, multiplicity = 1:

    O           -0.415755764727     1.500356969089     0.425800964939
    C           -0.593309076110     0.340824275014     0.575087023383
    C           -1.892258523553    -0.270198796599     1.027227881386
    O            0.392278470094    -0.570394862155     0.431968761180
    H           -2.224943324453    -1.010141755509     0.306711675985
    H           -2.645429500884     0.494589514165     1.146526156447
    H           -1.732739933838    -0.786038566877     1.967574736105
    C            0.737046393833    -0.968487944722    -0.891415390432
    C            1.747428370685    -0.030228668219    -1.525501749511
    H           -0.162942613842    -1.038517723543    -1.495359801501
    H            1.144290521494    -1.963894836933    -0.788017895426
    H            2.022278133563    -0.396514148154    -2.510502720008
    H            1.343561363622     0.968874142134    -1.625709208378
    H            2.641539258073     0.023092022469    -0.915321705322

  Mulliken Charges: (a.u.)
   Center  Symbol    Alpha    Beta     Spin     Total
       1     O     4.25310  4.25310  0.00000 -0.50620
       2     C     2.62808  2.62808  0.00000  0.74385
       3     C     3.28358  3.28358  0.00000 -0.56717
       4     O     4.31748  4.31748  0.00000 -0.63495
       5     H     0.40686  0.40686  0.00000  0.18627
       6     H     0.39766  0.39766  0.00000  0.20468
       7     H     0.39740  0.39740  0.00000  0.20519
       8     C     3.00624  3.00624  0.00000 -0.01247
       9     C     3.24778  3.24778  0.00000 -0.49555
      10     H     0.42255  0.42255  0.00000  0.15491
      11     H     0.40689  0.40689  0.00000  0.18621
      12     H     0.42198  0.42198  0.00000  0.15604
      13     H     0.40073  0.40073  0.00000  0.19853
      14     H     0.40966  0.40966  0.00000  0.18067

   Total alpha = 24.00000, Total beta = 24.00000, Total charge =  0.00000
