  ==> Input File <==

--------------------------------------------------------------------------
set {
	reference rhf
	basis 6-31G*
}

set_num_threads( 4 )
memory 2 gb

molecule MOL {
0 1

H	 -0.923598	 -1.264880	 0.096107
N	 -1.172117	 -0.314371	 -0.100254
C	 -0.024542	 0.565565	 0.069209
H	 -1.496233	 -0.289328	 -1.048620
C	 1.271298	 -0.229563	 -0.014192
H	 -0.049409	 1.297310	 -0.731596
H	 -0.046881	 1.125219	 1.006750
H	 1.332152	 -0.753033	 -0.961461
H	 2.134169	 0.422483	 0.080702
H	 1.326077	 -0.968298	 0.781395

	symmetry c1
}
set optking {
	frozen_dihedral = ("
		1 2 3 6
	")
}

ee = optimize('scf')
oeprop('DIPOLE', 'QUADRUPOLE', 'MULLIKEN_CHARGES')
f=open( 'psi4out.xyz', 'w' )
f.write( "10  " )
f.write( str(ee) + "\n" )
f.write( MOL.save_string_xyz() )
f.close()
--------------------------------------------------------------------------

    Molecular point group: c1
  Charge       = 0
  Multiplicity = 1
  Basis Set: 6-31G*
  Basis Set:
  @DF-RHF Final Energy:  -134.24285881853325
    Total Energy =                       -134.2428588185332217
    Molecular point group: c1
  Basis Set: 6-31G*
  Basis Set:
  Basis Set: 6-31G*
  Basis Set:
  @DF-RHF Final Energy:  -134.24404998100164
    Total Energy =                       -134.2440499810016092
  Basis Set: 6-31G*
  Basis Set:
  Basis Set: 6-31G*
  Basis Set:
  @DF-RHF Final Energy:  -134.24424129825272
    Total Energy =                       -134.2442412982528310
  Basis Set: 6-31G*
  Basis Set:
  Basis Set: 6-31G*
  Basis Set:
  @DF-RHF Final Energy:  -134.24424311757105
    Total Energy =                       -134.2442431175709601
  Basis Set: 6-31G*
  Basis Set:
  Charge       = 0
  Multiplicity = 1
  Basis Set: 6-31G*
  Basis Set:

    Orbital Energies (a.u.)
    -----------------------

    Doubly Occupied:

       1A    -15.531749     2A    -11.242970     3A    -11.213058
       4A     -1.174979     5A     -0.989343     6A     -0.831846
       7A     -0.667852     8A     -0.602818     9A     -0.590919
      10A     -0.542924    11A     -0.506988    12A     -0.487091
      13A     -0.379426

  @DF-RHF Final Energy:  -134.24424343423942

   => Energetics <=

    Nuclear Repulsion Energy =             83.1810370346139365
    One-Electron Energy =                -345.3266348791464679
    Two-Electron Energy =                 127.9013544102930524
    DFT Exchange-Correlation Energy =       0.0000000000000000
    Empirical Dispersion Energy =           0.0000000000000000
    PCM Polarization Energy =               0.0000000000000000
    EFP Energy =                            0.0000000000000000
    Total Energy =                       -134.2442434342394790
    Molecular point group: c1
  Basis Set: 6-31G*
  Basis Set:

  -Total Gradient:
     Atom            X                  Y                   Z
    ------   -----------------  -----------------  -----------------
       1        0.000678519674    -0.000467634897    -0.003096738197
       2       -0.000453688171     0.000158742762     0.003463092863
       3       -0.001728277415     0.002100089967     0.001327037799
       4        0.000005092685     0.000014758232     0.000000435412
       5       -0.000028637981     0.000001275187     0.000016431691
       6        0.001497729624    -0.001836109613    -0.001725909848
       7        0.000023579575    -0.000000657366     0.000011785554
       8       -0.000013201307     0.000013380279     0.000020320326
       9        0.000023613091     0.000016576711     0.000002077878
      10       -0.000004729775    -0.000000421263    -0.000018533477

  **** Optimization is complete! (in 5 steps) ****
    Final optimized geometry and variables:
    Molecular point group: c1

    Geometry (in Angstrom), charge = 0, multiplicity = 1:

    H           -1.006229567953    -1.240538617342     0.141848396068
    N           -1.223490824688    -0.281461771966    -0.049239128451
    C           -0.035935898646     0.561194348183     0.083022019724
    H           -1.568703170892    -0.258826921813    -0.988190685906
    C            1.283170329913    -0.206951193695     0.018557054068
    H           -0.045257143916     1.298144813711    -0.713586950682
    H           -0.088495509523     1.105280284324     1.020757364826
    H            1.390738864960    -0.718409567428    -0.934074249646
    H            2.131200307743     0.460458861631     0.140745835896
    H            1.335749586381    -0.953292959104     0.807161357562

  Mulliken Charges: (a.u.)
   Center  Symbol    Alpha    Beta     Spin     Total
       1     H     0.33336  0.33336  0.00000  0.33327
       2     N     3.92352  3.92352  0.00000 -0.84705
       3     C     3.05588  3.05588  0.00000 -0.11177
       4     H     0.33312  0.33312  0.00000  0.33376
       5     C     3.24999  3.24999  0.00000 -0.49997
       6     H     0.42339  0.42339  0.00000  0.15322
       7     H     0.41773  0.41773  0.00000  0.16455
       8     H     0.42287  0.42287  0.00000  0.15426
       9     H     0.41909  0.41909  0.00000  0.16182
      10     H     0.42104  0.42104  0.00000  0.15791

   Total alpha = 13.00000, Total beta = 13.00000, Total charge = -0.00000
