  ==> Input File <==

--------------------------------------------------------------------------
set {
	reference rhf
	basis 6-31G*
}

set_num_threads( 4 )
memory 2 gb

molecule MOL {
0 1

O	 0.749854	 1.307668	 -0.000040
C	 0.576249	 0.131685	 -0.000108
C	 -0.766779	 -0.556801	 -0.000461
O	 1.568443	 -0.749345	 -0.000005
C	 -1.945214	 0.412366	 0.000161
H	 -0.796911	 -1.211249	 -0.867467
H	 -0.796854	 -1.212390	 0.865687
C	 -3.287791	 -0.317055	 0.000105
H	 -1.876087	 1.060580	 -0.866812
H	 -1.875822	 1.059691	 0.867761
H	 -3.394745	 -0.949193	 -0.877058
H	 -4.111778	 0.388953	 0.000015
H	 -3.394954	 -0.949187	 0.877259
C	 2.048831	 -1.176112	 1.261860
H	 2.430809	 -0.337685	 1.826374
H	 2.840610	 -1.878735	 1.053836
H	 1.261594	 -1.655149	 1.826033

	symmetry c1
}
set optking {
	frozen_dihedral = ("
		14 4 2 1
	")
}

ee = optimize('scf')
oeprop('DIPOLE', 'QUADRUPOLE', 'MULLIKEN_CHARGES')
f=open( 'psi4out.xyz', 'w' )
f.write( "17  " )
f.write( str(ee) + "\n" )
f.write( MOL.save_string_xyz() )
f.close()
--------------------------------------------------------------------------

    Molecular point group: c1
  Charge       = 0
  Multiplicity = 1
  Basis Set: 6-31G*
  Basis Set:
  @DF-RHF Final Energy:  -344.88516838968934
    Total Energy =                       -344.8851683896893974
    Molecular point group: c1
  Basis Set: 6-31G*
  Basis Set:
  Basis Set: 6-31G*
  Basis Set:
  @DF-RHF Final Energy:  -344.88356997966412
    Total Energy =                       -344.8835699796638892
  Basis Set: 6-31G*
  Basis Set:
  Basis Set: 6-31G*
  Basis Set:
  @DF-RHF Final Energy:  -344.88618441263014
    Total Energy =                       -344.8861844126299729
  Basis Set: 6-31G*
  Basis Set:
  Basis Set: 6-31G*
  Basis Set:
  @DF-RHF Final Energy:  -344.88672326459624
    Total Energy =                       -344.8867232645960712
  Basis Set: 6-31G*
  Basis Set:
  Basis Set: 6-31G*
  Basis Set:
  @DF-RHF Final Energy:  -344.88673942203951
    Total Energy =                       -344.8867394220393408
  Basis Set: 6-31G*
  Basis Set:
  Basis Set: 6-31G*
  Basis Set:
  @DF-RHF Final Energy:  -344.88674168897262
    Total Energy =                       -344.8867416889725064
  Basis Set: 6-31G*
  Basis Set:
  Charge       = 0
  Multiplicity = 1
  Basis Set: 6-31G*
  Basis Set:

    Orbital Energies (a.u.)
    -----------------------

    Doubly Occupied:

       1A    -20.585676     2A    -20.558090     3A    -11.375618
       4A    -11.292207     5A    -11.240490     6A    -11.225061
       7A    -11.217258     8A     -1.459303     9A     -1.367925
      10A     -1.081500    11A     -0.991517    12A     -0.952536
      13A     -0.834501    14A     -0.765690    15A     -0.699279
      16A     -0.679054    17A     -0.673192    18A     -0.634577
      19A     -0.618266    20A     -0.578812    21A     -0.566095
      22A     -0.540274    23A     -0.518546    24A     -0.494763
      25A     -0.492208    26A     -0.481838    27A     -0.454043
      28A     -0.435674

  @DF-RHF Final Energy:  -344.88674183734230

   => Energetics <=

    Nuclear Repulsion Energy =            312.3908116058182145
    One-Electron Energy =               -1088.9271187139624999
    Two-Electron Energy =                 431.6495652708018724
    DFT Exchange-Correlation Energy =       0.0000000000000000
    Empirical Dispersion Energy =           0.0000000000000000
    PCM Polarization Energy =               0.0000000000000000
    EFP Energy =                            0.0000000000000000
    Total Energy =                       -344.8867418373423561
    Molecular point group: c1
  Basis Set: 6-31G*
  Basis Set:

  -Total Gradient:
     Atom            X                  Y                   Z
    ------   -----------------  -----------------  -----------------
       1       -0.000107723071    -0.000162200292    -0.003223445637
       2       -0.000686387884    -0.000674475164     0.004713979833
       3       -0.000006634015     0.000002675241     0.000014655762
       4        0.002522052072     0.002815798144    -0.001642325648
       5       -0.000004266380    -0.000008641493     0.000012789940
       6       -0.000003119562    -0.000004858129     0.000007674007
       7       -0.000002050818    -0.000000651871     0.000009462976
       8        0.000008813709    -0.000003892836    -0.000004630172
       9       -0.000001848429     0.000005388764    -0.000004989151
      10        0.000003369080    -0.000001625353     0.000001824021
      11        0.000002131747    -0.000002380692     0.000001841776
      12        0.000005778990     0.000002633702    -0.000002448869
      13       -0.000001786273     0.000001930088     0.000002384415
      14       -0.001730062747    -0.001964574977     0.000111543792
      15        0.000004444019     0.000002002411     0.000008630922
      16        0.000001603439    -0.000004756847    -0.000002711606
      17       -0.000004313883    -0.000002370701    -0.000004236360

  **** Optimization is complete! (in 7 steps) ****
    Final optimized geometry and variables:
    Molecular point group: c1

    Geometry (in Angstrom), charge = 0, multiplicity = 1:

    O            0.878485598974     1.415945733612    -0.230896673162
    C            0.690182828546     0.250971779966    -0.176085988902
    C           -0.668004006232    -0.407666941381    -0.193278215957
    O            1.715044848419    -0.634627134085    -0.177442555290
    C           -1.833386069881     0.576753797580    -0.181423834593
    H           -0.696159028616    -1.040118869170    -1.077435458984
    H           -0.724459702765    -1.089528900629     0.652288719669
    C           -3.186484060239    -0.132029484319    -0.215414006694
    H           -1.743152747334     1.244511787983    -1.031062680527
    H           -1.765731738100     1.201976378864     0.702980045710
    H           -3.291537779548    -0.740625481904    -1.109181753088
    H           -3.999714202978     0.586168892656    -0.208260875587
    H           -3.314510187930    -0.783740038280     0.644553162986
    C            2.243189333150    -0.999307505192     1.079350046398
    H            2.623912187536    -0.129827647645     1.601072399832
    H            3.051878502819    -1.686522098787     0.885613230141
    H            1.495647539263    -1.493317686812     1.691473498208

  Mulliken Charges: (a.u.)
   Center  Symbol    Alpha    Beta     Spin     Total
       1     O     4.25153  4.25153  0.00000 -0.50307
       2     C     2.61465  2.61465  0.00000  0.77071
       3     C     3.21108  3.21108  0.00000 -0.42216
       4     O     4.31571  4.31571  0.00000 -0.63143
       5     C     3.15239  3.15239  0.00000 -0.30477
       6     H     0.39787  0.39787  0.00000  0.20427
       7     H     0.40836  0.40836  0.00000  0.18328
       8     C     3.24271  3.24271  0.00000 -0.48541
       9     H     0.40825  0.40825  0.00000  0.18349
      10     H     0.41276  0.41276  0.00000  0.17448
      11     H     0.42051  0.42051  0.00000  0.15898
      12     H     0.41448  0.41448  0.00000  0.17105
      13     H     0.42215  0.42215  0.00000  0.15570
      14     C     3.09296  3.09296  0.00000 -0.18592
      15     H     0.40926  0.40926  0.00000  0.18149
      16     H     0.40240  0.40240  0.00000  0.19521
      17     H     0.42295  0.42295  0.00000  0.15411

   Total alpha = 28.00000, Total beta = 28.00000, Total charge =  0.00000
