  ==> Input File <==

--------------------------------------------------------------------------
set {
	reference rhf
	basis cc-pvtz
}

set_num_threads( 4 )
memory 2 gb

molecule MOL {
0 1

H	 -3.034039	 -0.667848	 0.004703
O	 -2.240597	 -1.171748	 0.000934
C	 -1.159675	 -0.364500	 0.000370
C	 -1.252481	 0.996936	 0.206021
C	 0.074599	 -0.956553	 -0.218935
H	 -2.208487	 1.458254	 0.374239
C	 -0.097162	 1.759272	 0.188471
H	 0.111898	 -2.016912	 -0.377623
C	 1.225897	 -0.195190	 -0.233750
H	 -0.165663	 2.819248	 0.345089
C	 1.131419	 1.177819	 -0.029037
C	 2.570761	 -0.842355	 -0.448602
H	 2.017356	 1.783959	 -0.042143
H	 3.178293	 -0.259434	 -1.129725
H	 2.468021	 -1.839202	 -0.855402
H	 3.111731	 -0.919223	 0.488460

	symmetry c1
}
set optking {
	frozen_dihedral = ("
		5 3 2 1
	")
}

ee = optimize('scf')
oeprop('DIPOLE', 'QUADRUPOLE', 'MULLIKEN_CHARGES')
f=open( 'psi4out.xyz', 'w' )
f.write( "16  " )
f.write( str(ee) + "\n" )
f.write( MOL.save_string_xyz() )
f.close()
--------------------------------------------------------------------------

    Molecular point group: c1
  Charge       = 0
  Multiplicity = 1
  Basis Set: CC-PVTZ
  Basis Set:
  @DF-RHF Final Energy:  -344.72067251825661
    Total Energy =                       -344.7206725182563787
    Molecular point group: c1
  Basis Set: CC-PVTZ
  Basis Set:
  Basis Set: CC-PVTZ
  Basis Set:
  @DF-RHF Final Energy:  -344.72067526770542
    Total Energy =                       -344.7206752677050190
  Basis Set: CC-PVTZ
  Basis Set:
  Charge       = 0
  Multiplicity = 1
  Basis Set: CC-PVTZ
  Basis Set:

    Orbital Energies (a.u.)
    -----------------------

    Doubly Occupied:

       1A    -20.582685     2A    -11.295012     3A    -11.240572
       4A    -11.232776     5A    -11.219738     6A    -11.218908
       7A    -11.213924     8A    -11.212885     9A     -1.413332
      10A     -1.154089    11A     -1.046244    12A     -1.008592
      13A     -0.938663    14A     -0.828454    15A     -0.826397
      16A     -0.717553    17A     -0.684535    18A     -0.657513
      19A     -0.611021    20A     -0.596089    21A     -0.574220
      22A     -0.571510    23A     -0.569066    24A     -0.534100
      25A     -0.507160    26A     -0.484524    27A     -0.472679
      28A     -0.333457    29A     -0.310530

  @DF-RHF Final Energy:  -344.72067591051098

   => Energetics <=

    Nuclear Repulsion Energy =            346.4043619997472661
    One-Electron Energy =               -1154.1376277600993490
    Two-Electron Energy =                 463.0125898498413335
    DFT Exchange-Correlation Energy =       0.0000000000000000
    Empirical Dispersion Energy =           0.0000000000000000
    PCM Polarization Energy =               0.0000000000000000
    EFP Energy =                            0.0000000000000000
    Total Energy =                       -344.7206759105107494
    Molecular point group: c1
  Basis Set: CC-PVTZ
  Basis Set:

  -Total Gradient:
     Atom            X                  Y                   Z
    ------   -----------------  -----------------  -----------------
       1       -0.000010791474    -0.000000464608    -0.001057884500
       2       -0.000012038996     0.000070579421     0.000982503054
       3        0.000059230679    -0.000165241183     0.000846616081
       4       -0.000012089298    -0.000017146248    -0.000053342800
       5       -0.000024507980     0.000124900933    -0.000727354698
       6        0.000003805542    -0.000001298782     0.000010606941
       7        0.000033585862    -0.000008072136     0.000028886063
       8       -0.000004198696     0.000001423160    -0.000009753800
       9       -0.000024251645    -0.000026746161    -0.000055642291
      10       -0.000004849153     0.000002573962    -0.000005405617
      11       -0.000011987928     0.000026130691     0.000019062152
      12        0.000007039519    -0.000003418392     0.000021780237
      13       -0.000001508671    -0.000002783448    -0.000003113611
      14       -0.000004854537     0.000002726383     0.000002066092
      15       -0.000001986135     0.000002150692     0.000000266525
      16        0.000009402913    -0.000005314285     0.000000710171

  **** Optimization is complete! (in 3 steps) ****
    Final optimized geometry and variables:
    Molecular point group: c1

    Geometry (in Angstrom), charge = 0, multiplicity = 1:

    H           -3.030724610088    -0.672483620040     0.078969240732
    O           -2.237435728119    -1.176694315169     0.073723935189
    C           -1.155841187746    -0.369457408403     0.070624835546
    C           -1.248882846451     0.992086540093     0.275136462733
    C            0.078158945386    -0.961015186608    -0.150946564621
    H           -2.204621969262     1.452448041877     0.447118483333
    C           -0.093740449200     1.754598833755     0.257010777143
    H            0.115036441711    -2.020858306493    -0.313149333105
    C            1.229919305154    -0.200142127896    -0.162532853262
    H           -0.162368730006     2.814681087426     0.412865519856
    C            1.135161879244     1.172781002497     0.041942890536
    C            2.574861648424    -0.847281491463    -0.376953664341
    H            2.021163370929     1.778863878160     0.029797841024
    H            3.182841023907    -0.264266594992    -1.057614659715
    H            2.472179006511    -1.844026448451    -0.784055835849
    H            3.115334524292    -0.924577172272     0.560374170274

  Mulliken Charges: (a.u.)
   Center  Symbol    Alpha    Beta     Spin     Total
       1     H     0.38717  0.38717  0.00000  0.22566
       2     O     4.17577  4.17577  0.00000 -0.35155
       3     C     2.83667  2.83667  0.00000  0.32667
       4     C     3.14856  3.14856  0.00000 -0.29713
       5     C     3.14114  3.14114  0.00000 -0.28227
       6     H     0.43488  0.43488  0.00000  0.13024
       7     C     3.05701  3.05701  0.00000 -0.11402
       8     H     0.42213  0.42213  0.00000  0.15575
       9     C     2.93512  2.93512  0.00000  0.12975
      10     H     0.42294  0.42294  0.00000  0.15412
      11     C     3.11878  3.11878  0.00000 -0.23756
      12     C     3.14645  3.14645  0.00000 -0.29289
      13     H     0.42789  0.42789  0.00000  0.14421
      14     H     0.44843  0.44843  0.00000  0.10313
      15     H     0.45023  0.45023  0.00000  0.09955
      16     H     0.44683  0.44683  0.00000  0.10634

   Total alpha = 29.00000, Total beta = 29.00000, Total charge = -0.00000
