                              Psi4 1.0.54 Driver

  ==> Input File <==

--------------------------------------------------------------------------
set {
	reference rhf
	basis cc-pvtz
}

set_num_threads( 4 )
memory 2 gb

molecule MOL {
0 1

H	 -0.000105	 1.988470	 0.748971
O	 -0.000098	 1.879727	 -0.188168
C	 -0.000014	 0.545632	 -0.532378
C	 -1.286000	 -0.125230	 -0.046619
C	 1.286016	 -0.125090	 -0.046546
H	 0.000021	 0.481044	 -1.610566
F	 -2.317767	 0.468419	 -0.594248
F	 -1.336453	 -1.393965	 -0.365175
F	 -1.414528	 -0.025033	 1.259067
F	 2.317750	 0.468658	 -0.594128
F	 1.336617	 -1.393824	 -0.365085
F	 1.414467	 -0.024865	 1.259146

	symmetry c1
}
ee,wfn = energy('scf', return_wfn=True)
oeprop( wfn, 'DIPOLE', 'QUADRUPOLE', 'MULLIKEN_CHARGES')
oeprop( wfn, 'GRID_ESP')
f=open( 'psi4out.xyz', 'w' )
f.write( "12  " )
f.write( str(ee) + "\n" )
f.write( MOL.save_string_xyz() )
f.close()
--------------------------------------------------------------------------

    Molecular point group: c1

    Geometry (in Angstrom), charge = 0, multiplicity = 1:

       Center              X                  Y                   Z               Mass
    ------------   -----------------  -----------------  -----------------  -----------------
           H         -0.000105033951     1.988528929728     0.748932776967     1.007825032070
           O         -0.000098033951     1.879785929728    -0.188206223033    15.994914619560
           C         -0.000014033951     0.545690929728    -0.532416223033    12.000000000000
           C         -1.286000033951    -0.125171070272    -0.046657223033    12.000000000000
           C          1.286015966049    -0.125031070272    -0.046584223033    12.000000000000
           H          0.000020966049     0.481102929728    -1.610604223033     1.007825032070
           F         -2.317767033951     0.468477929728    -0.594286223033    18.998403224000
           F         -1.336453033951    -1.393906070272    -0.365213223033    18.998403224000
           F         -1.414528033951    -0.024974070272     1.259028776967    18.998403224000
           F          2.317749966049     0.468716929728    -0.594166223033    18.998403224000
           F          1.336616966049    -1.393765070272    -0.365123223033    18.998403224000
           F          1.414466966049    -0.024806070272     1.259107776967    18.998403224000

  Charge       = 0
  Multiplicity = 1
  Basis Set: CC-PVTZ
  Basis Set:

    Orbital Energies (a.u.)
    -----------------------

    Doubly Occupied:

       1A    -26.358439     2A    -26.358437     3A    -26.357250
       4A    -26.357246     5A    -26.353758     6A    -26.353757
       7A    -20.610017     8A    -11.519743     9A    -11.519734
      10A    -11.351668    11A     -1.771971    12A     -1.766479
      13A     -1.667722    14A     -1.663334    15A     -1.663034
      16A     -1.660971    17A     -1.439967    18A     -1.103131
      19A     -1.001906    20A     -0.945376    21A     -0.870837
      22A     -0.869069    23A     -0.859405    24A     -0.852216
      25A     -0.839894    26A     -0.822226    27A     -0.749702
      28A     -0.733962    29A     -0.731503    30A     -0.725481
      31A     -0.696267    32A     -0.691752    33A     -0.690248
      34A     -0.681631    35A     -0.677604    36A     -0.669298
      37A     -0.663400    38A     -0.657998    39A     -0.625471
      40A     -0.554088    41A     -0.510353

  @DF-RHF Final Energy:  -786.58951679019970

   => Energetics <=

    Nuclear Repulsion Energy =            670.8233888029315040
    One-Electron Energy =               -2428.8333582472423586
    Two-Electron Energy =                 971.4204526541107043
    DFT Exchange-Correlation Energy =       0.0000000000000000
    Empirical Dispersion Energy =           0.0000000000000000
    PCM Polarization Energy =               0.0000000000000000
    EFP Energy =                            0.0000000000000000
    Total Energy =                       -786.5895167902001504

  Mulliken Charges: (a.u.)
   Center  Symbol    Alpha    Beta     Spin     Total
       1     H     0.38122  0.38122  0.00000  0.23757
       2     O     4.18994  4.18994  0.00000 -0.37987
       3     C     3.00496  3.00496  0.00000 -0.00993
       4     C     2.68545  2.68545  0.00000  0.62910
       5     C     2.68545  2.68545  0.00000  0.62910
       6     H     0.42415  0.42415  0.00000  0.15170
       7     F     4.60198  4.60198  0.00000 -0.20395
       8     F     4.60234  4.60234  0.00000 -0.20468
       9     F     4.61011  4.61011  0.00000 -0.22021
      10     F     4.60198  4.60198  0.00000 -0.20395
      11     F     4.60234  4.60234  0.00000 -0.20467
      12     F     4.61011  4.61011  0.00000 -0.22021

   Total alpha = 41.00000, Total beta = 41.00000, Total charge = -0.00000

*** Psi4 exiting successfully. Buy a developer a beer!
