                              Psi4 1.0.54 Driver

  ==> Input File <==

--------------------------------------------------------------------------
set {
	reference rhf
	basis cc-pvtz
}

set_num_threads( 4 )
memory 2 gb

molecule MOL {
0 1

O	 0.571025	 1.288175	 -0.383953
C	 0.485107	 0.171416	 -0.000134
C	 1.606966	 -0.836201	 0.000174
O	 -0.628156	 -0.347218	 0.487973
C	 2.988788	 -0.202529	 -0.000115
H	 1.465110	 -1.474645	 -0.864821
H	 1.465209	 -1.474077	 0.865596
H	 3.131767	 0.419673	 -0.873407
H	 3.750876	 -0.972315	 0.000098
H	 3.131883	 0.420264	 0.872742
C	 -1.776161	 0.487272	 0.551217
C	 -2.906567	 -0.326204	 1.136816
H	 -2.013148	 0.837588	 -0.443500
H	 -1.551575	 1.351157	 1.160797
H	 -3.121746	 -1.188753	 0.518690
H	 -3.800879	 0.282521	 1.199206
H	 -2.657595	 -0.672211	 2.132137

	symmetry c1
}
set optking {
	frozen_dihedral = ("
		4 2 3 6
	")
}

ee,wfn = optimize('scf', return_wfn=True)
oeprop( wfn, 'DIPOLE', 'QUADRUPOLE', 'MULLIKEN_CHARGES')
f=open( 'psi4out.xyz', 'w' )
f.write( "17  " )
f.write( str(ee) + "\n" )
f.write( MOL.save_string_xyz() )
f.close()
--------------------------------------------------------------------------

    Molecular point group: c1
  Charge       = 0
  Multiplicity = 1
  Basis Set: CC-PVTZ
  Basis Set:
  @DF-RHF Final Energy:  -345.04000952172703
    Total Energy =                       -345.0400095217270291
    Molecular point group: c1
  Basis Set: CC-PVTZ
  Basis Set:
  Basis Set: CC-PVTZ
  Basis Set:
  @DF-RHF Final Energy:  -345.04002484346927
    Total Energy =                       -345.0400248434694959
  Basis Set: CC-PVTZ
  Basis Set:
  Basis Set: CC-PVTZ
  Basis Set:
  @DF-RHF Final Energy:  -345.04014949624769
    Total Energy =                       -345.0401494962477500
  Basis Set: CC-PVTZ
  Basis Set:
  Basis Set: CC-PVTZ
  Basis Set:
  @DF-RHF Final Energy:  -345.04020683301945
    Total Energy =                       -345.0402068330192833
  Basis Set: CC-PVTZ
  Basis Set:
  Charge       = 0
  Multiplicity = 1
  Basis Set: CC-PVTZ
  Basis Set:

    Orbital Energies (a.u.)
    -----------------------

    Doubly Occupied:

       1A    -20.594320     2A    -20.532047     3A    -11.363545
       4A    -11.282638     5A    -11.235668     6A    -11.220453
       7A    -11.214752     8A     -1.470730     9A     -1.364581
      10A     -1.070740    11A     -1.032737    12A     -0.911552
      13A     -0.848379    14A     -0.775537    15A     -0.697548
      16A     -0.691915    17A     -0.668383    18A     -0.629043
      19A     -0.585834    20A     -0.575250    21A     -0.558028
      22A     -0.525558    23A     -0.522338    24A     -0.513245
      25A     -0.505343    26A     -0.493279    27A     -0.456266
      28A     -0.438606

  @DF-RHF Final Energy:  -345.04020711440336

   => Energetics <=

    Nuclear Repulsion Energy =            315.2364044387446143
    One-Electron Energy =               -1094.9965944212276554
    Two-Electron Energy =                 434.7199828680796827
    DFT Exchange-Correlation Energy =       0.0000000000000000
    Empirical Dispersion Energy =           0.0000000000000000
    PCM Polarization Energy =               0.0000000000000000
    EFP Energy =                            0.0000000000000000
    Total Energy =                       -345.0402071144034153
    Molecular point group: c1
  Basis Set: CC-PVTZ
  Basis Set:

  -Total Gradient:
     Atom            X                  Y                   Z
    ------   -----------------  -----------------  -----------------
       1       -0.000020507020     0.000091892088     0.000035331885
       2       -0.000168268272    -0.000329943446    -0.001095190963
       3       -0.000570497506    -0.000587084892     0.000714282615
       4        0.000310504425     0.000275942569     0.000885076366
       5        0.000023995584    -0.000014249003     0.000089308718
       6        0.000532726978     0.000561534873    -0.000498808972
       7       -0.000034008914     0.000019830753     0.000014215769
       8       -0.000001826785    -0.000012503010     0.000016891305
       9       -0.000025204981     0.000024081805    -0.000000306923
      10        0.000014341468    -0.000001703916    -0.000032963923
      11       -0.000077749902    -0.000115619313    -0.000382544476
      12       -0.000018867425     0.000047444634     0.000106035547
      13       -0.000033829935     0.000042123612     0.000063945184
      14        0.000060233949     0.000011669902     0.000060902324
      15        0.000027096611     0.000024657403    -0.000020031043
      16        0.000006236294    -0.000013284872     0.000014250287
      17       -0.000024374570    -0.000024789192     0.000029606301

  **** Optimization is complete! (in 5 steps) ****
    Final optimized geometry and variables:
    Molecular point group: c1

    Geometry (in Angstrom), charge = 0, multiplicity = 1:

    O            0.546959872194     1.250355168517    -0.609458053272
    C            0.453996364116     0.131497599369    -0.232458367388
    C            1.572596558220    -0.880468245718    -0.250234348194
    O           -0.665347798683    -0.385334917950     0.241957546330
    C            2.954379239232    -0.243820154939    -0.291274093353
    H            1.414657860331    -1.492193623453    -1.133771472393
    H            1.456930703502    -1.535485316998     0.602808416539
    H            3.059079452676     0.398823074011    -1.153857148980
    H            3.716611382542    -1.011816900918    -0.338063804513
    H            3.133702393002     0.356843667817     0.591741085588
    C           -1.818912358725     0.443898856496     0.267942283861
    C           -2.954232413329    -0.362757218920     0.853653122024
    H           -2.041722096311     0.771463955758    -0.737762052694
    H           -1.607961094079     1.321755032542     0.862078053902
    H           -3.155364133029    -1.239614922805     0.251143772587
    H           -3.852438794750     0.242334641428     0.888975175739
    H           -2.719158491233    -0.685758301650     1.860053558499

  Mulliken Charges: (a.u.)
   Center  Symbol    Alpha    Beta     Spin     Total
       1     O     4.19860  4.19860  0.00000 -0.39720
       2     C     2.81154  2.81154  0.00000  0.37692
       3     C     3.09071  3.09071  0.00000 -0.18142
       4     O     4.14998  4.14998  0.00000 -0.29996
       5     C     3.14089  3.14089  0.00000 -0.28178
       6     H     0.44488  0.44488  0.00000  0.11024
       7     H     0.43935  0.43935  0.00000  0.12131
       8     H     0.44396  0.44396  0.00000  0.11208
       9     H     0.45039  0.45039  0.00000  0.09922
      10     H     0.45205  0.45205  0.00000  0.09590
      11     C     2.97906  2.97906  0.00000  0.04189
      12     C     3.13314  3.13314  0.00000 -0.26628
      13     H     0.45435  0.45435  0.00000  0.09130
      14     H     0.45392  0.45392  0.00000  0.09215
      15     H     0.45148  0.45148  0.00000  0.09703
      16     H     0.45437  0.45437  0.00000  0.09126
      17     H     0.45133  0.45133  0.00000  0.09734

   Total alpha = 28.00000, Total beta = 28.00000, Total charge = -0.00000

*** Psi4 exiting successfully. Buy a developer a beer!
