  ==> Input File <==

--------------------------------------------------------------------------
set {
	reference rhf
	basis 6-31G*
}

set_num_threads( 4 )
memory 2 gb

molecule MOL {
0 1

H	 0.116668	 -0.025285	 -0.149587
N	 -0.626943	 -0.667432	 -0.000092
C	 -1.979713	 -0.158776	 0.000050
C	 -0.321337	 -1.973626	 0.191291
H	 -2.520245	 -0.492427	 -0.879443
H	 -1.934741	 0.918111	 -0.004428
H	 -2.517790	 -0.485056	 0.883818
C	 1.161264	 -2.285569	 0.151657
O	 -1.149239	 -2.822053	 0.378280
H	 1.688953	 -1.735229	 0.924331
H	 1.299660	 -3.344585	 0.309857
H	 1.586001	 -2.007252	 -0.807757

	symmetry c1
}
set optking {
	frozen_dihedral = ("
		4 2 3 5
	")
}

ee = optimize('scf')
oeprop('DIPOLE', 'QUADRUPOLE', 'MULLIKEN_CHARGES')
f=open( 'psi4out.xyz', 'w' )
f.write( "12  " )
f.write( str(ee) + "\n" )
f.write( MOL.save_string_xyz() )
f.close()
--------------------------------------------------------------------------

    Molecular point group: c1
  Charge       = 0
  Multiplicity = 1
  Basis Set: 6-31G*
  Basis Set:
  @DF-RHF Final Energy:  -247.00540211192828
    Total Energy =                       -247.0054021119281060
    Molecular point group: c1
  Basis Set: 6-31G*
  Basis Set:
  Basis Set: 6-31G*
  Basis Set:
  @DF-RHF Final Energy:  -247.00563750420659
    Total Energy =                       -247.0056375042067884
  Basis Set: 6-31G*
  Basis Set:
  Basis Set: 6-31G*
  Basis Set:
  @DF-RHF Final Energy:  -247.00565243533956
    Total Energy =                       -247.0056524353397549
  Basis Set: 6-31G*
  Basis Set:
  Basis Set: 6-31G*
  Basis Set:
  @DF-RHF Final Energy:  -247.00562639449933
    Total Energy =                       -247.0056263944993020
  Basis Set: 6-31G*
  Basis Set:
  @DF-RHF Final Energy:  -247.00566637244549
    Total Energy =                       -247.0056663724454893
  @DF-RHF Final Energy:  -247.00567615091100
    Total Energy =                       -247.0056761509110288
  @DF-RHF Final Energy:  -247.00570042047806
    Total Energy =                       -247.0057004204779787
  @DF-RHF Final Energy:  -247.00570384377480
    Total Energy =                       -247.0057038437745973
  @DF-RHF Final Energy:  -247.00570730255978
    Total Energy =                       -247.0057073025598129
  @DF-RHF Final Energy:  -247.00571314757477
    Total Energy =                       -247.0057131475747383
  @DF-RHF Final Energy:  -247.00573071658772
    Total Energy =                       -247.0057307165875500
  @DF-RHF Final Energy:  -247.00575039673274
    Total Energy =                       -247.0057503967328785
  Basis Set: 6-31G*
  Basis Set:
  @DF-RHF Final Energy:  -247.00578706738753
    Total Energy =                       -247.0057870673877005
  Basis Set: 6-31G*
  Basis Set:
  Basis Set: 6-31G*
  Basis Set:
  @DF-RHF Final Energy:  -247.00579903747328
    Total Energy =                       -247.0057990374731958
  Basis Set: 6-31G*
  Basis Set:
  Basis Set: 6-31G*
  Basis Set:
  @DF-RHF Final Energy:  -247.00580025223479
    Total Energy =                       -247.0058002522346214
  Basis Set: 6-31G*
  Basis Set:
  Charge       = 0
  Multiplicity = 1
  Basis Set: 6-31G*
  Basis Set:

    Orbital Energies (a.u.)
    -----------------------

    Doubly Occupied:

       1A    -20.515846     2A    -15.581462     3A    -11.341600
       4A    -11.254970     5A    -11.230009     6A     -1.384468
       7A     -1.227817     8A     -1.015294     9A     -0.931860
      10A     -0.787146    11A     -0.688873    12A     -0.647626
      13A     -0.633016    14A     -0.584425    15A     -0.579537
      16A     -0.556027    17A     -0.546097    18A     -0.503327
      19A     -0.413096    20A     -0.385743

  @DF-RHF Final Energy:  -247.00580090935784

   => Energetics <=

    Nuclear Repulsion Energy =            181.5126984697374724
    One-Electron Energy =                -695.4205223591520735
    Two-Electron Energy =                 266.9020229800568131
    DFT Exchange-Correlation Energy =       0.0000000000000000
    Empirical Dispersion Energy =           0.0000000000000000
    PCM Polarization Energy =               0.0000000000000000
    EFP Energy =                            0.0000000000000000
    Total Energy =                       -247.0058009093578448
    Molecular point group: c1
  Basis Set: 6-31G*
  Basis Set:

  -Total Gradient:
     Atom            X                  Y                   Z
    ------   -----------------  -----------------  -----------------
       1       -0.000002470539    -0.000015538248    -0.000065845263
       2       -0.000018998558    -0.000000789458     0.000191677427
       3        0.000040915162     0.000101603346    -0.000109367901
       4        0.000009060394    -0.000019017486    -0.000131234159
       5       -0.000026886028    -0.000067639348     0.000026653457
       6       -0.000003176614    -0.000003790364     0.000014232332
       7       -0.000001878575    -0.000009474682    -0.000006472240
       8       -0.000003508125     0.000002017232     0.000015608336
       9        0.000002856514     0.000011196524     0.000067711517
      10       -0.000004495554    -0.000021412725     0.000033008071
      11       -0.000004445713    -0.000016550281    -0.000035535205
      12        0.000013027635     0.000039395492    -0.000000436371

  **** Optimization is complete! (in 16 steps) ****
    Final optimized geometry and variables:
    Molecular point group: c1

    Geometry (in Angstrom), charge = 0, multiplicity = 1:

    H            0.715791275555     1.572461303003    -0.187417877712
    N           -0.019725001078     0.925983650413    -0.021853032238
    C           -1.385522551751     1.391827681660    -0.123363884757
    C            0.273645287008    -0.393814522246     0.044118526252
    H           -1.821163980484     1.162591656708    -1.090106371026
    H           -1.399839590193     2.463753965187     0.024213407322
    H           -1.989749831868     0.924138822030     0.640369225456
    C            1.749149212721    -0.733759311290     0.007911020596
    O           -0.576396065267    -1.238323774833     0.113885595189
    H            2.352133831799    -0.002615962308     0.534866664399
    H            1.893538720776    -1.709553402146     0.448373874696
    H            2.083291575043    -0.770045926660    -1.024746538437

  Mulliken Charges: (a.u.)
   Center  Symbol    Alpha    Beta     Spin     Total
       1     H     0.30997  0.30997  0.00000  0.38006
       2     N     3.89113  3.89113  0.00000 -0.78227
       3     C     3.13515  3.13515  0.00000 -0.27030
       4     C     2.63157  2.63157  0.00000  0.73686
       5     H     0.41197  0.41197  0.00000  0.17605
       6     H     0.41768  0.41768  0.00000  0.16465
       7     H     0.39857  0.39857  0.00000  0.20286
       8     C     3.29339  3.29339  0.00000 -0.58678
       9     O     4.30178  4.30178  0.00000 -0.60356
      10     H     0.41320  0.41320  0.00000  0.17359
      11     H     0.39285  0.39285  0.00000  0.21430
      12     H     0.40274  0.40274  0.00000  0.19453

   Total alpha = 20.00000, Total beta = 20.00000, Total charge =  0.00000
