  ==> Input File <==

--------------------------------------------------------------------------
set {
	reference rhf
	basis 6-31G*
}

set_num_threads( 4 )
memory 2 gb

molecule MOL {
0 1

O	 -0.098474	 0.545707	 0.965154
C	 0.486307	 0.169203	 0.000779
C	 1.608116	 -0.841643	 0.000302
O	 0.224931	 0.598982	 -1.225834
C	 2.990107	 -0.200498	 -0.000684
H	 1.468623	 -1.481519	 -0.865924
H	 1.469683	 -1.481289	 0.866878
H	 3.129736	 0.423364	 -0.875135
H	 3.757882	 -0.966877	 -0.001197
H	 3.130964	 0.423383	 0.873533
C	 -0.813924	 1.560683	 -1.378521
C	 -0.915850	 1.888362	 -2.853156
H	 -0.573451	 2.435753	 -0.790295
H	 -1.736887	 1.146442	 -0.996248
H	 0.018043	 2.297044	 -3.221914
H	 -1.699409	 2.621412	 -3.015399
H	 -1.151822	 1.000739	 -3.429089

	symmetry c1
}
set optking {
	frozen_dihedral = ("
		4 2 3 6
	")
}

ee = optimize('scf')
oeprop('DIPOLE', 'QUADRUPOLE', 'MULLIKEN_CHARGES')
f=open( 'psi4out.xyz', 'w' )
f.write( "17  " )
f.write( str(ee) + "\n" )
f.write( MOL.save_string_xyz() )
f.close()
--------------------------------------------------------------------------

    Molecular point group: c1
  Charge       = 0
  Multiplicity = 1
  Basis Set: 6-31G*
  Basis Set:
  @DF-RHF Final Energy:  -344.90970197161960
    Total Energy =                       -344.9097019716198247
    Molecular point group: c1
  Basis Set: 6-31G*
  Basis Set:
  Basis Set: 6-31G*
  Basis Set:
  @DF-RHF Final Energy:  -344.90996950844891
    Total Energy =                       -344.9099695084487962
  Basis Set: 6-31G*
  Basis Set:
  Basis Set: 6-31G*
  Basis Set:
  @DF-RHF Final Energy:  -344.90938326144874
    Total Energy =                       -344.9093832614486246
  Basis Set: 6-31G*
  Basis Set:
  Basis Set: 6-31G*
  Basis Set:
  @DF-RHF Final Energy:  -344.91031754101937
    Total Energy =                       -344.9103175410194240
  Basis Set: 6-31G*
  Basis Set:
  Basis Set: 6-31G*
  Basis Set:
  @DF-RHF Final Energy:  -344.91032118995327
    Total Energy =                       -344.9103211899529811
  Basis Set: 6-31G*
  Basis Set:
  Charge       = 0
  Multiplicity = 1
  Basis Set: 6-31G*
  Basis Set:

    Orbital Energies (a.u.)
    -----------------------

    Doubly Occupied:

       1A    -20.601686     2A    -20.542172     3A    -11.370062
       4A    -11.284645     5A    -11.236066     6A    -11.226836
       7A    -11.222442     8A     -1.466942     9A     -1.360418
      10A     -1.072820    11A     -1.031183    12A     -0.908001
      13A     -0.854693    14A     -0.777300    15A     -0.693398
      16A     -0.681610    17A     -0.668382    18A     -0.616262
      19A     -0.598833    20A     -0.573627    21A     -0.553786
      22A     -0.539638    23A     -0.526751    24A     -0.506989
      25A     -0.504957    26A     -0.496650    27A     -0.451254
      28A     -0.431276

  @DF-RHF Final Energy:  -344.91032143091894

   => Energetics <=

    Nuclear Repulsion Energy =            316.6445720678619296
    One-Electron Energy =               -1097.5124341213681873
    Two-Electron Energy =                 435.9575406225870893
    DFT Exchange-Correlation Energy =       0.0000000000000000
    Empirical Dispersion Energy =           0.0000000000000000
    PCM Polarization Energy =               0.0000000000000000
    EFP Energy =                            0.0000000000000000
    Total Energy =                       -344.9103214309192253
    Molecular point group: c1
  Basis Set: 6-31G*
  Basis Set:

  -Total Gradient:
     Atom            X                  Y                   Z
    ------   -----------------  -----------------  -----------------
       1        0.000027321696    -0.000003293812    -0.000053870706
       2        0.000452888436     0.000483692838     0.000099642115
       3       -0.000422846839    -0.000486583293     0.000246531485
       4       -0.000235321901    -0.000248756398    -0.000038537547
       5       -0.000003073954     0.000035666708     0.000022821736
       6        0.000263964508     0.000259924613    -0.000225282678
       7       -0.000001561618     0.000018854693    -0.000036618831
       8       -0.000013182424     0.000002480182    -0.000010861263
       9       -0.000026594208    -0.000014345762     0.000003583768
      10        0.000005179475     0.000004064943     0.000011193543
      11       -0.000128480661    -0.000152721095    -0.000029109347
      12        0.000030476741     0.000047891554     0.000001555772
      13        0.000033040574     0.000013523191     0.000022772034
      14        0.000014555895     0.000035531996    -0.000011146576
      15        0.000000244820     0.000002837219    -0.000018287253
      16        0.000003619082     0.000004306256    -0.000002778218
      17       -0.000000229619    -0.000003073830     0.000018391962

  **** Optimization is complete! (in 6 steps) ****
    Final optimized geometry and variables:
    Molecular point group: c1

    Geometry (in Angstrom), charge = 0, multiplicity = 1:

    O           -0.593240090113    -0.020605612042     1.615996792750
    C           -0.015726638374    -0.403180608627     0.649089231564
    C            1.109139458839    -1.408542422493     0.662018524759
    O           -0.271961156296     0.036321270777    -0.575407573864
    C            2.472667902109    -0.705868647134     0.627003510966
    H            1.010203753705    -2.061504897993    -0.196902252440
    H            1.010617274624    -1.996369055462     1.564863772545
    H            2.584936964687    -0.119553337881    -0.277896462013
    H            3.271367597509    -1.438476128728     0.655916198526
    H            2.589860359604    -0.046683659772     1.480262645100
    C           -1.285146680782     1.026160570627    -0.719966813610
    C           -1.380229806503     1.367390811734    -2.191986442764
    H           -1.021134628858     1.890086412040    -0.125332470597
    H           -2.217880908431     0.633194407875    -0.339304854659
    H           -0.436487838925     1.754356669216    -2.559332523293
    H           -2.144513058939     2.121886642305    -2.347715597627
    H           -1.640128897672     0.490570592769    -2.774094767219

  Mulliken Charges: (a.u.)
   Center  Symbol    Alpha    Beta     Spin     Total
       1     O     4.28561  4.28561  0.00000 -0.57122
       2     C     2.61467  2.61467  0.00000  0.77066
       3     C     3.19371  3.19371  0.00000 -0.38742
       4     O     4.30985  4.30985  0.00000 -0.61971
       5     C     3.25144  3.25144  0.00000 -0.50288
       6     H     0.40398  0.40398  0.00000  0.19203
       7     H     0.39928  0.39928  0.00000  0.20144
       8     H     0.40965  0.40965  0.00000  0.18070
       9     H     0.41159  0.41159  0.00000  0.17682
      10     H     0.40884  0.40884  0.00000  0.18232
      11     C     3.00248  3.00248  0.00000 -0.00495
      12     C     3.24854  3.24854  0.00000 -0.49708
      13     H     0.41031  0.41031  0.00000  0.17938
      14     H     0.40981  0.40981  0.00000  0.18039
      15     H     0.41224  0.41224  0.00000  0.17552
      16     H     0.41621  0.41621  0.00000  0.16758
      17     H     0.41178  0.41178  0.00000  0.17643

   Total alpha = 28.00000, Total beta = 28.00000, Total charge =  0.00000
