  ==> Input File <==

--------------------------------------------------------------------------
set {
	reference rhf
	basis cc-pvtz
}

set_num_threads( 4 )
memory 2 gb

molecule MOL {
0 1

H	 -2.266619	 1.169943	 0.000098
O	 -1.438073	 1.611259	 0.000041
C	 -0.408657	 0.734701	 0.000005
C	 -0.071942	 0.166759	 1.214696
C	 0.287633	 0.409930	 -1.158363
H	 -0.633285	 0.443148	 2.085577
C	 0.967819	 -0.735701	 1.288386
C	 1.327596	 -0.499619	 -1.054796
C	 -0.081058	 1.030570	 -2.483156
H	 1.223545	 -1.172565	 2.234818
C	 1.675142	 -1.074749	 0.151210
H	 1.875562	 -0.761079	 -1.940990
H	 0.017882	 2.112293	 -2.462981
H	 0.563389	 0.663700	 -3.268991
H	 -1.102996	 0.796026	 -2.767682
H	 2.485155	 -1.776016	 0.200946

	symmetry c1
}
set optking {
	frozen_dihedral = ("
		4 3 2 1
	")
}

ee = optimize('scf')
oeprop('DIPOLE', 'QUADRUPOLE', 'MULLIKEN_CHARGES')
f=open( 'psi4out.xyz', 'w' )
f.write( "16  " )
f.write( str(ee) + "\n" )
f.write( MOL.save_string_xyz() )
f.close()
--------------------------------------------------------------------------

    Molecular point group: c1
  Charge       = 0
  Multiplicity = 1
  Basis Set: CC-PVTZ
  Basis Set:
  @DF-RHF Final Energy:  -344.71495567167307
    Total Energy =                       -344.7149556716732945
    Molecular point group: c1
  Basis Set: CC-PVTZ
  Basis Set:
  Basis Set: CC-PVTZ
  Basis Set:
  @DF-RHF Final Energy:  -344.71614589975559
    Total Energy =                       -344.7161458997556451
  Basis Set: CC-PVTZ
  Basis Set:
  Basis Set: CC-PVTZ
  Basis Set:
  @DF-RHF Final Energy:  -344.71622268330759
    Total Energy =                       -344.7162226833079330
  Basis Set: CC-PVTZ
  Basis Set:
  Basis Set: CC-PVTZ
  Basis Set:
  @DF-RHF Final Energy:  -344.71623009384871
    Total Energy =                       -344.7162300938488215
  Basis Set: CC-PVTZ
  Basis Set:
  Basis Set: CC-PVTZ
  Basis Set:
  @DF-RHF Final Energy:  -344.71623163010719
    Total Energy =                       -344.7162316301069040
  Basis Set: CC-PVTZ
  Basis Set:
  Charge       = 0
  Multiplicity = 1
  Basis Set: CC-PVTZ
  Basis Set:

    Orbital Energies (a.u.)
    -----------------------

    Doubly Occupied:

       1A    -20.570009     2A    -11.282731     3A    -11.233009
       4A    -11.227265     5A    -11.225934     6A    -11.223395
       7A    -11.222726     8A    -11.216821     9A     -1.396362
      10A     -1.153482    11A     -1.047840    12A     -1.006844
      13A     -0.934448    14A     -0.834766    15A     -0.807225
      16A     -0.730582    17A     -0.669320    18A     -0.660370
      19A     -0.624941    20A     -0.594052    21A     -0.573777
      22A     -0.566523    23A     -0.545289    24A     -0.521942
      25A     -0.502642    26A     -0.487672    27A     -0.466496
      28A     -0.333646    29A     -0.321752

  @DF-RHF Final Energy:  -344.71623200857266

   => Energetics <=

    Nuclear Repulsion Energy =            350.4363733412678812
    One-Electron Energy =               -1162.3414859595441158
    Two-Electron Energy =                 467.1888806097033466
    DFT Exchange-Correlation Energy =       0.0000000000000000
    Empirical Dispersion Energy =           0.0000000000000000
    PCM Polarization Energy =               0.0000000000000000
    EFP Energy =                            0.0000000000000000
    Total Energy =                       -344.7162320085728879
    Molecular point group: c1
  Basis Set: CC-PVTZ
  Basis Set:

  -Total Gradient:
     Atom            X                  Y                   Z
    ------   -----------------  -----------------  -----------------
       1        0.000022448104    -0.000040364077    -0.000814214309
       2        0.000088917257     0.000339422827     0.001063146280
       3       -0.000479084285    -0.000766047205    -0.000381509664
       4        0.000343307241     0.000473640734     0.000127508739
       5       -0.000014081356     0.000024730503     0.000009838516
       6        0.000011600055    -0.000003996686    -0.000017610188
       7        0.000027108579    -0.000021978720    -0.000000697440
       8       -0.000026711728     0.000015201215    -0.000006271495
       9       -0.000002966803    -0.000032245865     0.000004922248
      10        0.000006840181    -0.000010358454     0.000002636138
      11        0.000009306591     0.000004735657     0.000012951619
      12        0.000000274163    -0.000001329450    -0.000007605080
      13        0.000013602368     0.000010948643     0.000000563159
      14        0.000000634282     0.000002847693    -0.000005630781
      15        0.000004227980     0.000003053256     0.000008519379
      16       -0.000005422630     0.000001739931     0.000003452876

  **** Optimization is complete! (in 6 steps) ****
    Final optimized geometry and variables:
    Molecular point group: c1

    Geometry (in Angstrom), charge = 0, multiplicity = 1:

    H           -2.481226667640     0.962965526852     0.238379403167
    O           -1.640672007998     1.386066692987     0.229968030237
    C           -0.632492405632     0.460469313105     0.289767370065
    C           -0.288425647370    -0.096170543573     1.504111077975
    C            0.064304085524     0.145181497827    -0.869491125706
    H           -0.836800604706     0.190804511953     2.380857108429
    C            0.754573305163    -0.999818365731     1.581831022856
    C            1.109640149498    -0.757714775498    -0.767775399700
    C           -0.310410396391     0.775383270365    -2.185510072086
    H            1.018081819778    -1.432502651420     2.527837096287
    C            1.455843719141    -1.332203914740     0.441609875169
    H            1.662615935443    -1.015911795848    -1.651513836872
    H           -0.261072644655     1.855280330616    -2.127779802530
    H            0.354615970883     0.442863753321    -2.971018479040
    H           -1.323832673685     0.517876684814    -2.471491967871
    H            2.270481419610    -2.028940844328     0.489949512706

  Mulliken Charges: (a.u.)
   Center  Symbol    Alpha    Beta     Spin     Total
       1     H     0.38897  0.38897  0.00000  0.22205
       2     O     4.18940  4.18940  0.00000 -0.37880
       3     C     2.88693  2.88693  0.00000  0.22614
       4     C     3.11018  3.11018  0.00000 -0.22036
       5     C     2.99187  2.99187  0.00000  0.01625
       6     H     0.41977  0.41977  0.00000  0.16045
       7     C     3.07708  3.07708  0.00000 -0.15416
       8     C     3.09477  3.09477  0.00000 -0.18955
       9     C     3.14134  3.14134  0.00000 -0.28269
      10     H     0.42215  0.42215  0.00000  0.15571
      11     C     3.07927  3.07927  0.00000 -0.15854
      12     H     0.42440  0.42440  0.00000  0.15120
      13     H     0.44251  0.44251  0.00000  0.11498
      14     H     0.45281  0.45281  0.00000  0.09438
      15     H     0.45450  0.45450  0.00000  0.09100
      16     H     0.42403  0.42403  0.00000  0.15194

   Total alpha = 29.00000, Total beta = 29.00000, Total charge =  0.00000
