                              Psi4 1.0.54 Driver

  ==> Input File <==

--------------------------------------------------------------------------
set {
	reference rhf
	basis cc-pvtz
}

set_num_threads( 4 )
memory 2 gb

molecule MOL {
0 1

H	 -3.258660	 -0.290394	 1.471450
C	 -3.307964	 -0.275695	 0.374072
C	 -2.653809	 0.914422	 -0.273689
O	 -3.855140	 -1.148880	 -0.205112
C	 -1.216901	 1.136108	 0.207794
H	 -2.700131	 0.790676	 -1.347875
H	 -3.256452	 1.781007	 -0.010713
C	 -0.247837	 0.040196	 -0.230469
H	 -0.872882	 2.093195	 -0.169002
H	 -1.209325	 1.218376	 1.291938
C	 1.181757	 0.280428	 0.247371
H	 -0.259600	 -0.030819	 -1.314870
H	 -0.591284	 -0.923375	 0.136958
C	 2.151032	 -0.811012	 -0.202643
H	 1.515939	 1.247397	 -0.115449
H	 1.191514	 0.341223	 1.333422
C	 3.580021	 -0.656538	 0.320835
H	 2.170545	 -0.847575	 -1.289412
H	 1.766632	 -1.772905	 0.124928
C	 4.669278	 -0.832255	 -0.734497
H	 3.737039	 -1.388362	 1.107074
H	 3.686527	 0.318078	 0.789968
H	 4.583657	 -1.796382	 -1.225542
H	 4.621569	 -0.066332	 -1.499200
H	 5.653350	 -0.779189	 -0.283109

	symmetry c1
}
set optking {
	frozen_dihedral = ("
		20 17 14 18
	")
}

ee,wfn = optimize('scf', return_wfn=True)
oeprop( wfn, 'DIPOLE', 'QUADRUPOLE', 'MULLIKEN_CHARGES')
f=open( 'psi4out.xyz', 'w' )
f.write( "25  " )
f.write( str(ee) + "\n" )
f.write( MOL.save_string_xyz() )
f.close()
--------------------------------------------------------------------------

    Molecular point group: c1
  Charge       = 0
  Multiplicity = 1
  Basis Set: CC-PVTZ
  Basis Set:
  @DF-RHF Final Energy:  -387.25667866006563
    Total Energy =                       -387.2566786600660862
    Molecular point group: c1
  Basis Set: CC-PVTZ
  Basis Set:
  Basis Set: CC-PVTZ
  Basis Set:
  @DF-RHF Final Energy:  -387.25712420983240
    Total Energy =                       -387.2571242098325683
  Basis Set: CC-PVTZ
  Basis Set:
  Basis Set: CC-PVTZ
  Basis Set:
  @DF-RHF Final Energy:  -387.25717534424552
    Total Energy =                       -387.2571753442452973
  Basis Set: CC-PVTZ
  Basis Set:
  Basis Set: CC-PVTZ
  Basis Set:
  @DF-RHF Final Energy:  -387.25699756859427
    Total Energy =                       -387.2569975685941017
  Basis Set: CC-PVTZ
  Basis Set:
  Basis Set: CC-PVTZ
  Basis Set:
  @DF-RHF Final Energy:  -387.25717933878349
    Total Energy =                       -387.2571793387835442
  Basis Set: CC-PVTZ
  Basis Set:
  Charge       = 0
  Multiplicity = 1
  Basis Set: CC-PVTZ
  Basis Set:

    Orbital Energies (a.u.)
    -----------------------

    Doubly Occupied:

       1A    -20.551433     2A    -11.321035     3A    -11.233873
       4A    -11.232974     5A    -11.221686     6A    -11.218813
       7A    -11.215591     8A    -11.214411     9A    -11.208908
      10A     -1.406447    11A     -1.105010    12A     -1.069768
      13A     -1.016167    14A     -0.944460    15A     -0.869082
      16A     -0.816197    17A     -0.794668    18A     -0.787693
      19A     -0.668117    20A     -0.664031    21A     -0.638218
      22A     -0.617714    23A     -0.610095    24A     -0.592152
      25A     -0.570710    26A     -0.557156    27A     -0.536516
      28A     -0.520112    29A     -0.512969    30A     -0.501936
      31A     -0.484353    32A     -0.481793    33A     -0.466879
      34A     -0.459093    35A     -0.441495    36A     -0.411940

  @DF-RHF Final Energy:  -387.25717949166841

   => Energetics <=

    Nuclear Repulsion Energy =            436.2817720831665724
    One-Electron Energy =               -1389.1509181918802369
    Two-Electron Energy =                 565.6119666170452547
    DFT Exchange-Correlation Energy =       0.0000000000000000
    Empirical Dispersion Energy =           0.0000000000000000
    PCM Polarization Energy =               0.0000000000000000
    EFP Energy =                            0.0000000000000000
    Total Energy =                       -387.2571794916684667
    Molecular point group: c1
  Basis Set: CC-PVTZ
  Basis Set:

  -Total Gradient:
     Atom            X                  Y                   Z
    ------   -----------------  -----------------  -----------------
       1       -0.000056278116     0.000034980881    -0.000001092663
       2        0.000194272847    -0.000081085713    -0.000014075621
       3       -0.000078659759     0.000020629015     0.000026723584
       4       -0.000056899210     0.000021232872    -0.000007729809
       5        0.000006236603    -0.000004257241    -0.000031708405
       6       -0.000001451234     0.000012454355     0.000005848565
       7       -0.000000473676    -0.000005938394     0.000007659131
       8       -0.000025157246    -0.000006863670     0.000015818008
       9        0.000005626204    -0.000008487290    -0.000006654513
      10        0.000000679878     0.000012097320    -0.000005754405
      11       -0.000020104276    -0.000009696177    -0.000019357818
      12        0.000003748970     0.000012419867     0.000012708652
      13       -0.000012339526     0.000002258072    -0.000001587768
      14       -0.000334552599     0.004354033131    -0.000460527844
      15       -0.000009390219    -0.000029878016    -0.000008379031
      16        0.000022460782    -0.000010597244    -0.000009816398
      17        0.000151536992    -0.003571901590     0.000738460132
      18        0.000259389973    -0.002808676405     0.000221659282
      19        0.000004234499     0.000019700814     0.000018187378
      20       -0.000034889622     0.002071105366    -0.000484189549
      21        0.000005836489     0.000000078292    -0.000019314923
      22        0.000023820330    -0.000027424974    -0.000028160259
      23       -0.000010661158     0.000046924283     0.000048017085
      24        0.000007823958    -0.000039845720     0.000037102160
      25       -0.000044810889    -0.000003261833    -0.000033834973

  **** Optimization is complete! (in 6 steps) ****
    Final optimized geometry and variables:
    Molecular point group: c1

    Geometry (in Angstrom), charge = 0, multiplicity = 1:

    H           -3.328557860979    -0.050506961779     1.472731504141
    C           -3.357699664355    -0.039382316670     0.374582829376
    C           -2.662243299598     1.131016011209    -0.266003299950
    O           -3.917382483801    -0.900290986642    -0.210994642982
    C           -1.229473948729     1.319105738577     0.241067062325
    H           -2.691878517280     1.003459348075    -1.340337209261
    H           -3.247959870447     2.013450191187    -0.017948781277
    C           -0.281739924203     0.194056046052    -0.169299011983
    H           -0.852983488262     2.263366431865    -0.137018938055
    H           -1.240301650825     1.410706949765     1.324410742903
    C            1.144070547594     0.401635691050     0.331789885645
    H           -0.276059225831     0.112207785674    -1.252986053508
    H           -0.656433761498    -0.756612524048     0.201346466773
    C            2.101221961258    -0.710581889021    -0.085931215155
    H            1.520040665931     1.353257651258    -0.036513779101
    H            1.137202247002     0.477975654019     1.416677649652
    C            3.535146123920    -0.532105391826     0.448543489268
    H            2.121287516533    -0.788729847311    -1.169114849049
    H            1.704423260897    -1.661617553666     0.257828053419
    C            4.611671970934    -0.750754385286    -0.610222772067
    H            3.704487082463    -1.203607212268     1.283177409595
    H            3.647941373192     0.471729697821     0.847135207348
    H            4.553902698385    -1.749579865320    -1.030333371835
    H            4.500161487674    -0.044375579830    -1.425911920315
    H            5.604715778200    -0.624345365886    -0.194181316015

  Mulliken Charges: (a.u.)
   Center  Symbol    Alpha    Beta     Spin     Total
       1     H     0.46413  0.46413  0.00000  0.07175
       2     C     2.90473  2.90473  0.00000  0.19054
       3     C     3.08928  3.08928  0.00000 -0.17856
       4     O     4.16626  4.16626  0.00000 -0.33253
       5     C     3.11626  3.11626  0.00000 -0.23252
       6     H     0.44288  0.44288  0.00000  0.11424
       7     H     0.44046  0.44046  0.00000  0.11908
       8     C     3.09119  3.09119  0.00000 -0.18238
       9     H     0.44311  0.44311  0.00000  0.11379
      10     H     0.44980  0.44980  0.00000  0.10040
      11     C     3.09092  3.09092  0.00000 -0.18185
      12     H     0.44952  0.44952  0.00000  0.10096
      13     H     0.44840  0.44840  0.00000  0.10320
      14     C     3.09303  3.09303  0.00000 -0.18605
      15     H     0.45299  0.45299  0.00000  0.09402
      16     H     0.45265  0.45265  0.00000  0.09470
      17     C     3.08796  3.08796  0.00000 -0.17593
      18     H     0.45307  0.45307  0.00000  0.09386
      19     H     0.45056  0.45056  0.00000  0.09889
      20     C     3.14771  3.14771  0.00000 -0.29542
      21     H     0.45045  0.45045  0.00000  0.09909
      22     H     0.45561  0.45561  0.00000  0.08878
      23     H     0.45398  0.45398  0.00000  0.09204
      24     H     0.45566  0.45566  0.00000  0.08869
      25     H     0.44939  0.44939  0.00000  0.10122

   Total alpha = 36.00000, Total beta = 36.00000, Total charge = -0.00000

*** Psi4 exiting successfully. Buy a developer a beer!
