                              Psi4 1.0.54 Driver

  ==> Input File <==

--------------------------------------------------------------------------
set {
	reference rhf
	basis cc-pvtz
}

set_num_threads( 4 )
memory 2 gb

molecule MOL {
0 1

H	 1.146055	 1.260481	 1.744129
O	 1.353648	 0.519321	 1.203723
C	 0.706474	 0.636793	 -0.025501
C	 -0.793473	 0.591216	 0.050087
H	 1.057867	 -0.185962	 -0.636973
H	 1.005031	 1.551019	 -0.535160
C	 -1.534243	 -0.493009	 -0.013340
H	 -1.266611	 1.552628	 0.164437
H	 -1.101195	 -1.466332	 -0.144046
H	 -2.604242	 -0.437780	 0.050785

	symmetry c1
}
set optking {
	frozen_dihedral = ("
		5 3 4 7
	")
}

ee,wfn = optimize('scf', return_wfn=True)
oeprop( wfn, 'DIPOLE', 'QUADRUPOLE', 'MULLIKEN_CHARGES')
f=open( 'psi4out.xyz', 'w' )
f.write( "10  " )
f.write( str(ee) + "\n" )
f.write( MOL.save_string_xyz() )
f.close()
--------------------------------------------------------------------------

    Molecular point group: c1
  Charge       = 0
  Multiplicity = 1
  Basis Set: CC-PVTZ
  Basis Set:
  @DF-RHF Final Energy:  -191.99431137427695
    Total Energy =                       -191.9943113742770038
    Molecular point group: c1
  Basis Set: CC-PVTZ
  Basis Set:
  Basis Set: CC-PVTZ
  Basis Set:
  @DF-RHF Final Energy:  -191.99479318286791
    Total Energy =                       -191.9947931828679089
  Basis Set: CC-PVTZ
  Basis Set:
  Basis Set: CC-PVTZ
  Basis Set:
  @DF-RHF Final Energy:  -191.99486310932721
    Total Energy =                       -191.9948631093273264
  Basis Set: CC-PVTZ
  Basis Set:
  Basis Set: CC-PVTZ
  Basis Set:
  @DF-RHF Final Energy:  -191.99487517063750
    Total Energy =                       -191.9948751706374708
  Basis Set: CC-PVTZ
  Basis Set:
  Basis Set: CC-PVTZ
  Basis Set:
  @DF-RHF Final Energy:  -191.99487853036641
    Total Energy =                       -191.9948785303663215
  Basis Set: CC-PVTZ
  Basis Set:
  Basis Set: CC-PVTZ
  Basis Set:
  @DF-RHF Final Energy:  -191.99487960900433
    Total Energy =                       -191.9948796090043288
  Basis Set: CC-PVTZ
  Basis Set:
  Charge       = 0
  Multiplicity = 1
  Basis Set: CC-PVTZ
  Basis Set:

    Orbital Energies (a.u.)
    -----------------------

    Doubly Occupied:

       1A    -20.549953     2A    -11.274589     3A    -11.229454
       4A    -11.224866     5A     -1.367655     6A     -1.065648
       7A     -0.924079     8A     -0.782223     9A     -0.684088
      10A     -0.662697    11A     -0.614688    12A     -0.576389
      13A     -0.552504    14A     -0.481968    15A     -0.445057
      16A     -0.378681

  @DF-RHF Final Energy:  -191.99487972275455

   => Energetics <=

    Nuclear Repulsion Energy =            117.9924870232007947
    One-Electron Energy =                -494.3456568588215987
    Two-Electron Energy =                 184.3582901128663991
    DFT Exchange-Correlation Energy =       0.0000000000000000
    Empirical Dispersion Energy =           0.0000000000000000
    PCM Polarization Energy =               0.0000000000000000
    EFP Energy =                            0.0000000000000000
    Total Energy =                       -191.9948797227544048
    Molecular point group: c1
  Basis Set: CC-PVTZ
  Basis Set:

  -Total Gradient:
     Atom            X                  Y                   Z
    ------   -----------------  -----------------  -----------------
       1       -0.000000967278     0.000007179978     0.000008385453
       2        0.000002888753     0.000004783273     0.000018182468
       3        0.000190388783    -0.001887317002     0.003584697887
       4       -0.000173123947     0.000658332046    -0.003880329693
       5       -0.000116545546     0.001420762309    -0.002023591128
       6       -0.000004148544     0.000000219287     0.000014149805
       7        0.000095830819    -0.000211517364     0.002296769867
       8        0.000001240962     0.000003958563    -0.000008174772
       9        0.000003237622     0.000001095434    -0.000004833545
      10        0.000001198374     0.000002503476    -0.000005256344

  **** Optimization is complete! (in 7 steps) ****
    Final optimized geometry and variables:
    Molecular point group: c1

    Geometry (in Angstrom), charge = 0, multiplicity = 1:

    H            1.003731419508     0.855273314021     1.459159558466
    O            1.320367924183     0.184093852609     0.881836446455
    C            0.707747314153     0.300122681767    -0.374966199352
    C           -0.797922760200     0.270269973222    -0.311013069696
    H            1.070350149362    -0.523163342087    -0.973449630723
    H            1.030654336276     1.214485019612    -0.865894722648
    C           -1.515695399859    -0.829165287860    -0.376270181101
    H           -1.294834063800     1.213844294059    -0.153762029824
    H           -1.058366703913    -1.791069489664    -0.523771209953
    H           -2.585903211266    -0.809911422846    -0.289644081217

  Mulliken Charges: (a.u.)
   Center  Symbol    Alpha    Beta     Spin     Total
       1     H     0.39589  0.39589  0.00000  0.20822
       2     O     4.19643  4.19643  0.00000 -0.39285
       3     C     2.95250  2.95250  0.00000  0.09499
       4     C     3.08840  3.08840  0.00000 -0.17681
       5     H     0.45695  0.45695  0.00000  0.08609
       6     H     0.47233  0.47233  0.00000  0.05535
       7     C     3.16127  3.16127  0.00000 -0.32254
       8     H     0.42044  0.42044  0.00000  0.15911
       9     H     0.42844  0.42844  0.00000  0.14313
      10     H     0.42734  0.42734  0.00000  0.14532

   Total alpha = 16.00000, Total beta = 16.00000, Total charge = -0.00000

*** Psi4 exiting successfully. Buy a developer a beer!
