  ==> Input File <==

--------------------------------------------------------------------------
set {
	reference rhf
	basis 6-31G*
}

set_num_threads( 1 )
memory 2 gb

molecule MOL {
0 1

H	 2.574426	 -2.946483	 -1.898080
C	 2.548501	 -2.250430	 -1.065861
C	 1.292429	 -1.381579	 -1.114270
H	 2.588630	 -2.831620	 -0.148890
H	 3.449858	 -1.645824	 -1.113341
C	 1.217350	 -0.386724	 0.039429
H	 0.404174	 -2.005173	 -1.091389
H	 1.266126	 -0.839219	 -2.057957
N	 0.000003	 0.397874	 -0.023260
H	 1.217261	 -0.929191	 0.981073
H	 2.116431	 0.238591	 0.042949
C	 -1.217365	 -0.386708	 0.039277
H	 -0.000031	 1.072115	 0.718656
C	 -2.452633	 0.504241	 -0.042481
H	 -1.215291	 -1.074557	 -0.802042
H	 -1.269739	 -1.003477	 0.942735
C	 -3.758029	 -0.289423	 -0.010781
H	 -2.394220	 1.093569	 -0.952170
H	 -2.440793	 1.210787	 0.785871
H	 -3.816659	 -0.981993	 -0.845726
H	 -4.617837	 0.370165	 -0.069296
H	 -3.847478	 -0.867502	 0.904682

	symmetry c1
}
set optking {
	frozen_dihedral = ("
		15 12 14 18
	")
}

ee = energy('scf')
oeprop('DIPOLE', 'QUADRUPOLE', 'MULLIKEN_CHARGES')
f=open( 'psi4out.xyz', 'w' )
f.write( "22  " )
f.write( str(ee) + "\n" )
f.write( MOL.save_string_xyz() )
f.close()
--------------------------------------------------------------------------

    Molecular point group: c1

    Geometry (in Angstrom), charge = 0, multiplicity = 1:

       Center              X                  Y                   Z               Mass
    ------------   -----------------  -----------------  -----------------  -----------------
           H          2.915295706317    -2.393251694126    -1.593286076577     1.007825032070
           C          2.889370706317    -1.697198694126    -0.761067076577    12.000000000000
           C          1.633298706317    -0.828347694126    -0.809476076577    12.000000000000
           H          2.929499706317    -2.278388694126     0.155903923423     1.007825032070
           H          3.790727706317    -1.092592694126    -0.808547076577     1.007825032070
           C          1.558219706317     0.166507305874     0.344222923423    12.000000000000
           H          0.745043706317    -1.451941694126    -0.786595076577     1.007825032070
           H          1.606995706317    -0.285987694126    -1.753163076577     1.007825032070
           N          0.340872706317     0.951105305874     0.281533923423    14.003074004780
           H          1.558130706317    -0.375959694126     1.285866923423     1.007825032070
           H          2.457300706317     0.791822305874     0.347742923423     1.007825032070
           C         -0.876495293683     0.166523305874     0.344070923423    12.000000000000
           H          0.340838706317     1.625346305874     1.023449923423     1.007825032070
           C         -2.111763293683     1.057472305874     0.262312923423    12.000000000000
           H         -0.874421293683    -0.521325694126    -0.497248076577     1.007825032070
           H         -0.928869293683    -0.450245694126     1.247528923423     1.007825032070
           C         -3.417159293683     0.263808305874     0.294012923423    12.000000000000
           H         -2.053350293683     1.646800305874    -0.647376076577     1.007825032070
           H         -2.099923293683     1.764018305874     1.090664923423     1.007825032070
           H         -3.475789293683    -0.428761694126    -0.540932076577     1.007825032070
           H         -4.276967293683     0.923396305874     0.235497923423     1.007825032070
           H         -3.506608293683    -0.314270694126     1.209475923423     1.007825032070

  Charge       = 0
  Multiplicity = 1
  Basis Set: 6-31G*
  Basis Set:

    Orbital Energies (a.u.)
    -----------------------

    Doubly Occupied:

       1A    -15.532476     2A    -11.238594     3A    -11.237147
       4A    -11.213457     5A    -11.211147     6A    -11.209740
       7A    -11.208754     8A     -1.206242     9A     -1.055917
      10A     -1.026823    11A     -0.928109    12A     -0.876080
      13A     -0.812545    14A     -0.782459    15A     -0.661484
      16A     -0.641167    17A     -0.615861    18A     -0.609700
      19A     -0.575417    20A     -0.554446    21A     -0.552656
      22A     -0.527030    23A     -0.502839    24A     -0.485958
      25A     -0.480296    26A     -0.472305    27A     -0.463127
      28A     -0.452928    29A     -0.355698

  @DF-RHF Final Energy:  -290.37619723682968

   => Energetics <=

    Nuclear Repulsion Energy =            319.6240379692068814
    One-Electron Energy =               -1025.0201418035562710
    Two-Electron Energy =                 415.0199065975201052
    DFT Exchange-Correlation Energy =       0.0000000000000000
    Empirical Dispersion Energy =           0.0000000000000000
    PCM Polarization Energy =               0.0000000000000000
    EFP Energy =                            0.0000000000000000
    Total Energy =                       -290.3761972368292277

  Mulliken Charges: (a.u.)
   Center  Symbol    Alpha    Beta     Spin     Total
       1     H     0.41811  0.41811  0.00000  0.16378
       2     C     3.24227  3.24227  0.00000 -0.48455
       3     C     3.15921  3.15921  0.00000 -0.31842
       4     H     0.42181  0.42181  0.00000  0.15638
       5     H     0.42160  0.42160  0.00000  0.15681
       6     C     3.05109  3.05109  0.00000 -0.10218
       7     H     0.41954  0.41954  0.00000  0.16093
       8     H     0.41528  0.41528  0.00000  0.16943
       9     N     3.85468  3.85468  0.00000 -0.70935
      10     H     0.43635  0.43635  0.00000  0.12731
      11     H     0.41917  0.41917  0.00000  0.16166
      12     C     3.05505  3.05505  0.00000 -0.11011
      13     H     0.33335  0.33335  0.00000  0.33331
      14     C     3.15371  3.15371  0.00000 -0.30743
      15     H     0.41791  0.41791  0.00000  0.16419
      16     H     0.43741  0.43741  0.00000  0.12519
      17     C     3.24332  3.24332  0.00000 -0.48664
      18     H     0.41290  0.41290  0.00000  0.17419
      19     H     0.42695  0.42695  0.00000  0.14610
      20     H     0.42089  0.42089  0.00000  0.15822
      21     H     0.41767  0.41767  0.00000  0.16466
      22     H     0.42173  0.42173  0.00000  0.15654

   Total alpha = 29.00000, Total beta = 29.00000, Total charge =  0.00000
