  ==> Input File <==

--------------------------------------------------------------------------
set {
	reference rhf
	basis 6-31G*
}

set_num_threads( 1 )
memory 2 gb

molecule MOL {
0 1

H	 -3.261111	 -0.295142	 1.469456
C	 -3.306842	 -0.277400	 0.373456
C	 -2.660244	 0.921717	 -0.272021
O	 -3.838538	 -1.161155	 -0.216482
C	 -2.228522	 0.649612	 -1.719719
H	 -3.349563	 1.755933	 -0.211761
H	 -1.782180	 1.170502	 0.322760
C	 -3.403283	 0.422701	 -2.674574
H	 -1.639026	 1.492902	 -2.067053
H	 -1.564809	 -0.213358	 -1.742637
C	 -2.958716	 0.164182	 -4.115526
H	 -4.057548	 1.291612	 -2.646659
H	 -4.003347	 -0.416759	 -2.328498
C	 -4.136525	 -0.046352	 -5.070717
H	 -2.351457	 1.000671	 -4.452059
H	 -2.313689	 -0.713102	 -4.141915
C	 -3.738572	 -0.390591	 -6.510580
H	 -4.760978	 0.845689	 -5.074607
H	 -4.759142	 -0.850121	 -4.683398
C	 -3.012878	 0.731373	 -7.255015
H	 -4.638752	 -0.648935	 -7.062742
H	 -3.117599	 -1.284074	 -6.508846
H	 -3.604135	 1.643332	 -7.258644
H	 -2.052172	 0.961657	 -6.806699
H	 -2.830562	 0.452546	 -8.288461

	symmetry c1
}
set optking {
	frozen_dihedral = ("
		6 3 5 8,
		3 5 8 12,
		12 8 11 14,
		8 11 14 18,
		20 17 14 18
	")
}

ee = energy('scf')
oeprop('DIPOLE', 'QUADRUPOLE', 'MULLIKEN_CHARGES')
f=open( 'psi4out.xyz', 'w' )
f.write( "25  " )
f.write( str(ee) + "\n" )
f.write( MOL.save_string_xyz() )
f.close()
--------------------------------------------------------------------------

    Molecular point group: c1

    Geometry (in Angstrom), charge = 0, multiplicity = 1:

       Center              X                  Y                   Z               Mass
    ------------   -----------------  -----------------  -----------------  -----------------
           H         -0.004619493995    -0.402636011276     4.531908936977     1.007825032070
           C         -0.050350493995    -0.384894011276     3.435908936977    12.000000000000
           C          0.596247506005     0.814222988724     2.790431936977    12.000000000000
           O         -0.582046493995    -1.268649011276     2.845970936977    15.994914619560
           C          1.027969506005     0.542117988724     1.342733936977    12.000000000000
           H         -0.093071493995     1.648438988724     2.850691936977     1.007825032070
           H          1.474311506005     1.063007988724     3.385212936977     1.007825032070
           C         -0.146791493995     0.315206988724     0.387878936977    12.000000000000
           H          1.617465506005     1.385407988724     0.995399936977     1.007825032070
           H          1.691682506005    -0.320852011276     1.319815936977     1.007825032070
           C          0.297775506005     0.056687988724    -1.053073063023    12.000000000000
           H         -0.801056493995     1.184117988724     0.415793936977     1.007825032070
           H         -0.746855493995    -0.524253011276     0.733954936977     1.007825032070
           C         -0.880033493995    -0.153846011276    -2.008264063023    12.000000000000
           H          0.905034506005     0.893176988724    -1.389606063023     1.007825032070
           H          0.942802506005    -0.820596011276    -1.079462063023     1.007825032070
           C         -0.482080493995    -0.498085011276    -3.448127063023    12.000000000000
           H         -1.504486493995     0.738194988724    -2.012154063023     1.007825032070
           H         -1.502650493995    -0.957615011276    -1.620945063023     1.007825032070
           C          0.243613506005     0.623878988724    -4.192562063023    12.000000000000
           H         -1.382260493995    -0.756429011276    -4.000289063023     1.007825032070
           H          0.138892506005    -1.391568011276    -3.446393063023     1.007825032070
           H         -0.347643493995     1.535837988724    -4.196191063023     1.007825032070
           H          1.204319506005     0.854162988724    -3.744246063023     1.007825032070
           H          0.425929506005     0.345051988724    -5.226008063023     1.007825032070

  Charge       = 0
  Multiplicity = 1
  Basis Set: 6-31G*
  Basis Set:

    Orbital Energies (a.u.)
    -----------------------

    Doubly Occupied:

       1A    -20.565403     2A    -11.330243     3A    -11.237313
       4A    -11.223240     5A    -11.210834     6A    -11.208072
       7A    -11.207282     8A    -11.204824     9A    -11.204126
      10A     -1.407431    11A     -1.091801    12A     -1.062125
      13A     -1.007263    14A     -0.939182    15A     -0.873029
      16A     -0.810326    17A     -0.775943    18A     -0.767643
      19A     -0.685987    20A     -0.654578    21A     -0.626474
      22A     -0.614127    23A     -0.605706    24A     -0.583140
      25A     -0.553283    26A     -0.551164    27A     -0.534863
      28A     -0.513743    29A     -0.502719    30A     -0.496142
      31A     -0.480464    32A     -0.470353    33A     -0.455042
      34A     -0.450090    35A     -0.432830    36A     -0.404110

  @DF-RHF Final Energy:  -387.11920166097929

   => Energetics <=

    Nuclear Repulsion Energy =            446.8410976426720822
    One-Electron Energy =               -1410.4389505153326354
    Two-Electron Energy =                 576.4786512116806989
    DFT Exchange-Correlation Energy =       0.0000000000000000
    Empirical Dispersion Energy =           0.0000000000000000
    PCM Polarization Energy =               0.0000000000000000
    EFP Energy =                            0.0000000000000000
    Total Energy =                       -387.1192016609797975

  Mulliken Charges: (a.u.)
   Center  Symbol    Alpha    Beta     Spin     Total
       1     H     0.42708  0.42708  0.00000  0.14585
       2     C     2.83787  2.83787  0.00000  0.32425
       3     C     3.21239  3.21239  0.00000 -0.42478
       4     O     4.23581  4.23581  0.00000 -0.47161
       5     C     3.15436  3.15436  0.00000 -0.30871
       6     H     0.40130  0.40130  0.00000  0.19740
       7     H     0.41016  0.41016  0.00000  0.17967
       8     C     3.16071  3.16071  0.00000 -0.32142
       9     H     0.41889  0.41889  0.00000  0.16222
      10     H     0.41630  0.41630  0.00000  0.16739
      11     C     3.15394  3.15394  0.00000 -0.30789
      12     H     0.42951  0.42951  0.00000  0.14099
      13     H     0.39307  0.39307  0.00000  0.21386
      14     C     3.15257  3.15257  0.00000 -0.30515
      15     H     0.42535  0.42535  0.00000  0.14929
      16     H     0.42379  0.42379  0.00000  0.15242
      17     C     3.15222  3.15222  0.00000 -0.30445
      18     H     0.42552  0.42552  0.00000  0.14897
      19     H     0.41992  0.41992  0.00000  0.16016
      20     C     3.24077  3.24077  0.00000 -0.48154
      21     H     0.42159  0.42159  0.00000  0.15681
      22     H     0.42330  0.42330  0.00000  0.15340
      23     H     0.42302  0.42302  0.00000  0.15396
      24     H     0.42049  0.42049  0.00000  0.15901
      25     H     0.42005  0.42005  0.00000  0.15990

   Total alpha = 36.00000, Total beta = 36.00000, Total charge = -0.00000
