                              Psi4 1.0.54 Driver

  ==> Input File <==

--------------------------------------------------------------------------
set {
	reference rhf
	basis cc-pvtz
}

set_num_threads( 4 )
memory 2 gb

molecule MOL {
0 1

O	 1.350489	 2.156853	 -0.033347
C	 0.262881	 2.619650	 -0.096319
C	 -1.024019	 1.835098	 -0.093622
O	 0.032707	 3.919869	 -0.179195
C	 -0.824290	 0.329213	 -0.000115
H	 -1.622959	 2.204211	 0.732499
H	 -1.565869	 2.104579	 -0.994299
C	 -2.146151	 -0.432825	 -0.000068
H	 -0.265922	 0.098046	 0.899919
H	 -0.208536	 -0.001665	 -0.828762
C	 -3.366283	 0.483552	 0.000557
H	 -2.189286	 -1.084450	 -0.869996
H	 -2.188867	 -1.085083	 0.869399
C	 -4.687436	 -0.278003	 0.000108
H	 -3.325150	 1.134819	 -0.867957
H	 -3.325087	 1.133730	 0.869885
H	 -4.773783	 -0.912098	 -0.876078
H	 -5.531922	 0.401392	 0.000363
H	 -4.773901	 -0.912898	 0.875703
C	 1.155427	 4.778165	 -0.191461
H	 1.730805	 4.666332	 0.715538
H	 0.763557	 5.779785	 -0.262476
H	 1.789249	 4.564788	 -1.039372

	symmetry c1
}
set optking {
	frozen_dihedral = ("
		9 5 8 12
	")
}

ee,wfn = optimize('scf', return_wfn=True)
oeprop( wfn, 'DIPOLE', 'QUADRUPOLE', 'MULLIKEN_CHARGES')
f=open( 'psi4out.xyz', 'w' )
f.write( "23  " )
f.write( str(ee) + "\n" )
f.write( MOL.save_string_xyz() )
f.close()
--------------------------------------------------------------------------

    Molecular point group: c1
  Charge       = 0
  Multiplicity = 1
  Basis Set: CC-PVTZ
  Basis Set:
  @DF-RHF Final Energy:  -423.11550254972354
    Total Energy =                       -423.1155025497234874
    Molecular point group: c1
  Basis Set: CC-PVTZ
  Basis Set:
  Basis Set: CC-PVTZ
  Basis Set:
  @DF-RHF Final Energy:  -423.10990513090201
    Total Energy =                       -423.1099051309016659
  Basis Set: CC-PVTZ
  Basis Set:
  Basis Set: CC-PVTZ
  Basis Set:
  @DF-RHF Final Energy:  -423.11996338777845
    Total Energy =                       -423.1199633877786255
  Basis Set: CC-PVTZ
  Basis Set:
  Basis Set: CC-PVTZ
  Basis Set:
  @DF-RHF Final Energy:  -423.12080651086495
    Total Energy =                       -423.1208065108647816
  Basis Set: CC-PVTZ
  Basis Set:
  Basis Set: CC-PVTZ
  Basis Set:
  @DF-RHF Final Energy:  -423.12081411003260
    Total Energy =                       -423.1208141100320290
  Basis Set: CC-PVTZ
  Basis Set:
  Basis Set: CC-PVTZ
  Basis Set:
  @DF-RHF Final Energy:  -423.12078384140057
    Total Energy =                       -423.1207838414001117
  Basis Set: CC-PVTZ
  Basis Set:
  Basis Set: CC-PVTZ
  Basis Set:
  @DF-RHF Final Energy:  -423.12094838206036
    Total Energy =                       -423.1209483820607602
  Basis Set: CC-PVTZ
  Basis Set:
  Charge       = 0
  Multiplicity = 1
  Basis Set: CC-PVTZ
  Basis Set:

    Orbital Energies (a.u.)
    -----------------------

    Doubly Occupied:

       1A    -20.595872     2A    -20.533838     3A    -11.364193
       4A    -11.278218     5A    -11.233315     6A    -11.217700
       7A    -11.217216     8A    -11.215783     9A    -11.209292
      10A     -1.471845    11A     -1.365417    12A     -1.091388
      13A     -1.043196    14A     -0.986894    15A     -0.933293
      16A     -0.854837    17A     -0.793196    18A     -0.760616
      19A     -0.701068    20A     -0.686366    21A     -0.674273
      22A     -0.650069    23A     -0.609078    24A     -0.602769
      25A     -0.579093    26A     -0.560155    27A     -0.551194
      28A     -0.525872    29A     -0.523643    30A     -0.513868
      31A     -0.496455    32A     -0.467906    33A     -0.461613
      34A     -0.458303    35A     -0.448688    36A     -0.440773

  @DF-RHF Final Energy:  -423.12095021879145

   => Energetics <=

    Nuclear Repulsion Energy =            458.7614763257510049
    One-Electron Energy =               -1485.5302606545233175
    Two-Electron Energy =                 603.6478341099812042
    DFT Exchange-Correlation Energy =       0.0000000000000000
    Empirical Dispersion Energy =           0.0000000000000000
    PCM Polarization Energy =               0.0000000000000000
    EFP Energy =                            0.0000000000000000
    Total Energy =                       -423.1209502187909948
    Molecular point group: c1
  Basis Set: CC-PVTZ
  Basis Set:

  -Total Gradient:
     Atom            X                  Y                   Z
    ------   -----------------  -----------------  -----------------
       1        0.000024225623     0.000055275874    -0.000005184802
       2       -0.000087280583    -0.000007186039    -0.000003321490
       3        0.000018799879    -0.000032603670    -0.000027525828
       4        0.000029746286    -0.000088063573    -0.000010048378
       5       -0.001279422917     0.001853053684     0.001757037488
       6       -0.000007863824    -0.000007719450     0.000009418470
       7        0.000012098327     0.000001723352     0.000017321667
       8       -0.001112785769     0.001783109881    -0.001885864669
       9        0.001227464952    -0.001828246899    -0.001177113420
      10        0.000004333195     0.000026600332     0.000002322985
      11        0.000014342072    -0.000037414059    -0.000005492564
      12        0.001118434617    -0.001781423614     0.001313473747
      13       -0.000011242531    -0.000001850947    -0.000003368288
      14       -0.000008926339     0.000018114252     0.000007181287
      15        0.000005697384    -0.000002532499     0.000005690838
      16       -0.000002619422     0.000000554321    -0.000004503609
      17        0.000000899571     0.000001596946     0.000003753259
      18        0.000017691892    -0.000010805041    -0.000000664140
      19       -0.000001118651     0.000000419229    -0.000003981035
      20        0.000037587549     0.000057634494     0.000018289337
      21       -0.000005841915     0.000000698954    -0.000016778222
      22        0.000021840323     0.000005923387    -0.000001131503
      23       -0.000016059720    -0.000006858912     0.000010488873

  **** Optimization is complete! (in 8 steps) ****
    Final optimized geometry and variables:
    Molecular point group: c1

    Geometry (in Angstrom), charge = 0, multiplicity = 1:

    O            2.360468705756     0.451893923883     0.082052017554
    C            1.290840547769     0.946529450609    -0.028215197020
    C           -0.023361081933     0.207293318814    -0.055804856224
    O            1.106637843805     2.251912354338    -0.144990062883
    C            0.143028050481    -1.302130859092     0.075530899956
    H           -0.632514586300     0.622596405150     0.737824998970
    H           -0.515920635743     0.480482786678    -0.981740220419
    C           -1.157028067219    -2.147656964341     0.047826257564
    H            0.694597283136    -1.514362643129     0.981999152870
    H            0.793467535864    -1.633441834689    -0.723884137516
    C           -2.494570293799    -1.408928396065     0.091829365493
    H           -1.141353235147    -2.786613079623    -0.829220162577
    H           -1.131282706161    -2.831665458194     0.890271951445
    C           -3.679445426200    -2.369612854044     0.076916580688
    H           -2.579769366843    -0.732188628917    -0.752042706682
    H           -2.550537629787    -0.794579811330     0.985226652969
    H           -3.677337965610    -2.979220529816    -0.820471262050
    H           -4.620031301052    -1.832006212044     0.109418119439
    H           -3.651206769846    -3.039498255970     0.929724033791
    C            2.256791922702     3.072941267922    -0.134783332285
    H            2.796457692568     2.961967657140     0.794008648532
    H            1.901187956028     4.085086716616    -0.239790143242
    H            2.912323065002     2.821195817844    -0.955219659991

  Mulliken Charges: (a.u.)
   Center  Symbol    Alpha    Beta     Spin     Total
       1     O     4.19697  4.19697  0.00000 -0.39394
       2     C     2.81344  2.81344  0.00000  0.37313
       3     C     3.09840  3.09840  0.00000 -0.19680
       4     O     4.14614  4.14614  0.00000 -0.29229
       5     C     3.09230  3.09230  0.00000 -0.18460
       6     H     0.43738  0.43738  0.00000  0.12523
       7     H     0.43812  0.43812  0.00000  0.12375
       8     C     3.09467  3.09467  0.00000 -0.18934
       9     H     0.44300  0.44300  0.00000  0.11399
      10     H     0.44329  0.44329  0.00000  0.11342
      11     C     3.09101  3.09101  0.00000 -0.18202
      12     H     0.45029  0.45029  0.00000  0.09942
      13     H     0.45027  0.45027  0.00000  0.09945
      14     C     3.15087  3.15087  0.00000 -0.30174
      15     H     0.45263  0.45263  0.00000  0.09474
      16     H     0.45252  0.45252  0.00000  0.09497
      17     H     0.45444  0.45444  0.00000  0.09112
      18     H     0.44768  0.44768  0.00000  0.10463
      19     H     0.45412  0.45412  0.00000  0.09175
      20     C     3.03870  3.03870  0.00000 -0.07739
      21     H     0.45431  0.45431  0.00000  0.09137
      22     H     0.44516  0.44516  0.00000  0.10967
      23     H     0.45427  0.45427  0.00000  0.09145

   Total alpha = 36.00000, Total beta = 36.00000, Total charge = -0.00000

*** Psi4 exiting successfully. Buy a developer a beer!
