  ==> Input File <==

--------------------------------------------------------------------------
set {
	reference rhf
	basis 6-31G*
}

set_num_threads( 1 )
memory 2 gb

molecule MOL {
0 1

O	 -2.821601	 1.309235	 -0.001213
C	 -2.668563	 0.129746	 -0.000350
C	 -3.801572	 -0.864014	 -0.000442
O	 -1.481751	 -0.454642	 0.000584
H	 -4.417280	 -0.689587	 -0.874708
H	 -3.443784	 -1.883046	 -0.000565
H	 -4.417179	 -0.689832	 0.873954
C	 -0.334255	 0.388708	 0.000906
C	 0.891947	 -0.504646	 0.000751
H	 -0.365390	 1.025305	 -0.873475
H	 -0.365484	 1.024911	 0.875569
C	 2.191998	 0.301789	 0.000897
H	 0.855148	 -1.151283	 -0.871571
H	 0.855132	 -1.151660	 0.872805
C	 3.441114	 -0.581407	 0.000108
H	 2.215074	 0.954890	 -0.869742
H	 2.215465	 0.953923	 0.872248
C	 4.510603	 -0.100606	 0.979848
H	 3.858404	 -0.612560	 -1.003871
H	 3.159029	 -1.602812	 0.245526
H	 4.838034	 0.906942	 0.739744
H	 5.382966	 -0.746100	 0.956307
H	 4.133532	 -0.091074	 1.998542

	symmetry c1
}
set optking {
	frozen_dihedral = ("
		13 9 8 10,
		2 4 8 10,
		16 12 9 13,
		1 2 4 8
	")
}

ee = energy('scf')
oeprop('DIPOLE', 'QUADRUPOLE', 'MULLIKEN_CHARGES')
f=open( 'psi4out.xyz', 'w' )
f.write( "23  " )
f.write( str(ee) + "\n" )
f.write( MOL.save_string_xyz() )
f.close()
--------------------------------------------------------------------------

    Molecular point group: c1

    Geometry (in Angstrom), charge = 0, multiplicity = 1:

       Center              X                  Y                   Z               Mass
    ------------   -----------------  -----------------  -----------------  -----------------
           O         -2.795164861974     1.346724497102    -0.114467419804    15.994914619560
           C         -2.642126861974     0.167235497102    -0.113604419804    12.000000000000
           C         -3.775135861974    -0.826524502898    -0.113696419804    12.000000000000
           O         -1.455314861974    -0.417152502898    -0.112670419804    15.994914619560
           H         -4.390843861974    -0.652097502898    -0.987962419804     1.007825032070
           H         -3.417347861974    -1.845556502898    -0.113819419804     1.007825032070
           H         -4.390742861974    -0.652342502898     0.760699580196     1.007825032070
           C         -0.307818861974     0.426197497102    -0.112348419804    12.000000000000
           C          0.918383138026    -0.467156502898    -0.112503419804    12.000000000000
           H         -0.338953861974     1.062794497102    -0.986729419804     1.007825032070
           H         -0.339047861974     1.062400497102     0.762314580196     1.007825032070
           C          2.218434138026     0.339278497102    -0.112357419804    12.000000000000
           H          0.881584138026    -1.113793502898    -0.984825419804     1.007825032070
           H          0.881568138026    -1.114170502898     0.759550580196     1.007825032070
           C          3.467550138026    -0.543917502898    -0.113146419804    12.000000000000
           H          2.241510138026     0.992379497102    -0.982996419804     1.007825032070
           H          2.241901138026     0.991412497102     0.758993580196     1.007825032070
           C          4.537039138026    -0.063116502898     0.866593580196    12.000000000000
           H          3.884840138026    -0.575070502898    -1.117125419804     1.007825032070
           H          3.185465138026    -1.565322502898     0.132271580196     1.007825032070
           H          4.864470138026     0.944431497102     0.626489580196     1.007825032070
           H          5.409402138026    -0.708610502898     0.843052580196     1.007825032070
           H          4.159968138026    -0.053584502898     1.885287580196     1.007825032070

  Charge       = 0
  Multiplicity = 1
  Basis Set: 6-31G*
  Basis Set:

    Orbital Energies (a.u.)
    -----------------------

    Doubly Occupied:

       1A    -20.602893     2A    -20.540478     3A    -11.374005
       4A    -11.281076     5A    -11.232355     6A    -11.224589
       7A    -11.222565     8A    -11.220276     9A    -11.213185
      10A     -1.467876    11A     -1.360661    12A     -1.094319
      13A     -1.042024    14A     -1.003123    15A     -0.930665
      16A     -0.843239    17A     -0.802023    18A     -0.774074
      19A     -0.691594    20A     -0.685199    21A     -0.668613
      22A     -0.641395    23A     -0.609060    24A     -0.591971
      25A     -0.581964    26A     -0.570305    27A     -0.552853
      28A     -0.535070    29A     -0.525740    30A     -0.504068
      31A     -0.497535    32A     -0.475537    33A     -0.465392
      34A     -0.464344    35A     -0.451245    36A     -0.435157

  @DF-RHF Final Energy:  -422.97460109182794

   => Energetics <=

    Nuclear Repulsion Energy =            450.5232459696393335
    One-Electron Energy =               -1468.6428417855076987
    Two-Electron Energy =                 595.1449947240395204
    DFT Exchange-Correlation Energy =       0.0000000000000000
    Empirical Dispersion Energy =           0.0000000000000000
    PCM Polarization Energy =               0.0000000000000000
    EFP Energy =                            0.0000000000000000
    Total Energy =                       -422.9746010918288448

  Mulliken Charges: (a.u.)
   Center  Symbol    Alpha    Beta     Spin     Total
       1     O     4.28391  4.28391  0.00000 -0.56782
       2     C     2.61533  2.61533  0.00000  0.76934
       3     C     3.28774  3.28774  0.00000 -0.57547
       4     O     4.31268  4.31268  0.00000 -0.62536
       5     H     0.39751  0.39751  0.00000  0.20499
       6     H     0.39989  0.39989  0.00000  0.20022
       7     H     0.39752  0.39752  0.00000  0.20496
       8     C     2.99616  2.99616  0.00000  0.00767
       9     C     3.16717  3.16717  0.00000 -0.33434
      10     H     0.41069  0.41069  0.00000  0.17862
      11     H     0.41064  0.41064  0.00000  0.17873
      12     C     3.16275  3.16275  0.00000 -0.32549
      13     H     0.41376  0.41376  0.00000  0.17249
      14     H     0.41399  0.41399  0.00000  0.17203
      15     C     3.15353  3.15353  0.00000 -0.30707
      16     H     0.41839  0.41839  0.00000  0.16321
      17     H     0.41861  0.41861  0.00000  0.16278
      18     C     3.24102  3.24102  0.00000 -0.48203
      19     H     0.41897  0.41897  0.00000  0.16205
      20     H     0.41921  0.41921  0.00000  0.16157
      21     H     0.42042  0.42042  0.00000  0.15917
      22     H     0.41907  0.41907  0.00000  0.16187
      23     H     0.42105  0.42105  0.00000  0.15790

   Total alpha = 36.00000, Total beta = 36.00000, Total charge = -0.00000
