  ==> Input File <==

--------------------------------------------------------------------------
set {
	reference rhf
	basis 6-31G*
}

set_num_threads( 4 )
memory 2 gb

molecule MOL {
0 1

H	 1.962459	 0.407796	 0.508167
C	 1.121015	 0.448768	 -0.169769
O	 0.000000	 0.000000	 0.521119
H	 0.994204	 1.474619	 -0.512168
H	 1.334226	 -0.178268	 -1.034094
C	 -1.165642	 0.000000	 -0.238270
H	 -1.228672	 0.883184	 -0.872070
H	 -2.003012	 0.000000	 0.445920
H	 -1.228672	 -0.883184	 -0.872070

	symmetry c1
}
set optking {
	frozen_dihedral = ("
		2 3 6 7
	")
}

ee = optimize('scf')
oeprop('DIPOLE', 'QUADRUPOLE', 'MULLIKEN_CHARGES')
f=open( 'psi4out.xyz', 'w' )
f.write( "9  " )
f.write( str(ee) + "\n" )
f.write( MOL.save_string_xyz() )
f.close()
--------------------------------------------------------------------------

    Molecular point group: c1
  Charge       = 0
  Multiplicity = 1
  Basis Set: 6-31G*
  Basis Set:
  @DF-RHF Final Energy:  -154.06350444755662
    Total Energy =                       -154.0635044475565962
    Molecular point group: c1
  Basis Set: 6-31G*
  Basis Set:
  Basis Set: 6-31G*
  Basis Set:
  @DF-RHF Final Energy:  -154.06355195098544
    Total Energy =                       -154.0635519509854134
  Basis Set: 6-31G*
  Basis Set:
  Charge       = 0
  Multiplicity = 1
  Basis Set: 6-31G*
  Basis Set:

    Orbital Energies (a.u.)
    -----------------------

    Doubly Occupied:

       1A    -20.555301     2A    -11.265451     3A    -11.265156
       4A     -1.378075     5A     -0.974894     6A     -0.873078
       7A     -0.660148     8A     -0.654149     9A     -0.644871
      10A     -0.553070    11A     -0.529712    12A     -0.474785
      13A     -0.415516

  @DF-RHF Final Energy:  -154.06356673691386

   => Energetics <=

    Nuclear Repulsion Energy =             84.6923812015327115
    One-Electron Energy =                -377.0234831535716467
    Two-Electron Energy =                 138.2675352151250081
    DFT Exchange-Correlation Energy =       0.0000000000000000
    Empirical Dispersion Energy =           0.0000000000000000
    PCM Polarization Energy =               0.0000000000000000
    EFP Energy =                            0.0000000000000000
    Total Energy =                       -154.0635667369139128
    Molecular point group: c1
  Basis Set: 6-31G*
  Basis Set:

  -Total Gradient:
     Atom            X                  Y                   Z
    ------   -----------------  -----------------  -----------------
       1       -0.000064813029    -0.000030882410     0.000037376385
       2       -0.000426811660     0.002121933218     0.000523014721
       3        0.001032743163    -0.003395035340    -0.001394274711
       4        0.000005050518     0.000006251558     0.000016926556
       5        0.000015896434     0.000002215802     0.000017726352
       6       -0.001779925905     0.002674173606     0.002803895228
       7        0.001263076029    -0.001432372568    -0.002070531176
       8       -0.000028487800    -0.000003877952     0.000040558857
       9       -0.000016727749     0.000057594085     0.000025307787

  **** Optimization is complete! (in 3 steps) ****
    Final optimized geometry and variables:
    Molecular point group: c1

    Geometry (in Angstrom), charge = 0, multiplicity = 1:

    H            1.978673358183     0.248855392724     0.486866267557
    C            1.140388738150     0.290826562848    -0.194894476513
    O            0.016044393302    -0.150791750541     0.495637247804
    H            1.017086577805     1.315788144158    -0.539746488413
    H            1.357837599333    -0.338831830959    -1.056425836475
    C           -1.155671076162    -0.152929753878    -0.257628718310
    H           -1.224517008102     0.725021374586    -0.896649795082
    H           -1.993664302378    -0.167496390753     0.425749112177
    H           -1.208088209078    -1.032075862236    -0.897799901346

  Mulliken Charges: (a.u.)
   Center  Symbol    Alpha    Beta     Spin     Total
       1     H     0.41198  0.41198  0.00000  0.17605
       2     C     3.08009  3.08009  0.00000 -0.16018
       3     O     4.29643  4.29643  0.00000 -0.59286
       4     H     0.42963  0.42963  0.00000  0.14074
       5     H     0.43056  0.43056  0.00000  0.13889
       6     C     3.07925  3.07925  0.00000 -0.15850
       7     H     0.43138  0.43138  0.00000  0.13724
       8     H     0.41265  0.41265  0.00000  0.17470
       9     H     0.42803  0.42803  0.00000  0.14393

   Total alpha = 13.00000, Total beta = 13.00000, Total charge =  0.00000
