  ==> Input File <==

--------------------------------------------------------------------------
set {
	reference rhf
	basis cc-pvtz
}

set_num_threads( 4 )
memory 2 gb

molecule MOL {
0 1

O	 -0.294688	 1.318815	 -0.000872
C	 -0.448732	 0.145721	 -0.000187
C	 -1.780748	 -0.548101	 0.000195
O	 0.550743	 -0.719877	 0.000412
H	 -1.859389	 -1.183260	 -0.872613
H	 -2.570236	 0.185547	 -0.001342
H	 -1.860233	 -1.180337	 0.875064
C	 1.850686	 -0.208336	 0.218444
H	 2.113225	 0.503768	 -0.549678
H	 2.514083	 -1.057030	 0.182317
H	 1.913239	 0.273723	 1.182668

	symmetry c1
}
set optking {
	frozen_dihedral = ("
		8 4 2 1
	")
}

ee = optimize('scf')
oeprop('DIPOLE', 'QUADRUPOLE', 'MULLIKEN_CHARGES')
f=open( 'psi4out.xyz', 'w' )
f.write( "11  " )
f.write( str(ee) + "\n" )
f.write( MOL.save_string_xyz() )
f.close()
--------------------------------------------------------------------------

    Molecular point group: c1
  Charge       = 0
  Multiplicity = 1
  Basis Set: CC-PVTZ
  Basis Set:
  @DF-RHF Final Energy:  -266.93859992700868
    Total Energy =                       -266.9385999270085676
    Molecular point group: c1
  Basis Set: CC-PVTZ
  Basis Set:
  Basis Set: CC-PVTZ
  Basis Set:
  @DF-RHF Final Energy:  -266.93740502147625
    Total Energy =                       -266.9374050214762519
  Basis Set: CC-PVTZ
  Basis Set:
  Basis Set: CC-PVTZ
  Basis Set:
  @DF-RHF Final Energy:  -266.93867412824761
    Total Energy =                       -266.9386741282474986
  Basis Set: CC-PVTZ
  Basis Set:
  Basis Set: CC-PVTZ
  Basis Set:
  @DF-RHF Final Energy:  -266.93867889483579
    Total Energy =                       -266.9386788948357889
  Basis Set: CC-PVTZ
  Basis Set:
  Basis Set: CC-PVTZ
  Basis Set:
  @DF-RHF Final Energy:  -266.93868066683291
    Total Energy =                       -266.9386806668325676
  Basis Set: CC-PVTZ
  Basis Set:
  Basis Set: CC-PVTZ
  Basis Set:
  @DF-RHF Final Energy:  -266.93868251485810
    Total Energy =                       -266.9386825148581011
  Basis Set: CC-PVTZ
  Basis Set:
  Charge       = 0
  Multiplicity = 1
  Basis Set: CC-PVTZ
  Basis Set:

    Orbital Energies (a.u.)
    -----------------------

    Doubly Occupied:

       1A    -20.598298     2A    -20.535592     3A    -11.368933
       4A    -11.280235     5A    -11.233305     6A     -1.473992
       7A     -1.367777     8A     -1.036844     9A     -0.953845
      10A     -0.780201    11A     -0.698124    12A     -0.684417
      13A     -0.681080    14A     -0.596185    15A     -0.593620
      16A     -0.562178    17A     -0.528252    18A     -0.523986
      19A     -0.462241    20A     -0.445896

  @DF-RHF Final Energy:  -266.93868313127348

   => Energetics <=

    Nuclear Repulsion Energy =            183.6776872778781353
    One-Electron Energy =                -728.4227320335977538
    Two-Electron Energy =                 277.8063616244462537
    DFT Exchange-Correlation Energy =       0.0000000000000000
    Empirical Dispersion Energy =           0.0000000000000000
    PCM Polarization Energy =               0.0000000000000000
    EFP Energy =                            0.0000000000000000
    Total Energy =                       -266.9386831312733648
    Molecular point group: c1
  Basis Set: CC-PVTZ
  Basis Set:

  -Total Gradient:
     Atom            X                  Y                   Z
    ------   -----------------  -----------------  -----------------
       1       -0.000068905602     0.000061969483    -0.003385401675
       2       -0.000063698539    -0.000270927311     0.006241136718
       3        0.000021959562     0.000000839238     0.000105202631
       4        0.000391500792     0.000626343564    -0.005540801562
       5       -0.000024290775     0.000042753990    -0.000020096696
       6       -0.000004109761    -0.000006781520    -0.000032536604
       7        0.000022145635    -0.000033167258    -0.000007869528
       8       -0.000282274938    -0.000433997095     0.002700681343
       9        0.000007741729     0.000013913093    -0.000018446492
      10        0.000000077128    -0.000000949381    -0.000016010475
      11       -0.000000145231     0.000000003198    -0.000025857661

  **** Optimization is complete! (in 7 steps) ****
    Final optimized geometry and variables:
    Molecular point group: c1

    Geometry (in Angstrom), charge = 0, multiplicity = 1:

    O           -0.295298884023     1.321746400106    -0.001399460567
    C           -0.447228334791     0.148896987383    -0.029616912795
    C           -1.777890690044    -0.546450165438    -0.061193506389
    O            0.554393297957    -0.714574476682    -0.066058084981
    H           -1.832370039994    -1.188919234434    -0.930251711919
    H           -2.568245463521     0.185794234273    -0.088323843524
    H           -1.879395662850    -1.171656990872     0.816743623587
    C            1.856321344551    -0.205986331890     0.147109087457
    H            2.130461029735     0.485828735686    -0.635165326294
    H            2.514597688497    -1.059375168574     0.136755414725
    H            1.914146876899     0.298310934138     1.100503445771

  Mulliken Charges: (a.u.)
   Center  Symbol    Alpha    Beta     Spin     Total
       1     O     4.19594  4.19594  0.00000 -0.39188
       2     C     2.80185  2.80185  0.00000  0.39630
       3     C     3.13778  3.13778  0.00000 -0.27555
       4     O     4.14821  4.14821  0.00000 -0.29643
       5     H     0.44477  0.44477  0.00000  0.11047
       6     H     0.43792  0.43792  0.00000  0.12416
       7     H     0.44630  0.44630  0.00000  0.10740
       8     C     3.03338  3.03338  0.00000 -0.06677
       9     H     0.45230  0.45230  0.00000  0.09540
      10     H     0.44547  0.44547  0.00000  0.10905
      11     H     0.45608  0.45608  0.00000  0.08784

   Total alpha = 20.00000, Total beta = 20.00000, Total charge = -0.00000
