  ==> Input File <==

--------------------------------------------------------------------------
set {
	reference rhf
	basis 6-31G*
}

set_num_threads( 4 )
memory 2 gb

molecule MOL {
0 1

O	 3.225979	 0.970355	 -0.599647
C	 2.701189	 0.057885	 -0.047330
C	 1.245376	 -0.013843	 0.345420
O	 3.347903	 -1.046386	 0.304773
C	 0.455112	 1.231400	 -0.050772
H	 0.838542	 -0.913825	 -0.103701
H	 1.208210	 -0.175333	 1.419774
C	 -0.998893	 1.219485	 0.433193
H	 0.482531	 1.345121	 -1.130325
H	 0.957290	 2.103070	 0.354729
C	 -1.883438	 0.145884	 -0.207175
H	 -1.431207	 2.195402	 0.224832
H	 -1.019646	 1.105716	 1.516076
C	 -3.358182	 0.548844	 -0.268442
H	 -1.524609	 -0.059000	 -1.214689
H	 -1.797309	 -0.788035	 0.343598
C	 -4.252392	 -0.518617	 -0.901726
H	 -3.454610	 1.476525	 -0.829997
H	 -3.714719	 0.764249	 0.737630
C	 -5.722913	 -0.106835	 -0.962584
H	 -3.896907	 -0.735796	 -1.906766
H	 -4.160694	 -1.445407	 -0.339204
H	 -6.330881	 -0.883539	 -1.416140
H	 -5.852475	 0.798823	 -1.548411
H	 -6.118018	 0.084314	 0.031211
C	 4.728119	 -1.109107	 -0.004993
H	 4.882018	 -1.033965	 -1.071845
H	 5.068212	 -2.067527	 0.355250
H	 5.265056	 -0.311663	 0.488280

	symmetry c1
}
set optking {
	frozen_dihedral = ("
		15 11 8 5
	")
}

ee = optimize('scf')
oeprop('DIPOLE', 'QUADRUPOLE', 'MULLIKEN_CHARGES')
f=open( 'psi4out.xyz', 'w' )
f.write( "29  " )
f.write( str(ee) + "\n" )
f.write( MOL.save_string_xyz() )
f.close()
--------------------------------------------------------------------------

    Molecular point group: c1
  Charge       = 0
  Multiplicity = 1
  Basis Set: 6-31G*
  Basis Set:
  @DF-RHF Final Energy:  -501.04226489619657
    Total Energy =                       -501.0422648961963432
    Molecular point group: c1
  Basis Set: 6-31G*
  Basis Set:
  Basis Set: 6-31G*
  Basis Set:
  @DF-RHF Final Energy:  -501.04232486896569
    Total Energy =                       -501.0423248689659204
  Basis Set: 6-31G*
  Basis Set:
  Basis Set: 6-31G*
  Basis Set:
  @DF-RHF Final Energy:  -501.04247180413802
    Total Energy =                       -501.0424718041376764
  Basis Set: 6-31G*
  Basis Set:
  Basis Set: 6-31G*
  Basis Set:
  @DF-RHF Final Energy:  -501.04238269003940
    Total Energy =                       -501.0423826900394033
  Basis Set: 6-31G*
  Basis Set:
  @DF-RHF Final Energy:  -501.04217674049062
    Total Energy =                       -501.0421767404909588
  Basis Set: 6-31G*
  Basis Set:
  @DF-RHF Final Energy:  -501.04251013150963
    Total Energy =                       -501.0425101315092888
  Basis Set: 6-31G*
  Basis Set:
  Basis Set: 6-31G*
  Basis Set:
  @DF-RHF Final Energy:  -501.04249582806301
    Total Energy =                       -501.0424958280631245
  Basis Set: 6-31G*
  Basis Set:
  Basis Set: 6-31G*
  Basis Set:
  @DF-RHF Final Energy:  -501.04251887068631
    Total Energy =                       -501.0425188706863082
  Basis Set: 6-31G*
  Basis Set:
  Charge       = 0
  Multiplicity = 1
  Basis Set: 6-31G*
  Basis Set:

    Orbital Energies (a.u.)
    -----------------------

    Doubly Occupied:

       1A    -20.603282     2A    -20.545085     3A    -11.371846
       4A    -11.280595     5A    -11.234528     6A    -11.219148
       7A    -11.217375     8A    -11.216128     9A    -11.215823
      10A    -11.214743    11A    -11.209036    12A     -1.468956
      13A     -1.362394    14A     -1.097831    15A     -1.066782
      16A     -1.018886    17A     -0.977035    18A     -0.928480
      19A     -0.861883    20A     -0.799923    21A     -0.790767
      22A     -0.763396    23A     -0.699914    24A     -0.682416
      25A     -0.671859    26A     -0.650974    27A     -0.628527
      28A     -0.605031    29A     -0.592987    30A     -0.580756
      31A     -0.566722    32A     -0.550790    33A     -0.531702
      34A     -0.529228    35A     -0.517722    36A     -0.512247
      37A     -0.494175    38A     -0.478125    39A     -0.471255
      40A     -0.460957    41A     -0.457946    42A     -0.456072
      43A     -0.441409    44A     -0.434922

  @DF-RHF Final Energy:  -501.04251879130356

   => Energetics <=

    Nuclear Repulsion Energy =            610.5060711340663602
    One-Electron Energy =               -1892.1378598677565606
    Two-Electron Energy =                 780.5892699423858403
    DFT Exchange-Correlation Energy =       0.0000000000000000
    Empirical Dispersion Energy =           0.0000000000000000
    PCM Polarization Energy =               0.0000000000000000
    EFP Energy =                            0.0000000000000000
    Total Energy =                       -501.0425187913043601
    Molecular point group: c1
  Basis Set: 6-31G*
  Basis Set:

  -Total Gradient:
     Atom            X                  Y                   Z
    ------   -----------------  -----------------  -----------------
       1       -0.000003931409    -0.000008901097    -0.000011118685
       2        0.000012895386     0.000020577762     0.000049432582
       3       -0.000006345339    -0.000018382397    -0.000033114205
       4       -0.000004262643    -0.000007407760    -0.000020789210
       5       -0.000623221197     0.001722318478    -0.001948254691
       6       -0.000002717965     0.000002887650     0.000010998501
       7        0.000010070766     0.000006023013     0.000002739757
       8        0.001399503539    -0.003051782302     0.003088535578
       9        0.000003168230     0.000010790066    -0.000006324462
      10        0.000000924976    -0.000009970159     0.000001250469
      11       -0.002954532927     0.003886054207    -0.002438700409
      12       -0.000007159066    -0.000005432331    -0.000007525435
      13       -0.000002203710     0.000010516225     0.000002814005
      14       -0.000002592461     0.000006963937     0.000000229941
      15        0.002156683481    -0.002575796404     0.001346885331
      16        0.000010430725    -0.000006430610    -0.000001617182
      17        0.000007563825     0.000014762403    -0.000042816253
      18        0.000014715779    -0.000001729923    -0.000008209602
      19       -0.000011385146     0.000013824755    -0.000005230744
      20       -0.000003446952    -0.000013826830     0.000037477454
      21       -0.000008541778     0.000009554604    -0.000014409759
      22        0.000013564953    -0.000001046859    -0.000014060425
      23       -0.000000468998    -0.000006320995     0.000014198727
      24        0.000007379387    -0.000011194445    -0.000006586641
      25       -0.000007007449     0.000013465786     0.000002089652
      26        0.000000545829     0.000001184043     0.000003937728
      27       -0.000000073154    -0.000000165270    -0.000000637736
      28        0.000000272484    -0.000000299972    -0.000000792102
      29        0.000000170829    -0.000000235573    -0.000000402185

  **** Optimization is complete! (in 9 steps) ****
    Final optimized geometry and variables:
    Molecular point group: c1

    Geometry (in Angstrom), charge = 0, multiplicity = 1:

    O            3.231739284053     0.849426705145    -0.405448885349
    C            2.688580913821    -0.057682599445     0.137972734107
    C            1.234042841005    -0.098418593436     0.538892028869
    O            3.310399247306    -1.182157804624     0.470257974904
    C            0.472862207637     1.174316140950     0.174754717591
    H            0.797412653421    -0.976534050300     0.073332694554
    H            1.198124496220    -0.282277498031     1.609624325761
    C           -0.990375172184     1.157195139373     0.626974105216
    H            0.519329510166     1.325998793317    -0.899081159916
    H            0.978243442083     2.023627770989     0.621987359840
    C           -1.855933230187     0.079760338481    -0.045556323226
    H           -1.410560504113     2.134964755338     0.402264448654
    H           -1.045530388073     1.050087842659     1.708365938178
    C           -3.338991656367     0.445475648946    -0.107892560669
    H           -1.478438164314    -0.122604931363    -1.046667285881
    H           -1.749039900382    -0.859872321486     0.493668470003
    C           -4.210950714509    -0.654626023323    -0.715089341713
    H           -3.458383548944     1.359739187924    -0.686570969240
    H           -3.694644160192     0.672950037716     0.896029310686
    C           -5.690863421834    -0.278046746081    -0.776670242402
    H           -3.854968348164    -0.883616827105    -1.717422329051
    H           -4.095182782617    -1.567479183772    -0.134632090365
    H           -6.283205938151    -1.078722844501    -1.208686286267
    H           -5.844426429798     0.610646979201    -1.382307635195
    H           -6.084850382475    -0.073181156109     0.214835316594
    C            4.686496780544    -1.274311780607     0.149759945166
    H            4.834920614060    -1.188152581829    -0.917046139824
    H            5.005405054755    -2.245670827768     0.494368738017
    H            5.246208877502    -0.497162343344     0.650058859488

  Mulliken Charges: (a.u.)
   Center  Symbol    Alpha    Beta     Spin     Total
       1     O     4.28605  4.28605  0.00000 -0.57210
       2     C     2.60508  2.60508  0.00000  0.78983
       3     C     3.20950  3.20950  0.00000 -0.41899
       4     O     4.30740  4.30740  0.00000 -0.61480
       5     C     3.15444  3.15444  0.00000 -0.30888
       6     H     0.39833  0.39833  0.00000  0.20334
       7     H     0.40130  0.40130  0.00000  0.19740
       8     C     3.15756  3.15756  0.00000 -0.31511
       9     H     0.41235  0.41235  0.00000  0.17530
      10     H     0.40983  0.40983  0.00000  0.18034
      11     C     3.15647  3.15647  0.00000 -0.31293
      12     H     0.41788  0.41788  0.00000  0.16424
      13     H     0.42201  0.42201  0.00000  0.15597
      14     C     3.15097  3.15097  0.00000 -0.30194
      15     H     0.42244  0.42244  0.00000  0.15511
      16     H     0.42311  0.42311  0.00000  0.15377
      17     C     3.15192  3.15192  0.00000 -0.30384
      18     H     0.42283  0.42283  0.00000  0.15435
      19     H     0.42343  0.42343  0.00000  0.15314
      20     C     3.23939  3.23939  0.00000 -0.47879
      21     H     0.42283  0.42283  0.00000  0.15435
      22     H     0.42324  0.42324  0.00000  0.15352
      23     H     0.41922  0.41922  0.00000  0.16156
      24     H     0.42148  0.42148  0.00000  0.15703
      25     H     0.42177  0.42177  0.00000  0.15647
      26     C     3.09239  3.09239  0.00000 -0.18478
      27     H     0.40912  0.40912  0.00000  0.18176
      28     H     0.40853  0.40853  0.00000  0.18295
      29     H     0.40913  0.40913  0.00000  0.18174

   Total alpha = 44.00000, Total beta = 44.00000, Total charge =  0.00000
