                              Psi4 1.0.54 Driver

  ==> Input File <==

--------------------------------------------------------------------------
set {
	reference rhf
	basis cc-pvtz
}

set_num_threads( 4 )
memory 2 gb

molecule MOL {
0 1

O	 1.074013	 1.122105	 -0.635914
C	 1.121787	 0.124983	 0.000110
C	 0.030416	 -0.390822	 0.902506
O	 2.167739	 -0.685178	 -0.000678
C	 -1.202161	 0.500694	 0.945824
H	 -0.219630	 -1.391008	 0.563998
H	 0.462119	 -0.512902	 1.890529
C	 -2.286238	 -0.050725	 1.867248
H	 -1.596526	 0.615542	 -0.057584
H	 -0.914356	 1.494230	 1.270783
C	 -3.527140	 0.833943	 1.916391
H	 -2.568080	 -1.047624	 1.538616
H	 -1.885174	 -0.163776	 2.871043
H	 -3.971644	 0.938242	 0.932459
H	 -4.278982	 0.418411	 2.577256
H	 -3.283842	 1.828443	 2.274661
C	 3.449556	 -0.089977	 -0.000570
H	 3.585694	 0.522473	 -0.879546
H	 4.155805	 -0.904274	 -0.001389
H	 3.586173	 0.521118	 0.879272

	symmetry c1
}
set optking {
	frozen_dihedral = ("
		1 2 4 17
	")
}

ee,wfn = optimize('scf', return_wfn=True)
oeprop( wfn, 'DIPOLE', 'QUADRUPOLE', 'MULLIKEN_CHARGES')
f=open( 'psi4out.xyz', 'w' )
f.write( "20  " )
f.write( str(ee) + "\n" )
f.write( MOL.save_string_xyz() )
f.close()
--------------------------------------------------------------------------

    Molecular point group: c1
  Charge       = 0
  Multiplicity = 1
  Basis Set: CC-PVTZ
  Basis Set:
  @DF-RHF Final Energy:  -384.07509627145856
    Total Energy =                       -384.0750962714586194
    Molecular point group: c1
  Basis Set: CC-PVTZ
  Basis Set:
  Basis Set: CC-PVTZ
  Basis Set:
  @DF-RHF Final Energy:  -383.89593965465860
    Total Energy =                       -383.8959396546584344
  Basis Set: CC-PVTZ
  Basis Set:
  Basis Set: CC-PVTZ
  Basis Set:
  @DF-RHF Final Energy:  -384.01997145129712
    Total Energy =                       -384.0199714512967830
  Basis Set: CC-PVTZ
  Basis Set:
  Basis Set: CC-PVTZ
  Basis Set:
  @DF-RHF Final Energy:  -384.07108250545326
    Total Energy =                       -384.0710825054533188
  Basis Set: CC-PVTZ
  Basis Set:
  @DF-RHF Final Energy:  -384.06519257820372
    Total Energy =                       -384.0651925782037210
  @DF-RHF Final Energy:  -384.07356782704716
    Total Energy =                       -384.0735678270470999
  @DF-RHF Final Energy:  -384.07568413946848
    Total Energy =                       -384.0756841394683079
  Basis Set: CC-PVTZ
  Basis Set:
  @DF-RHF Final Energy:  -384.07578668298527
    Total Energy =                       -384.0757866829854947
  Basis Set: CC-PVTZ
  Basis Set:
  Basis Set: CC-PVTZ
  Basis Set:
  @DF-RHF Final Energy:  -384.07579743819372
    Total Energy =                       -384.0757974381934901
  Basis Set: CC-PVTZ
  Basis Set:
  Basis Set: CC-PVTZ
  Basis Set:
  @DF-RHF Final Energy:  -384.07579902544660
    Total Energy =                       -384.0757990254470542
  Basis Set: CC-PVTZ
  Basis Set:
  Charge       = 0
  Multiplicity = 1
  Basis Set: CC-PVTZ
  Basis Set:

    Orbital Energies (a.u.)
    -----------------------

    Doubly Occupied:

       1A    -20.588885     2A    -20.538276     3A    -11.366095
       4A    -11.281662     5A    -11.234752     6A    -11.218962
       7A    -11.217813     8A    -11.209139     9A     -1.467226
      10A     -1.367180    11A     -1.090210    12A     -1.023901
      13A     -0.969685    14A     -0.889218    15A     -0.805451
      16A     -0.768081    17A     -0.698513    18A     -0.682746
      19A     -0.676127    20A     -0.646062    21A     -0.604263
      22A     -0.593395    23A     -0.582201    24A     -0.546015
      25A     -0.536338    26A     -0.520228    27A     -0.502923
      28A     -0.481135    29A     -0.476534    30A     -0.471087
      31A     -0.457377    32A     -0.437532

  @DF-RHF Final Energy:  -384.07579948797741

   => Energetics <=

    Nuclear Repulsion Energy =            381.2840477269494386
    One-Electron Energy =               -1278.8216705297541012
    Two-Electron Energy =                 513.4618233148268018
    DFT Exchange-Correlation Energy =       0.0000000000000000
    Empirical Dispersion Energy =           0.0000000000000000
    PCM Polarization Energy =               0.0000000000000000
    EFP Energy =                            0.0000000000000000
    Total Energy =                       -384.0757994879778607
    Molecular point group: c1
  Basis Set: CC-PVTZ
  Basis Set:

  -Total Gradient:
     Atom            X                  Y                   Z
    ------   -----------------  -----------------  -----------------
       1       -0.005665721009    -0.001537409400    -0.007449062712
       2        0.009406756330     0.000595091445     0.014155364875
       3       -0.000040189078     0.000074295613    -0.000012150919
       4       -0.005723697022     0.004255214805    -0.013046841049
       5        0.000009587768    -0.000036859899     0.000014766048
       6        0.000004344426     0.000008183318     0.000016904065
       7        0.000001273282    -0.000011153267    -0.000007688435
       8       -0.000012982097     0.000017258053    -0.000014989615
       9       -0.000009196015    -0.000000914231     0.000012484026
      10       -0.000008570260    -0.000022817319    -0.000018970983
      11        0.000010404995     0.000002615714     0.000011737749
      12        0.000007117850     0.000025309064     0.000018905496
      13        0.000004384038     0.000003547652    -0.000014432823
      14        0.000000102868    -0.000007217001     0.000008019247
      15        0.000001828380     0.000019348104    -0.000005700999
      16       -0.000007434529    -0.000023982281    -0.000016775608
      17        0.002005634856    -0.003331272636     0.006354788974
      18       -0.000001440986    -0.000021386405     0.000009476576
      19        0.000015892884     0.000002546503     0.000000457102
      20        0.000001903317    -0.000010397834    -0.000016291017

  **** Optimization is complete! (in 11 steps) ****
    Final optimized geometry and variables:
    Molecular point group: c1

    Geometry (in Angstrom), charge = 0, multiplicity = 1:

    O            0.667547111358     1.532647884211    -0.709506950609
    C            0.877609572029     0.372652897605    -0.637704351623
    C            0.009115270646    -0.626510678081     0.079715836493
    O            1.886484344122    -0.223442136259    -1.274299960500
    C           -1.274100012008    -0.038505645776     0.647594780985
    H           -0.196196380983    -1.431498075734    -0.617751833179
    H            0.618799272055    -1.067330328228     0.863634741305
    C           -2.121418030359    -1.080168422217     1.372342903003
    H           -1.849357783962     0.406997621889    -0.156667392285
    H           -1.028037196521     0.771308825789     1.324872585703
    C           -3.410313959944    -0.500431816616     1.944624787415
    H           -2.363495693222    -1.889457091943     0.688628991805
    H           -1.539385176823    -1.524778543786     2.175407785296
    H           -4.030725694813    -0.079074693604     1.160995352944
    H           -3.990632516886    -1.261407405373     2.453291832247
    H           -3.200456572440     0.288879850637     2.658373369784
    C            3.123765530798     0.458665033309    -1.314104311501
    H            3.032618368238     1.401526300803    -1.831510129565
    H            3.808831286096    -0.186430183895    -1.839789400036
    H            3.487359362815     0.633029952371    -0.309708197654

  Mulliken Charges: (a.u.)
   Center  Symbol    Alpha    Beta     Spin     Total
       1     O     4.18714  4.18714  0.00000 -0.37429
       2     C     2.80162  2.80162  0.00000  0.39676
       3     C     3.10283  3.10283  0.00000 -0.20566
       4     O     4.15565  4.15565  0.00000 -0.31130
       5     C     3.08288  3.08288  0.00000 -0.16576
       6     H     0.43766  0.43766  0.00000  0.12469
       7     H     0.44429  0.44429  0.00000  0.11141
       8     C     3.08631  3.08631  0.00000 -0.17262
       9     H     0.44695  0.44695  0.00000  0.10609
      10     H     0.44605  0.44605  0.00000  0.10790
      11     C     3.14927  3.14927  0.00000 -0.29853
      12     H     0.45487  0.45487  0.00000  0.09026
      13     H     0.45551  0.45551  0.00000  0.08897
      14     H     0.45371  0.45371  0.00000  0.09259
      15     H     0.44832  0.44832  0.00000  0.10337
      16     H     0.45391  0.45391  0.00000  0.09218
      17     C     3.03742  3.03742  0.00000 -0.07484
      18     H     0.44686  0.44686  0.00000  0.10628
      19     H     0.44545  0.44545  0.00000  0.10911
      20     H     0.46330  0.46330  0.00000  0.07340

   Total alpha = 32.00000, Total beta = 32.00000, Total charge = -0.00000

*** Psi4 exiting successfully. Buy a developer a beer!
