  ==> Input File <==

--------------------------------------------------------------------------
set {
	reference rhf
	basis 6-31G*
}

set_num_threads( 1 )
memory 2 gb

molecule MOL {
0 1

H	 2.278265	 -2.684377	 -0.116690
O	 3.035921	 -2.419834	 -0.617735
C	 2.725222	 -2.431525	 -1.987911
C	 1.813570	 -1.283631	 -2.407385
H	 3.672825	 -2.353468	 -2.505240
H	 2.280837	 -3.385395	 -2.269750
C	 0.424223	 -1.326179	 -1.766470
H	 2.302481	 -0.345770	 -2.156888
H	 1.712831	 -1.309344	 -3.491155
C	 -0.484533	 -0.192067	 -2.248936
H	 0.527551	 -1.273718	 -0.686222
H	 -0.048657	 -2.282537	 -1.990311
C	 -1.916244	 -0.237445	 -1.702597
H	 -0.031430	 0.763695	 -1.991911
H	 -0.529605	 -0.223170	 -3.335536
C	 -2.037799	 -0.007733	 -0.193645
H	 -2.502495	 0.521156	 -2.217038
H	 -2.368803	 -1.194017	 -1.959494
C	 -3.489788	 0.042957	 0.286558
H	 -1.540943	 0.925248	 0.068637
H	 -1.516243	 -0.793334	 0.347755
C	 -4.216917	 1.317354	 -0.141063
H	 -4.025645	 -0.823308	 -0.095450
H	 -3.513059	 -0.038752	 1.371301
H	 -4.239342	 1.411634	 -1.223113
H	 -5.243387	 1.322503	 0.212445
H	 -3.726170	 2.201406	 0.256408

	symmetry c1
}
set optking {
	frozen_dihedral = ("
		14 10 7 4,
		14 10 13 16,
		10 7 4 8,
		8 4 3 2,
		10 13 16 20,
		4 3 2 1
	")
}

ee = energy('scf')
oeprop('DIPOLE', 'QUADRUPOLE', 'MULLIKEN_CHARGES')
f=open( 'psi4out.xyz', 'w' )
f.write( "27  " )
f.write( str(ee) + "\n" )
f.write( MOL.save_string_xyz() )
f.close()
--------------------------------------------------------------------------

    Molecular point group: c1

    Geometry (in Angstrom), charge = 0, multiplicity = 1:

       Center              X                  Y                   Z               Mass
    ------------   -----------------  -----------------  -----------------  -----------------
           H          2.695276286249    -1.933156661030     1.064927560479     1.007825032070
           O          3.452932286249    -1.668613661030     0.563882560479    15.994914619560
           C          3.142233286249    -1.680304661030    -0.806293439521    12.000000000000
           C          2.230581286249    -0.532410661030    -1.225767439521    12.000000000000
           H          4.089836286249    -1.602247661030    -1.323622439521     1.007825032070
           H          2.697848286249    -2.634174661030    -1.088132439521     1.007825032070
           C          0.841234286249    -0.574958661030    -0.584852439521    12.000000000000
           H          2.719492286249     0.405450338970    -0.975270439521     1.007825032070
           H          2.129842286249    -0.558123661030    -2.309537439521     1.007825032070
           C         -0.067521713751     0.559153338970    -1.067318439521    12.000000000000
           H          0.944562286249    -0.522497661030     0.495395560479     1.007825032070
           H          0.368354286249    -1.531316661030    -0.808693439521     1.007825032070
           C         -1.499232713751     0.513775338970    -0.520979439521    12.000000000000
           H          0.385581286249     1.514915338970    -0.810293439521     1.007825032070
           H         -0.112593713751     0.528050338970    -2.153918439521     1.007825032070
           C         -1.620787713751     0.743487338970     0.987972560479    12.000000000000
           H         -2.085483713751     1.272376338970    -1.035420439521     1.007825032070
           H         -1.951791713751    -0.442796661030    -0.777876439521     1.007825032070
           C         -3.072776713751     0.794177338970     1.468175560479    12.000000000000
           H         -1.123931713751     1.676468338970     1.250254560479     1.007825032070
           H         -1.099231713751    -0.042113661030     1.529372560479     1.007825032070
           C         -3.799905713751     2.068574338970     1.040554560479    12.000000000000
           H         -3.608633713751    -0.072087661030     1.086167560479     1.007825032070
           H         -3.096047713751     0.712468338970     2.552918560479     1.007825032070
           H         -3.822330713751     2.162854338970    -0.041495439521     1.007825032070
           H         -4.826375713751     2.073723338970     1.394062560479     1.007825032070
           H         -3.309158713751     2.952626338970     1.438025560479     1.007825032070

  Charge       = 0
  Multiplicity = 1
  Basis Set: 6-31G*
  Basis Set:

    Orbital Energies (a.u.)
    -----------------------

    Doubly Occupied:

       1A    -20.552249     2A    -11.267003     3A    -11.219702
       4A    -11.217212     5A    -11.215985     6A    -11.215266
       7A    -11.215162     8A    -11.214118     9A    -11.208781
      10A     -1.358993    11A     -1.095902    12A     -1.062042
      13A     -1.009448    14A     -0.946263    15A     -0.892506
      16A     -0.826692    17A     -0.798465    18A     -0.772505
      19A     -0.693678    20A     -0.646348    21A     -0.633080
      22A     -0.618876    23A     -0.608343    24A     -0.588355
      25A     -0.578852    26A     -0.553905    27A     -0.539019
      28A     -0.528069    29A     -0.505620    30A     -0.495812
      31A     -0.486751    32A     -0.473896    33A     -0.469082
      34A     -0.461474    35A     -0.448121    36A     -0.440681
      37A     -0.423139

  @DF-RHF Final Energy:  -388.27954596897519

   => Energetics <=

    Nuclear Repulsion Energy =            462.0423423743962985
    One-Electron Energy =               -1442.0809036676980668
    Two-Electron Energy =                 591.7590153243260147
    DFT Exchange-Correlation Energy =       0.0000000000000000
    Empirical Dispersion Energy =           0.0000000000000000
    PCM Polarization Energy =               0.0000000000000000
    EFP Energy =                            0.0000000000000000
    Total Energy =                       -388.2795459689757536

  Mulliken Charges: (a.u.)
   Center  Symbol    Alpha    Beta     Spin     Total
       1     H     0.27990  0.27990  0.00000  0.44020
       2     O     4.37096  4.37096  0.00000 -0.74191
       3     C     2.99735  2.99735  0.00000  0.00530
       4     C     3.16091  3.16091  0.00000 -0.32183
       5     H     0.41445  0.41445  0.00000  0.17110
       6     H     0.43206  0.43206  0.00000  0.13589
       7     C     3.16331  3.16331  0.00000 -0.32662
       8     H     0.41498  0.41498  0.00000  0.17004
       9     H     0.42435  0.42435  0.00000  0.15130
      10     C     3.15136  3.15136  0.00000 -0.30272
      11     H     0.42296  0.42296  0.00000  0.15407
      12     H     0.42548  0.42548  0.00000  0.14903
      13     C     3.15582  3.15582  0.00000 -0.31165
      14     H     0.42163  0.42163  0.00000  0.15675
      15     H     0.42165  0.42165  0.00000  0.15669
      16     C     3.15446  3.15446  0.00000 -0.30893
      17     H     0.41942  0.41942  0.00000  0.16116
      18     H     0.42431  0.42431  0.00000  0.15137
      19     C     3.15311  3.15311  0.00000 -0.30623
      20     H     0.42359  0.42359  0.00000  0.15283
      21     H     0.42175  0.42175  0.00000  0.15650
      22     C     3.24138  3.24138  0.00000 -0.48276
      23     H     0.42322  0.42322  0.00000  0.15356
      24     H     0.42051  0.42051  0.00000  0.15899
      25     H     0.42053  0.42053  0.00000  0.15893
      26     H     0.41897  0.41897  0.00000  0.16206
      27     H     0.42157  0.42157  0.00000  0.15686

   Total alpha = 37.00000, Total beta = 37.00000, Total charge = -0.00000
