  ==> Input File <==

--------------------------------------------------------------------------
set {
	reference rhf
	basis 6-31G*
}

set_num_threads( 4 )
memory 2 gb

molecule MOL {
0 1

O	 2.852302	 1.372980	 -0.126757
C	 2.812344	 0.213276	 -0.402889
C	 1.516274	 -0.577309	 -0.392172
C	 4.063730	 -0.550382	 -0.785006
C	 0.291004	 0.242674	 0.000989
H	 1.385183	 -1.015601	 -1.380658
H	 1.646853	 -1.422206	 0.282736
C	 -0.994322	 -0.586602	 0.000262
H	 0.190030	 1.080845	 -0.681216
H	 0.451834	 0.673617	 0.984132
C	 -2.259874	 0.272531	 0.000494
H	 -1.004862	 -1.240012	 -0.870939
H	 -1.005220	 -1.241071	 0.870675
C	 -3.549786	 -0.549746	 -0.000374
H	 -2.250389	 0.926680	 -0.869574
H	 -2.250838	 0.925513	 0.871430
C	 -4.809590	 0.315458	 -0.000369
H	 -3.560515	 -1.202009	 -0.871156
H	 -3.561123	 -1.202955	 0.869711
H	 -4.844746	 0.956611	 -0.876632
H	 -5.706986	 -0.295590	 -0.001609
H	 -4.845960	 0.954827	 0.877144
H	 3.961394	 -0.971675	 -1.780826
H	 4.917587	 0.112270	 -0.759410
H	 4.226342	 -1.377696	 -0.100358

	symmetry c1
}
set optking {
	frozen_dihedral = ("
		9 5 8 12
	")
}

ee = optimize('scf')
oeprop('DIPOLE', 'QUADRUPOLE', 'MULLIKEN_CHARGES')
f=open( 'psi4out.xyz', 'w' )
f.write( "25  " )
f.write( str(ee) + "\n" )
f.write( MOL.save_string_xyz() )
f.close()
--------------------------------------------------------------------------

    Molecular point group: c1
  Charge       = 0
  Multiplicity = 1
  Basis Set: 6-31G*
  Basis Set:
  @DF-RHF Final Energy:  -387.13557112917982
    Total Energy =                       -387.1355711291793114
    Molecular point group: c1
  Basis Set: 6-31G*
  Basis Set:
  Basis Set: 6-31G*
  Basis Set:
  @DF-RHF Final Energy:  -387.13567631283695
    Total Energy =                       -387.1356763128376315
  Basis Set: 6-31G*
  Basis Set:
  Basis Set: 6-31G*
  Basis Set:
  @DF-RHF Final Energy:  -387.13546617631187
    Total Energy =                       -387.1354661763116383
  Basis Set: 6-31G*
  Basis Set:
  Basis Set: 6-31G*
  Basis Set:
  @DF-RHF Final Energy:  -387.13572079286644
    Total Energy =                       -387.1357207928668913
  Basis Set: 6-31G*
  Basis Set:
  Basis Set: 6-31G*
  Basis Set:
  @DF-RHF Final Energy:  -387.13571783674064
    Total Energy =                       -387.1357178367406959
  Basis Set: 6-31G*
  Basis Set:
  Basis Set: 6-31G*
  Basis Set:
  @DF-RHF Final Energy:  -387.13572606983956
    Total Energy =                       -387.1357260698389382
  Basis Set: 6-31G*
  Basis Set:
  Charge       = 0
  Multiplicity = 1
  Basis Set: 6-31G*
  Basis Set:

    Orbital Energies (a.u.)
    -----------------------

    Doubly Occupied:

       1A    -20.550561     2A    -11.326390     3A    -11.232180
       4A    -11.228413     5A    -11.216948     6A    -11.216350
       7A    -11.215452     8A    -11.213827     9A    -11.208404
      10A     -1.395859    11A     -1.093380    12A     -1.056451
      13A     -1.014451    14A     -0.969390    15A     -0.890865
      16A     -0.814357    17A     -0.791192    18A     -0.730344
      19A     -0.660270    20A     -0.651618    21A     -0.632456
      22A     -0.624107    23A     -0.595692    24A     -0.584150
      25A     -0.566468    26A     -0.560306    27A     -0.540349
      28A     -0.526433    29A     -0.512819    30A     -0.490767
      31A     -0.487292    32A     -0.472425    33A     -0.464441
      34A     -0.461098    35A     -0.450764    36A     -0.399574

  @DF-RHF Final Energy:  -387.13572613000991

   => Energetics <=

    Nuclear Repulsion Energy =            438.2945057616789768
    One-Electron Energy =               -1393.1687760282061390
    Two-Electron Energy =                 567.7385441365167935
    DFT Exchange-Correlation Energy =       0.0000000000000000
    Empirical Dispersion Energy =           0.0000000000000000
    PCM Polarization Energy =               0.0000000000000000
    EFP Energy =                            0.0000000000000000
    Total Energy =                       -387.1357261300104255
    Molecular point group: c1
  Basis Set: 6-31G*
  Basis Set:

  -Total Gradient:
     Atom            X                  Y                   Z
    ------   -----------------  -----------------  -----------------
       1       -0.000000952473    -0.000006461241     0.000009637791
       2       -0.000000031068     0.000003873705    -0.000024751190
       3       -0.000003322555     0.000008158117     0.000017678586
       4        0.000002909431     0.000002125781    -0.000000631836
       5        0.001639133051    -0.002545373077    -0.002354431517
       6        0.000002769718     0.000008166887     0.000002801346
       7       -0.000005934718    -0.000002298866    -0.000000574470
       8       -0.001911493078     0.002980190438    -0.001341433648
       9       -0.001045241929     0.001631339328     0.002155615789
      10       -0.000008593706     0.000009016640     0.000005210768
      11        0.000008187048    -0.000010138762     0.000023484904
      12        0.001313877509    -0.002063268597     0.001524006561
      13        0.000008498372    -0.000016973723     0.000004875941
      14       -0.000003847389     0.000004062189    -0.000034575118
      15        0.000008968524    -0.000008876497     0.000002077598
      16       -0.000003512676     0.000007368347    -0.000000757185
      17       -0.000004246677    -0.000002336774     0.000019857312
      18       -0.000000260816     0.000002037025    -0.000008604436
      19        0.000003003948     0.000001253789    -0.000009747454
      20       -0.000001503708    -0.000009577310    -0.000003101761
      21       -0.000001522212     0.000001174227     0.000009873240
      22        0.000001709231     0.000008992484    -0.000003641768
      23       -0.000001189196    -0.000001344882     0.000003056546
      24        0.000001245886    -0.000000804921     0.000001161436
      25        0.000001349477    -0.000000304307     0.000002912563

  **** Optimization is complete! (in 7 steps) ****
    Final optimized geometry and variables:
    Molecular point group: c1

    Geometry (in Angstrom), charge = 0, multiplicity = 1:

    O            2.872324799431     1.342340479427     0.104320515380
    C            2.834992866945     0.186816026658    -0.189038949634
    C            1.534558149177    -0.595281811276    -0.235015636290
    C            4.094214082743    -0.579822560463    -0.537977114968
    C            0.301429232901     0.226543890358     0.123601290690
    H            1.436624492875    -1.020662313680    -1.232767629090
    H            1.634711854372    -1.449256574279     0.433928295719
    C           -0.986999397794    -0.601832012018     0.119803054657
    H            0.208427244754     1.068772802852    -0.555063311359
    H            0.443365727143     0.667640621494     1.105330477725
    C           -2.253930922929     0.252522384599     0.157171714240
    H           -1.005879773648    -1.256222276803    -0.750696570612
    H           -0.980081657808    -1.269262391409     0.980686655026
    C           -3.540460718050    -0.572992576529     0.212261572215
    H           -2.277669167083     0.897190558270    -0.719567309475
    H           -2.214573131338     0.915127959781     1.020152044019
    C           -4.802165058113     0.288881092885     0.243448188828
    H           -3.578893209667    -1.237635361255    -0.648394900098
    H           -3.519823999607    -1.213671068864     1.091323919759
    H           -4.871199307677     0.915046256042    -0.641598422527
    H           -5.697040493127    -0.324411264835     0.285077972924
    H           -4.808672435300     0.942855550683     1.110859461069
    H            4.024560523470    -0.985701892046    -1.542978120387
    H            4.950822689736     0.076480714456    -0.472406404391
    H            4.227192387145    -1.418211464181     0.139569639374

  Mulliken Charges: (a.u.)
   Center  Symbol    Alpha    Beta     Spin     Total
       1     O     4.26107  4.26107  0.00000 -0.52213
       2     C     2.73578  2.73578  0.00000  0.52844
       3     C     3.21103  3.21103  0.00000 -0.42206
       4     C     3.28665  3.28665  0.00000 -0.57331
       5     C     3.14887  3.14887  0.00000 -0.29775
       6     H     0.40977  0.40977  0.00000  0.18045
       7     H     0.40981  0.40981  0.00000  0.18038
       8     C     3.15438  3.15438  0.00000 -0.30877
       9     H     0.41240  0.41240  0.00000  0.17521
      10     H     0.41139  0.41139  0.00000  0.17721
      11     C     3.15100  3.15100  0.00000 -0.30201
      12     H     0.42547  0.42547  0.00000  0.14905
      13     H     0.42386  0.42386  0.00000  0.15228
      14     C     3.15168  3.15168  0.00000 -0.30337
      15     H     0.42266  0.42266  0.00000  0.15467
      16     H     0.42190  0.42190  0.00000  0.15621
      17     C     3.23936  3.23936  0.00000 -0.47872
      18     H     0.42358  0.42358  0.00000  0.15283
      19     H     0.42325  0.42325  0.00000  0.15350
      20     H     0.42150  0.42150  0.00000  0.15699
      21     H     0.41949  0.41949  0.00000  0.16102
      22     H     0.42123  0.42123  0.00000  0.15753
      23     H     0.40870  0.40870  0.00000  0.18261
      24     H     0.39643  0.39643  0.00000  0.20714
      25     H     0.40871  0.40871  0.00000  0.18259

   Total alpha = 36.00000, Total beta = 36.00000, Total charge =  0.00000
