  ==> Input File <==

--------------------------------------------------------------------------
set {
	reference rhf
	basis 6-31G*
}

set_num_threads( 4 )
memory 2 gb

molecule MOL {
0 1

H	 -0.845142	 2.167089	 -2.952414
O	 -1.286252	 1.469921	 -2.487907
C	 -0.695509	 1.294636	 -1.228031
C	 0.648712	 0.597635	 -1.341728
H	 -0.574088	 2.240120	 -0.706807
H	 -1.371099	 0.682965	 -0.646751
O	 1.171513	 0.459272	 -0.058250
H	 1.322810	 1.183967	 -1.969253
H	 0.518510	 -0.371299	 -1.820057
C	 2.397842	 -0.198080	 -0.002151
H	 2.508049	 -0.905315	 -0.822092
H	 3.173794	 0.550865	 -0.078850
H	 2.517602	 -0.735921	 0.936026

	symmetry c1
}
set optking {
	frozen_dihedral = ("
		4 7 10 13
	")
}

ee = optimize('scf')
oeprop('DIPOLE', 'QUADRUPOLE', 'MULLIKEN_CHARGES')
f=open( 'psi4out.xyz', 'w' )
f.write( "13  " )
f.write( str(ee) + "\n" )
f.write( MOL.save_string_xyz() )
f.close()
--------------------------------------------------------------------------

    Molecular point group: c1
  Charge       = 0
  Multiplicity = 1
  Basis Set: 6-31G*
  Basis Set:
  @DF-RHF Final Energy:  -267.94770546324605
    Total Energy =                       -267.9477054632458248
    Molecular point group: c1
  Basis Set: 6-31G*
  Basis Set:
  Basis Set: 6-31G*
  Basis Set:
  @DF-RHF Final Energy:  -267.94853500971021
    Total Energy =                       -267.9485350097099854
  Basis Set: 6-31G*
  Basis Set:
  Basis Set: 6-31G*
  Basis Set:
  @DF-RHF Final Energy:  -267.94872853460436
    Total Energy =                       -267.9487285346041858
  Basis Set: 6-31G*
  Basis Set:
  Charge       = 0
  Multiplicity = 1
  Basis Set: 6-31G*
  Basis Set:

    Orbital Energies (a.u.)
    -----------------------

    Doubly Occupied:

       1A    -20.560564     2A    -20.559964     3A    -11.271122
       4A    -11.269995     5A    -11.268671     6A     -1.386483
       7A     -1.364733     8A     -1.018445     9A     -0.913496
      10A     -0.841680    11A     -0.709224    12A     -0.672791
      13A     -0.658856    14A     -0.637233    15A     -0.595627
      16A     -0.570499    17A     -0.545786    18A     -0.489753
      19A     -0.480910    20A     -0.438134    21A     -0.419736

  @DF-RHF Final Energy:  -267.94872923141094

   => Energetics <=

    Nuclear Repulsion Energy =            190.0718346898611912
    One-Electron Energy =                -742.6937233798471425
    Two-Electron Energy =                 284.6731594585749576
    DFT Exchange-Correlation Energy =       0.0000000000000000
    Empirical Dispersion Energy =           0.0000000000000000
    PCM Polarization Energy =               0.0000000000000000
    EFP Energy =                            0.0000000000000000
    Total Energy =                       -267.9487292314110505
    Molecular point group: c1
  Basis Set: 6-31G*
  Basis Set:

  -Total Gradient:
     Atom            X                  Y                   Z
    ------   -----------------  -----------------  -----------------
       1       -0.000009429093     0.000008746002    -0.000030001584
       2        0.000045430077     0.000044173138     0.000002386523
       3       -0.000008572916    -0.000044551613     0.000041774381
       4       -0.001170759144    -0.002312896081     0.000188022409
       5       -0.000025792743     0.000025147503    -0.000005702095
       6        0.000036879722    -0.000008495453     0.000015587039
       7        0.001403084246     0.002549412839    -0.000554103676
       8        0.000019919355     0.000004902558     0.000060440734
       9       -0.000017864277     0.000007534346    -0.000032460359
      10        0.001057217545     0.002123558702     0.001582805488
      11       -0.000031055500    -0.000001195060    -0.000015511225
      12       -0.000013091986     0.000017604922     0.000005475410
      13       -0.001285965285    -0.002413941806    -0.001258713044

  **** Optimization is complete! (in 4 steps) ****
    Final optimized geometry and variables:
    Molecular point group: c1

    Geometry (in Angstrom), charge = 0, multiplicity = 1:

    H           -1.311266302321     1.436392115228    -1.892763223448
    O           -1.741721029600     0.730518366294    -1.431421694311
    C           -1.142035478662     0.551732582284    -0.176031349605
    C            0.207867392219    -0.131770112124    -0.302640806742
    H           -1.026981743517     1.494712742202     0.350940485738
    H           -1.807660823475    -0.070825053007     0.405193732049
    O            0.734403379486    -0.278669504441     0.979086372675
    H            0.871310928117     0.467480453009    -0.929351464344
    H            0.083753922820    -1.097387540720    -0.787700295316
    C            1.967020343022    -0.929069470757     1.049864519487
    H            2.069407856398    -1.672126320275     0.262852704210
    H            2.789933832837    -0.223904417464     0.968443485194
    H            2.020369554207    -1.443661477447     2.000184768600

  Mulliken Charges: (a.u.)
   Center  Symbol    Alpha    Beta     Spin     Total
       1     H     0.28127  0.28127  0.00000  0.43747
       2     O     4.37096  4.37096  0.00000 -0.74192
       3     C     3.00482  3.00482  0.00000 -0.00965
       4     C     2.99638  2.99638  0.00000  0.00725
       5     H     0.42228  0.42228  0.00000  0.15544
       6     H     0.40850  0.40850  0.00000  0.18300
       7     O     4.30998  4.30998  0.00000 -0.61997
       8     H     0.43791  0.43791  0.00000  0.12418
       9     H     0.42265  0.42265  0.00000  0.15470
      10     C     3.07795  3.07795  0.00000 -0.15590
      11     H     0.42908  0.42908  0.00000  0.14184
      12     H     0.42525  0.42525  0.00000  0.14949
      13     H     0.41297  0.41297  0.00000  0.17406

   Total alpha = 21.00000, Total beta = 21.00000, Total charge = -0.00000
