  ==> Input File <==

--------------------------------------------------------------------------
set {
	reference rhf
	basis cc-pvtz
}

set_num_threads( 4 )
memory 2 gb

molecule MOL {
0 1

H	 -0.622757	 1.473554	 -2.356118
C	 0.042978	 1.785198	 -1.539715
C	 0.062554	 0.862911	 -0.350953
O	 0.680299	 2.775480	 -1.641287
C	 -1.339253	 0.577611	 0.196911
H	 0.705767	 1.291122	 0.406943
H	 0.512297	 -0.069113	 -0.685818
C	 -1.813142	 -0.849710	 -0.061612
H	 -2.032833	 1.276441	 -0.256032
H	 -1.357249	 0.782269	 1.263793
H	 -1.839268	 -1.063526	 -1.124230
H	 -2.810118	 -1.001930	 0.334000
H	 -1.159274	 -1.579980	 0.402282

	symmetry c1
}
set optking {
	frozen_dihedral = ("
		6 3 5 9
	")
}

ee = optimize('scf')
oeprop('DIPOLE', 'QUADRUPOLE', 'MULLIKEN_CHARGES')
f=open( 'psi4out.xyz', 'w' )
f.write( "13  " )
f.write( str(ee) + "\n" )
f.write( MOL.save_string_xyz() )
f.close()
--------------------------------------------------------------------------

    Molecular point group: c1
  Charge       = 0
  Multiplicity = 1
  Basis Set: CC-PVTZ
  Basis Set:
  @DF-RHF Final Energy:  -231.06606791921814
    Total Energy =                       -231.0660679192181703
    Molecular point group: c1
  Basis Set: CC-PVTZ
  Basis Set:
  Basis Set: CC-PVTZ
  Basis Set:
  @DF-RHF Final Energy:  -231.06573421194406
    Total Energy =                       -231.0657342119442603
  Basis Set: CC-PVTZ
  Basis Set:
  Basis Set: CC-PVTZ
  Basis Set:
  @DF-RHF Final Energy:  -231.06369646323714
    Total Energy =                       -231.0636964632373633
  Basis Set: CC-PVTZ
  Basis Set:
  Basis Set: CC-PVTZ
  Basis Set:
  @DF-RHF Final Energy:  -231.06640091964735
    Total Energy =                       -231.0664009196472364
  Basis Set: CC-PVTZ
  Basis Set:
  Basis Set: CC-PVTZ
  Basis Set:
  @DF-RHF Final Energy:  -231.06641818920804
    Total Energy =                       -231.0664181892080080
  Basis Set: CC-PVTZ
  Basis Set:
  Basis Set: CC-PVTZ
  Basis Set:
  @DF-RHF Final Energy:  -231.06642110373187
    Total Energy =                       -231.0664211037317841
  Basis Set: CC-PVTZ
  Basis Set:
  Basis Set: CC-PVTZ
  Basis Set:
  @DF-RHF Final Energy:  -231.06642312332883
    Total Energy =                       -231.0664231233288604
  Basis Set: CC-PVTZ
  Basis Set:
  Charge       = 0
  Multiplicity = 1
  Basis Set: CC-PVTZ
  Basis Set:

    Orbital Energies (a.u.)
    -----------------------

    Doubly Occupied:

       1A    -20.552004     2A    -11.322327     3A    -11.237433
       4A    -11.234650     5A    -11.223537     6A     -1.407355
       7A     -1.086533     8A     -0.977039     9A     -0.845859
      10A     -0.793951    11A     -0.675902    12A     -0.651987
      13A     -0.612986    14A     -0.592003    15A     -0.584837
      16A     -0.528871    17A     -0.507441    18A     -0.491715
      19A     -0.486872    20A     -0.413272

  @DF-RHF Final Energy:  -231.06642372776341

   => Energetics <=

    Nuclear Repulsion Energy =            171.1942863135264759
    One-Electron Energy =                -652.0682689252221280
    Two-Electron Energy =                 249.8075588839321881
    DFT Exchange-Correlation Energy =       0.0000000000000000
    Empirical Dispersion Energy =           0.0000000000000000
    PCM Polarization Energy =               0.0000000000000000
    EFP Energy =                            0.0000000000000000
    Total Energy =                       -231.0664237277634356
    Molecular point group: c1
  Basis Set: CC-PVTZ
  Basis Set:

  -Total Gradient:
     Atom            X                  Y                   Z
    ------   -----------------  -----------------  -----------------
       1       -0.000010074349    -0.000000993794     0.000001898719
       2        0.000008489384    -0.000022349568     0.000003371803
       3       -0.000523933969     0.001346510461    -0.000718512539
       4        0.000003604225     0.000011611728     0.000001846551
       5        0.000322822376     0.000720046743     0.001341689189
       6        0.000396103762    -0.001218624180     0.000370374668
       7       -0.000003065487     0.000009179504    -0.000002481173
       8        0.000001219440     0.000003035255    -0.000019757504
       9       -0.000187204739    -0.000862628147    -0.000980915360
      10        0.000002583532     0.000012575400     0.000007929816
      11       -0.000002298001    -0.000008364141    -0.000006334803
      12       -0.000003089473    -0.000004285313     0.000002612509
      13       -0.000005156697     0.000014286055    -0.000001721877

  **** Optimization is complete! (in 8 steps) ****
    Final optimized geometry and variables:
    Molecular point group: c1

    Geometry (in Angstrom), charge = 0, multiplicity = 1:

    H           -0.218782755626     0.507507596103    -1.624881462836
    C            0.511768933600     0.769438296211    -0.847621285724
    C            0.528018786468    -0.145646666092     0.346001413719
    O            1.212841340257     1.710444236082    -0.987844739517
    C           -0.886233791071    -0.443323965863     0.888837123579
    H            1.172209761216     0.287238939569     1.098235439523
    H            0.998726603559    -1.070566206460     0.021132529391
    C           -1.352882797570    -1.872729726422     0.629035658933
    H           -1.601666990667     0.241446515771     0.443067101590
    H           -0.904849634967    -0.245623080280     1.952891358429
    H           -1.369551034678    -2.093988633895    -0.433109441952
    H           -2.352315060508    -2.033070516339     1.015668331144
    H           -0.692239721976    -2.589461417746     1.104459717397

  Mulliken Charges: (a.u.)
   Center  Symbol    Alpha    Beta     Spin     Total
       1     H     0.46618  0.46618  0.00000  0.06765
       2     C     2.90418  2.90418  0.00000  0.19164
       3     C     3.08601  3.08601  0.00000 -0.17202
       4     O     4.16386  4.16386  0.00000 -0.32772
       5     C     3.09955  3.09955  0.00000 -0.19910
       6     H     0.43725  0.43725  0.00000  0.12549
       7     H     0.44997  0.44997  0.00000  0.10006
       8     C     3.14591  3.14591  0.00000 -0.29182
       9     H     0.45109  0.45109  0.00000  0.09781
      10     H     0.44222  0.44222  0.00000  0.11557
      11     H     0.45475  0.45475  0.00000  0.09049
      12     H     0.44664  0.44664  0.00000  0.10672
      13     H     0.45239  0.45239  0.00000  0.09522

   Total alpha = 20.00000, Total beta = 20.00000, Total charge = -0.00000
