  ==> Input File <==

--------------------------------------------------------------------------
set {
	reference rhf
	basis cc-pvtz
}

set_num_threads( 4 )
memory 2 gb

molecule MOL {
0 1

H	 3.088370	 -0.804314	 -1.326152
C	 2.373543	 -1.003230	 -0.538284
C	 1.322304	 0.099773	 -0.484271
H	 1.921949	 -1.968790	 -0.736090
H	 2.919901	 -1.073166	 0.395495
C	 0.308557	 -0.162619	 0.622645
H	 0.799961	 0.163794	 -1.430734
H	 1.795623	 1.057606	 -0.306896
N	 -1.069352	 -0.004081	 0.085342
H	 0.371632	 -1.172932	 0.991288
H	 0.400391	 0.548875	 1.426218
O	 -1.584901	 -0.965470	 -0.377818
O	 -1.548033	 1.079343	 0.130056

	symmetry c1
}
set optking {
	frozen_dihedral = ("
		7 3 6 9
	")
}

ee = optimize('scf')
oeprop('DIPOLE', 'QUADRUPOLE', 'MULLIKEN_CHARGES')
f=open( 'psi4out.xyz', 'w' )
f.write( "13  " )
f.write( str(ee) + "\n" )
f.write( MOL.save_string_xyz() )
f.close()
--------------------------------------------------------------------------

    Molecular point group: c1
  Charge       = 0
  Multiplicity = 1
  Basis Set: CC-PVTZ
  Basis Set:
  @DF-RHF Final Energy:  -321.85611806180646
    Total Energy =                       -321.8561180618064554
    Molecular point group: c1
  Basis Set: CC-PVTZ
  Basis Set:
  Basis Set: CC-PVTZ
  Basis Set:
  @DF-RHF Final Energy:  -321.85367892791800
    Total Energy =                       -321.8536789279180539
  Basis Set: CC-PVTZ
  Basis Set:
  Basis Set: CC-PVTZ
  Basis Set:
  @DF-RHF Final Energy:  -321.85159342321128
    Total Energy =                       -321.8515934232111704
  Basis Set: CC-PVTZ
  Basis Set:
  Basis Set: CC-PVTZ
  Basis Set:
  @DF-RHF Final Energy:  -321.85643774781045
    Total Energy =                       -321.8564377478103324
  Basis Set: CC-PVTZ
  Basis Set:
  Basis Set: CC-PVTZ
  Basis Set:
  @DF-RHF Final Energy:  -321.85652985931080
    Total Energy =                       -321.8565298593106832
  Basis Set: CC-PVTZ
  Basis Set:
  Basis Set: CC-PVTZ
  Basis Set:
  @DF-RHF Final Energy:  -321.85656529282471
    Total Energy =                       -321.8565652928247118
  Basis Set: CC-PVTZ
  Basis Set:
  Basis Set: CC-PVTZ
  Basis Set:
  @DF-RHF Final Energy:  -321.85656773816129
    Total Energy =                       -321.8565677381614023
  Basis Set: CC-PVTZ
  Basis Set:
  Charge       = 0
  Multiplicity = 1
  Basis Set: CC-PVTZ
  Basis Set:

    Orbital Energies (a.u.)
    -----------------------

    Doubly Occupied:

       1A    -20.590758     2A    -20.589929     3A    -15.836896
       4A    -11.297318     5A    -11.255306     6A    -11.234821
       7A     -1.635996     8A     -1.420234     9A     -1.131618
      10A     -1.027376    11A     -0.884646    12A     -0.834612
      13A     -0.762508    14A     -0.737928    15A     -0.727516
      16A     -0.661879    17A     -0.612719    18A     -0.592426
      19A     -0.541831    20A     -0.521010    21A     -0.513933
      22A     -0.484681    23A     -0.474702    24A     -0.453931

  @DF-RHF Final Energy:  -321.85656824707621

   => Energetics <=

    Nuclear Repulsion Energy =            248.5909848691471780
    One-Electron Energy =                -931.2459585018098096
    Two-Electron Energy =                 360.7984053855862498
    DFT Exchange-Correlation Energy =       0.0000000000000000
    Empirical Dispersion Energy =           0.0000000000000000
    PCM Polarization Energy =               0.0000000000000000
    EFP Energy =                            0.0000000000000000
    Total Energy =                       -321.8565682470763818
    Molecular point group: c1
  Basis Set: CC-PVTZ
  Basis Set:

  -Total Gradient:
     Atom            X                  Y                   Z
    ------   -----------------  -----------------  -----------------
       1        0.000003598057     0.000004863671    -0.000004535529
       2       -0.000001545029     0.000006426608     0.000007457783
       3        0.000318172468    -0.003710543331    -0.000538296045
       4       -0.000005201984     0.000001203788     0.000000139518
       5       -0.000004511523     0.000000270074    -0.000001423573
       6       -0.000009678170     0.002989251837     0.000683474771
       7       -0.000243393609     0.002546433175     0.000305869316
       8       -0.000010541780    -0.000019400448    -0.000018670359
       9       -0.000055915371    -0.001901636592    -0.000436690673
      10        0.000000521694     0.000003225055    -0.000007044381
      11       -0.000015214560    -0.000000853200    -0.000001963027
      12        0.000022664322     0.000014111830     0.000016694649
      13        0.000001045483     0.000066647531    -0.000005012449

  **** Optimization is complete! (in 8 steps) ****
    Final optimized geometry and variables:
    Molecular point group: c1

    Geometry (in Angstrom), charge = 0, multiplicity = 1:

    H            3.187146194422    -0.631280264405    -1.225636750617
    C            2.461871095398    -0.848838055500    -0.451855634079
    C            1.391008590650     0.233948261029    -0.403562251593
    H            2.024973833553    -1.817668871391    -0.662589693295
    H            2.994119874036    -0.917613698218     0.490709653353
    C            0.365061115600    -0.004425185086     0.719074960111
    H            0.875821571807     0.295195960167    -1.353318143207
    H            1.850543008048     1.202063320990    -0.252579446174
    N           -1.013313070673     0.164593758242     0.189408298381
    H            0.405567787512    -1.015432138797     1.087359391944
    H            0.465351618216     0.698421740209     1.527410653357
    O           -1.529732456534    -0.789144438593    -0.289351281928
    O           -1.491332656411     1.247439045340     0.250307758506

  Mulliken Charges: (a.u.)
   Center  Symbol    Alpha    Beta     Spin     Total
       1     H     0.44408  0.44408  0.00000  0.11183
       2     C     3.14976  3.14976  0.00000 -0.29952
       3     C     3.08950  3.08950  0.00000 -0.17901
       4     H     0.44740  0.44740  0.00000  0.10519
       5     H     0.45264  0.45264  0.00000  0.09473
       6     C     3.04010  3.04010  0.00000 -0.08019
       7     H     0.43972  0.43972  0.00000  0.12055
       8     H     0.44287  0.44287  0.00000  0.11425
       9     N     3.27930  3.27930  0.00000  0.44141
      10     H     0.43656  0.43656  0.00000  0.12688
      11     H     0.43214  0.43214  0.00000  0.13573
      12     O     4.17394  4.17394  0.00000 -0.34787
      13     O     4.17199  4.17199  0.00000 -0.34397

   Total alpha = 24.00000, Total beta = 24.00000, Total charge =  0.00000
