  ==> Input File <==

--------------------------------------------------------------------------
set {
	reference rhf
	basis 6-31G*
}

set_num_threads( 1 )
memory 2 gb

molecule MOL {
0 1

H	 2.176868	 -0.646004	 -0.217325
O	 1.337496	 -0.537251	 0.205931
C	 0.702312	 0.627605	 -0.264544
C	 -0.714990	 0.596302	 0.266387
H	 0.682322	 0.642550	 -1.350929
H	 1.215941	 1.520383	 0.085680
O	 -1.405996	 -0.526611	 -0.195820
H	 -1.257453	 1.468809	 -0.075599
H	 -0.688972	 0.618407	 1.353696
H	 -1.268711	 -1.227415	 0.428712

	symmetry c1
}
set optking {
	frozen_dihedral = ("
		5 3 4 7
	")
}

ee = energy('scf')
oeprop('DIPOLE', 'QUADRUPOLE', 'MULLIKEN_CHARGES')
f=open( 'psi4out.xyz', 'w' )
f.write( "10  " )
f.write( str(ee) + "\n" )
f.write( MOL.save_string_xyz() )
f.close()
--------------------------------------------------------------------------

    Molecular point group: c1

    Geometry (in Angstrom), charge = 0, multiplicity = 1:

       Center              X                  Y                   Z               Mass
    ------------   -----------------  -----------------  -----------------  -----------------
           H          2.183010536193    -0.647065146824    -0.223931246029     1.007825032070
           O          1.343638536193    -0.538312146824     0.199324753971    15.994914619560
           C          0.708454536193     0.626543853176    -0.271150246029    12.000000000000
           C         -0.708847463807     0.595240853176     0.259780753971    12.000000000000
           H          0.688464536193     0.641488853176    -1.357535246029     1.007825032070
           H          1.222083536193     1.519321853176     0.079073753971     1.007825032070
           O         -1.399853463807    -0.527672146824    -0.202426246029    15.994914619560
           H         -1.251310463807     1.467747853176    -0.082205246029     1.007825032070
           H         -0.682829463807     0.617345853176     1.347089753971     1.007825032070
           H         -1.262568463807    -1.228476146824     0.422105753971     1.007825032070

  Charge       = 0
  Multiplicity = 1
  Basis Set: 6-31G*
  Basis Set:

    Orbital Energies (a.u.)
    -----------------------

    Doubly Occupied:

       1A    -20.559486     2A    -20.550233     3A    -11.270614
       4A    -11.268590     5A     -1.374869     6A     -1.349494
       7A     -0.999913     8A     -0.836891     9A     -0.722437
      10A     -0.692400    11A     -0.629218    12A     -0.599562
      13A     -0.579024    14A     -0.520261    15A     -0.491456
      16A     -0.446123    17A     -0.432649

  @DF-RHF Final Energy:  -228.92242680666567

   => Energetics <=

    Nuclear Repulsion Energy =            134.2454272072659478
    One-Electron Energy =                -579.6893669539635994
    Two-Electron Energy =                 216.5215129400320961
    DFT Exchange-Correlation Energy =       0.0000000000000000
    Empirical Dispersion Energy =           0.0000000000000000
    PCM Polarization Energy =               0.0000000000000000
    EFP Energy =                            0.0000000000000000
    Total Energy =                       -228.9224268066655554

  Mulliken Charges: (a.u.)
   Center  Symbol    Alpha    Beta     Spin     Total
       1     H     0.27829  0.27829  0.00000  0.44342
       2     O     4.37521  4.37521  0.00000 -0.75042
       3     C     3.00129  3.00129  0.00000 -0.00259
       4     C     3.00590  3.00590  0.00000 -0.01179
       5     H     0.42372  0.42372  0.00000  0.15256
       6     H     0.43177  0.43177  0.00000  0.13645
       7     O     4.36636  4.36636  0.00000 -0.73272
       8     H     0.41813  0.41813  0.00000  0.16374
       9     H     0.42414  0.42414  0.00000  0.15173
      10     H     0.27519  0.27519  0.00000  0.44962

   Total alpha = 17.00000, Total beta = 17.00000, Total charge = -0.00000
