  ==> Input File <==

--------------------------------------------------------------------------
set {
	reference rhf
	basis cc-pvtz
}

set_num_threads( 4 )
memory 2 gb

molecule MOL {
0 1

O	 -2.440701	 -0.934798	 -0.415053
C	 -1.922978	 0.063265	 -0.045005
C	 -2.632749	 1.372204	 0.158357
O	 -0.637375	 0.157174	 0.243149
H	 -2.187724	 2.129143	 -0.474664
H	 -3.677681	 1.257276	 -0.079438
H	 -2.516788	 1.693160	 1.185542
C	 0.162530	 -1.009518	 0.097799
C	 1.587210	 -0.664190	 0.477086
H	 0.096803	 -1.356267	 -0.924704
H	 -0.233803	 -1.785900	 0.736810
C	 2.256770	 0.342732	 -0.454344
H	 2.154716	 -1.590834	 0.479041
H	 1.598751	 -0.289614	 1.496104
C	 3.776754	 0.337704	 -0.330900
H	 1.977108	 0.119479	 -1.480524
H	 1.879135	 1.336110	 -0.241186
H	 4.226104	 1.057573	 -1.004886
H	 4.187623	 -0.638222	 -0.567856
H	 4.087954	 0.590188	 0.677278

	symmetry c1
}
set optking {
	frozen_dihedral = ("
		16 12 9 8
	")
}

ee = optimize('scf')
oeprop('DIPOLE', 'QUADRUPOLE', 'MULLIKEN_CHARGES')
f=open( 'psi4out.xyz', 'w' )
f.write( "20  " )
f.write( str(ee) + "\n" )
f.write( MOL.save_string_xyz() )
f.close()
--------------------------------------------------------------------------

    Molecular point group: c1
  Charge       = 0
  Multiplicity = 1
  Basis Set: CC-PVTZ
  Basis Set:
  @DF-RHF Final Energy:  -384.08653023787031
    Total Energy =                       -384.0865302378703063
    Molecular point group: c1
  Basis Set: CC-PVTZ
  Basis Set:
  Basis Set: CC-PVTZ
  Basis Set:
  @DF-RHF Final Energy:  -384.08665004562482
    Total Energy =                       -384.0866500456247650
  Basis Set: CC-PVTZ
  Basis Set:
  Basis Set: CC-PVTZ
  Basis Set:
  @DF-RHF Final Energy:  -384.08648403237771
    Total Energy =                       -384.0864840323778253
  Basis Set: CC-PVTZ
  Basis Set:
  Basis Set: CC-PVTZ
  Basis Set:
  @DF-RHF Final Energy:  -384.08668057736980
    Total Energy =                       -384.0866805773698616
  Basis Set: CC-PVTZ
  Basis Set:
  Charge       = 0
  Multiplicity = 1
  Basis Set: CC-PVTZ
  Basis Set:

    Orbital Energies (a.u.)
    -----------------------

    Doubly Occupied:

       1A    -20.594132     2A    -20.532533     3A    -11.366492
       4A    -11.280221     5A    -11.231536     6A    -11.223585
       7A    -11.219101     8A    -11.212007     9A     -1.470851
      10A     -1.364963    11A     -1.087046    12A     -1.029161
      13A     -0.982511    14A     -0.881355    15A     -0.813334
      16A     -0.775718    17A     -0.692215    18A     -0.687793
      19A     -0.670167    20A     -0.631979    21A     -0.599621
      22A     -0.594750    23A     -0.572891    24A     -0.551340
      25A     -0.549133    26A     -0.532354    27A     -0.511626
      28A     -0.485381    29A     -0.475717    30A     -0.472853
      31A     -0.452034    32A     -0.441840

  @DF-RHF Final Energy:  -384.08668121003274

   => Energetics <=

    Nuclear Repulsion Energy =            385.5454292998402366
    One-Electron Energy =               -1287.2917444029651506
    Two-Electron Energy =                 517.6596338930918364
    DFT Exchange-Correlation Energy =       0.0000000000000000
    Empirical Dispersion Energy =           0.0000000000000000
    PCM Polarization Energy =               0.0000000000000000
    EFP Energy =                            0.0000000000000000
    Total Energy =                       -384.0866812100331344
    Molecular point group: c1
  Basis Set: CC-PVTZ
  Basis Set:

  -Total Gradient:
     Atom            X                  Y                   Z
    ------   -----------------  -----------------  -----------------
       1        0.000005204813    -0.000010709658     0.000019831950
       2        0.000029377975     0.000025331277    -0.000142563085
       3       -0.000001936817    -0.000012040090     0.000052948320
       4       -0.000029235018     0.000036675658    -0.000039166837
       5        0.000005798195    -0.000014291833     0.000001184120
       6        0.000001415071    -0.000004787417     0.000005362584
       7       -0.000007430155     0.000013344513     0.000006466110
       8        0.000636912873    -0.001613098720    -0.000992714677
       9       -0.001437481802     0.002617653028     0.001728113971
      10       -0.000029158685     0.000023810724    -0.000056225313
      11        0.000043618248    -0.000001307821    -0.000046356132
      12        0.003070083306    -0.002726916390    -0.000795340892
      13        0.000035988094    -0.000009753398     0.000001311105
      14       -0.000026212137     0.000013674561    -0.000035351641
      15        0.000006634494    -0.000056278452    -0.000023951870
      16       -0.002251265922     0.001708205655     0.000320867733
      17       -0.000014796193     0.000018310277     0.000006272436
      18       -0.000019030024    -0.000002273526    -0.000008617658
      19        0.000013172230    -0.000007751834     0.000008196102
      20       -0.000031658544     0.000002203447    -0.000010266323

  **** Optimization is complete! (in 5 steps) ****
    Final optimized geometry and variables:
    Molecular point group: c1

    Geometry (in Angstrom), charge = 0, multiplicity = 1:

    O           -2.449874661994    -0.889543878448    -0.377946790510
    C           -1.926290307411     0.107196750732    -0.012565789675
    C           -2.625903793573     1.423725317244     0.174082178432
    O           -0.641934012561     0.191957508660     0.283333067036
    H           -2.169606147266     2.170601557154    -0.462775581009
    H           -3.670208738660     1.315876740161    -0.069755500441
    H           -2.513852791282     1.752809097670     1.199077697010
    C            0.147709371844    -0.984090985520     0.154722663394
    C            1.578419736461    -0.644664302264     0.512786225504
    H            0.073212043707    -1.347972644013    -0.860948583338
    H           -0.249775097360    -1.745878179261     0.810405701966
    C            2.233708532369     0.375672179647    -0.418052979647
    H            2.135984340141    -1.577166387660     0.477010109121
    H            1.622920047598    -0.296117173861     1.539464002430
    C            3.752898314082     0.398507901861    -0.300561930083
    H            1.939041970577     0.170708553643    -1.443521389544
    H            1.840135609044     1.361340450341    -0.195270697568
    H            4.184083110703     1.153707855760    -0.947151146487
    H            4.183077130717    -0.558704394850    -0.575494483642
    H            4.062205457050     0.618850226391     0.715910986727

  Mulliken Charges: (a.u.)
   Center  Symbol    Alpha    Beta     Spin     Total
       1     O     4.19748  4.19748  0.00000 -0.39495
       2     C     2.80893  2.80893  0.00000  0.38215
       3     C     3.13833  3.13833  0.00000 -0.27666
       4     O     4.15350  4.15350  0.00000 -0.30699
       5     H     0.44599  0.44599  0.00000  0.10802
       6     H     0.43787  0.43787  0.00000  0.12426
       7     H     0.44574  0.44574  0.00000  0.10853
       8     C     2.99398  2.99398  0.00000  0.01204
       9     C     3.08489  3.08489  0.00000 -0.16978
      10     H     0.45089  0.45089  0.00000  0.09821
      11     H     0.44489  0.44489  0.00000  0.11022
      12     C     3.08420  3.08420  0.00000 -0.16840
      13     H     0.45360  0.45360  0.00000  0.09280
      14     H     0.45021  0.45021  0.00000  0.09958
      15     C     3.14944  3.14944  0.00000 -0.29888
      16     H     0.45498  0.45498  0.00000  0.09004
      17     H     0.44793  0.44793  0.00000  0.10414
      18     H     0.44747  0.44747  0.00000  0.10507
      19     H     0.45529  0.45529  0.00000  0.08941
      20     H     0.45440  0.45440  0.00000  0.09119

   Total alpha = 32.00000, Total beta = 32.00000, Total charge =  0.00000
