  ==> Input File <==

--------------------------------------------------------------------------
set {
	reference rhf
	basis 6-31G*
}

set_num_threads( 1 )
memory 2 gb

molecule MOL {
0 1

H	 3.774650	 -0.411221	 0.652467
O	 2.873665	 -0.616721	 0.882144
C	 2.077727	 -0.067559	 -0.035091
C	 0.624473	 -0.343591	 0.253101
O	 2.506115	 0.555369	 -0.951311
C	 -0.265902	 0.883932	 0.072916
H	 0.324016	 -1.163849	 -0.390541
H	 0.565024	 -0.726111	 1.268924
C	 -1.728698	 0.646073	 0.462102
H	 -0.209144	 1.219470	 -0.958188
H	 0.135059	 1.692851	 0.673903
C	 -2.482460	 -0.343073	 -0.431425
H	 -2.245265	 1.602650	 0.432430
H	 -1.779332	 0.308348	 1.496285
C	 -3.960546	 -0.461025	 -0.060175
H	 -2.395034	 -0.026811	 -1.468912
H	 -2.024850	 -1.327147	 -0.371646
H	 -4.472726	 -1.168004	 -0.705284
H	 -4.465146	 0.496508	 -0.151489
H	 -4.081218	 -0.800940	 0.964585

	symmetry c1
}
set optking {
	frozen_dihedral = ("
		16 12 9 6,
		7 4 6 10,
		12 9 6 10,
		1 2 3 5
	")
}

ee = energy('scf')
oeprop('DIPOLE', 'QUADRUPOLE', 'MULLIKEN_CHARGES')
f=open( 'psi4out.xyz', 'w' )
f.write( "20  " )
f.write( str(ee) + "\n" )
f.write( MOL.save_string_xyz() )
f.close()
--------------------------------------------------------------------------

    Molecular point group: c1

    Geometry (in Angstrom), charge = 0, multiplicity = 1:

       Center              X                  Y                   Z               Mass
    ------------   -----------------  -----------------  -----------------  -----------------
           H          3.772769939395    -0.432663515617     0.622448687988     1.007825032070
           O          2.871784939395    -0.638163515617     0.852125687988    15.994914619560
           C          2.075846939395    -0.089001515617    -0.065109312012    12.000000000000
           C          0.622592939395    -0.365033515617     0.223082687988    12.000000000000
           O          2.504234939395     0.533926484383    -0.981329312012    15.994914619560
           C         -0.267782060605     0.862489484383     0.042897687988    12.000000000000
           H          0.322135939395    -1.185291515617    -0.420559312012     1.007825032070
           H          0.563143939395    -0.747553515617     1.238905687988     1.007825032070
           C         -1.730578060605     0.624630484383     0.432083687988    12.000000000000
           H         -0.211024060605     1.198027484383    -0.988206312012     1.007825032070
           H          0.133178939395     1.671408484383     0.643884687988     1.007825032070
           C         -2.484340060605    -0.364515515617    -0.461443312012    12.000000000000
           H         -2.247145060605     1.581207484383     0.402411687988     1.007825032070
           H         -1.781212060605     0.286905484383     1.466266687988     1.007825032070
           C         -3.962426060605    -0.482467515617    -0.090193312012    12.000000000000
           H         -2.396914060605    -0.048253515617    -1.498930312012     1.007825032070
           H         -2.026730060605    -1.348589515617    -0.401664312012     1.007825032070
           H         -4.474606060605    -1.189446515617    -0.735302312012     1.007825032070
           H         -4.467026060605     0.475065484383    -0.181507312012     1.007825032070
           H         -4.083098060605    -0.822382515617     0.934566687988     1.007825032070

  Charge       = 0
  Multiplicity = 1
  Basis Set: 6-31G*
  Basis Set:

    Orbital Energies (a.u.)
    -----------------------

    Doubly Occupied:

       1A    -20.613517     2A    -20.549728     3A    -11.380752
       4A    -11.238873     5A    -11.227742     6A    -11.222447
       7A    -11.221148     8A    -11.213066     9A     -1.474359
      10A     -1.364863    11A     -1.097837    12A     -1.041568
      13A     -0.961698    14A     -0.868913    15A     -0.818494
      16A     -0.780626    17A     -0.700960    18A     -0.688157
      19A     -0.657849    20A     -0.632365    21A     -0.609744
      22A     -0.594593    23A     -0.576908    24A     -0.557296
      25A     -0.538743    26A     -0.516346    27A     -0.495445
      28A     -0.482479    29A     -0.470270    30A     -0.467863
      31A     -0.460396    32A     -0.439267

  @DF-RHF Final Energy:  -383.94704693762435

   => Energetics <=

    Nuclear Repulsion Energy =            375.7364498111404600
    One-Electron Energy =               -1267.4384750754702509
    Two-Electron Energy =                 507.7549783267064640
    DFT Exchange-Correlation Energy =       0.0000000000000000
    Empirical Dispersion Energy =           0.0000000000000000
    PCM Polarization Energy =               0.0000000000000000
    EFP Energy =                            0.0000000000000000
    Total Energy =                       -383.9470469376233268

  Mulliken Charges: (a.u.)
   Center  Symbol    Alpha    Beta     Spin     Total
       1     H     0.26861  0.26861  0.00000  0.46279
       2     O     4.34955  4.34955  0.00000 -0.69909
       3     C     2.62283  2.62283  0.00000  0.75433
       4     C     3.21286  3.21286  0.00000 -0.42573
       5     O     4.27943  4.27943  0.00000 -0.55886
       6     C     3.15955  3.15955  0.00000 -0.31909
       7     H     0.39647  0.39647  0.00000  0.20706
       8     H     0.39936  0.39936  0.00000  0.20129
       9     C     3.15469  3.15469  0.00000 -0.30937
      10     H     0.40569  0.40569  0.00000  0.18861
      11     H     0.41365  0.41365  0.00000  0.17271
      12     C     3.15493  3.15493  0.00000 -0.30986
      13     H     0.41778  0.41778  0.00000  0.16444
      14     H     0.42257  0.42257  0.00000  0.15486
      15     C     3.23943  3.23943  0.00000 -0.47886
      16     H     0.42028  0.42028  0.00000  0.15944
      17     H     0.42257  0.42257  0.00000  0.15487
      18     H     0.41794  0.41794  0.00000  0.16411
      19     H     0.42061  0.42061  0.00000  0.15878
      20     H     0.42121  0.42121  0.00000  0.15758

   Total alpha = 32.00000, Total beta = 32.00000, Total charge =  0.00000
