  ==> Input File <==

--------------------------------------------------------------------------
set {
	reference rhf
	basis cc-pvtz
}

set_num_threads( 4 )
memory 2 gb

molecule MOL {
0 1

H	 -2.498963	 -0.741158	 -0.729149
O	 -2.346257	 -0.289210	 0.080372
C	 -1.183935	 0.486039	 -0.009831
C	 0.062853	 -0.375310	 0.027457
H	 -1.178881	 1.094526	 -0.908634
H	 -1.184406	 1.155156	 0.838676
O	 1.172093	 0.457955	 -0.054438
H	 0.052476	 -1.081302	 -0.804627
H	 0.076323	 -0.955658	 0.947560
C	 1.999034	 0.216236	 -1.144833
H	 1.468679	 0.355162	 -2.084353
H	 2.818626	 0.918392	 -1.100868
H	 2.400780	 -0.794023	 -1.122516

	symmetry c1
}
set optking {
	frozen_dihedral = ("
		10 7 4 8
	")
}

ee = optimize('scf')
oeprop('DIPOLE', 'QUADRUPOLE', 'MULLIKEN_CHARGES')
f=open( 'psi4out.xyz', 'w' )
f.write( "13  " )
f.write( str(ee) + "\n" )
f.write( MOL.save_string_xyz() )
f.close()
--------------------------------------------------------------------------

    Molecular point group: c1
  Charge       = 0
  Multiplicity = 1
  Basis Set: CC-PVTZ
  Basis Set:
  @DF-RHF Final Energy:  -268.05810162705905
    Total Energy =                       -268.0581016270592727
    Molecular point group: c1
  Basis Set: CC-PVTZ
  Basis Set:
  Basis Set: CC-PVTZ
  Basis Set:
  @DF-RHF Final Energy:  -268.05848742928532
    Total Energy =                       -268.0584874292852646
  Basis Set: CC-PVTZ
  Basis Set:
  Basis Set: CC-PVTZ
  Basis Set:
  @DF-RHF Final Energy:  -268.05858549563834
    Total Energy =                       -268.0585854956382263
  Basis Set: CC-PVTZ
  Basis Set:
  Basis Set: CC-PVTZ
  Basis Set:
  @DF-RHF Final Energy:  -268.05858690838068
    Total Energy =                       -268.0585869083805619
  Basis Set: CC-PVTZ
  Basis Set:
  Charge       = 0
  Multiplicity = 1
  Basis Set: CC-PVTZ
  Basis Set:

    Orbital Energies (a.u.)
    -----------------------

    Doubly Occupied:

       1A    -20.553391     2A    -20.553386     3A    -11.269407
       4A    -11.269202     5A    -11.267474     6A     -1.387994
       7A     -1.369205     8A     -1.018245     9A     -0.918995
      10A     -0.841875    11A     -0.712102    12A     -0.669576
      13A     -0.663295    14A     -0.643953    15A     -0.590719
      16A     -0.576422    17A     -0.549988    18A     -0.491097
      19A     -0.472916    20A     -0.465172    21A     -0.409911

  @DF-RHF Final Energy:  -268.05858704990567

   => Energetics <=

    Nuclear Repulsion Energy =            190.8522822855716186
    One-Electron Energy =                -744.4330897453675107
    Two-Electron Energy =                 285.5222204098902239
    DFT Exchange-Correlation Energy =       0.0000000000000000
    Empirical Dispersion Energy =           0.0000000000000000
    PCM Polarization Energy =               0.0000000000000000
    EFP Energy =                            0.0000000000000000
    Total Energy =                       -268.0585870499056682
    Molecular point group: c1
  Basis Set: CC-PVTZ
  Basis Set:

  -Total Gradient:
     Atom            X                  Y                   Z
    ------   -----------------  -----------------  -----------------
       1        0.000001289266     0.000013566530     0.000003185861
       2        0.000000115998    -0.000014819864     0.000008683952
       3        0.000007402559    -0.000003241216    -0.000008111133
       4       -0.000440539631     0.000641398075    -0.000536091814
       5        0.000003981670     0.000000999182     0.000006033378
       6       -0.000009901772     0.000002849018    -0.000002815406
       7        0.000400152177    -0.000556957443     0.000489616411
       8        0.000287026524    -0.000394518884     0.000301263088
       9       -0.000002454469     0.000013156525     0.000002114240
      10       -0.000241013796     0.000299942151    -0.000269256099
      11        0.000001903106    -0.000002294817     0.000003350850
      12       -0.000006696629    -0.000001228425     0.000003330672
      13       -0.000001265003     0.000001149169    -0.000001303999

  **** Optimization is complete! (in 5 steps) ****
    Final optimized geometry and variables:
    Molecular point group: c1

    Geometry (in Angstrom), charge = 0, multiplicity = 1:

    H           -2.457510861176    -0.843644679472    -0.419223055967
    O           -2.281817134072    -0.361397492900     0.367881572285
    C           -1.118585740599     0.403590443957     0.219762469485
    C            0.129081517927    -0.461501941630     0.228365928736
    H           -1.147484119213     0.999369192491    -0.688504619799
    H           -1.082653586057     1.087293396217     1.055773741835
    O            1.263215246001     0.351059494226     0.167538559347
    H            0.104027900650    -1.160457639504    -0.605139224770
    H            0.153078832754    -1.048638661018     1.139830116623
    C            2.123354353881     0.131734100256    -0.902963733244
    H            1.621022033995     0.269858712434    -1.857548174351
    H            2.926932493386     0.850042447252    -0.829421001036
    H            2.547979185231    -0.868744309271    -0.877627402922

  Mulliken Charges: (a.u.)
   Center  Symbol    Alpha    Beta     Spin     Total
       1     H     0.39498  0.39498  0.00000  0.21004
       2     O     4.20129  4.20129  0.00000 -0.40258
       3     C     2.97035  2.97035  0.00000  0.05930
       4     C     2.97529  2.97529  0.00000  0.04943
       5     H     0.47061  0.47061  0.00000  0.05879
       6     H     0.45282  0.45282  0.00000  0.09436
       7     O     4.18158  4.18158  0.00000 -0.36317
       8     H     0.48007  0.48007  0.00000  0.03985
       9     H     0.45384  0.45384  0.00000  0.09232
      10     C     3.02983  3.02983  0.00000 -0.05967
      11     H     0.47354  0.47354  0.00000  0.05291
      12     H     0.44790  0.44790  0.00000  0.10420
      13     H     0.46790  0.46790  0.00000  0.06421

   Total alpha = 21.00000, Total beta = 21.00000, Total charge = -0.00000
