  ==> Input File <==

--------------------------------------------------------------------------
set {
	reference rhf
	basis 6-31G*
}

set_num_threads( 1 )
memory 2 gb

molecule MOL {
0 1

O	 3.225979	 0.970355	 -0.599647
C	 2.701189	 0.057885	 -0.047330
C	 1.245376	 -0.013843	 0.345420
O	 3.347903	 -1.046386	 0.304773
C	 0.455112	 1.231400	 -0.050772
H	 0.838542	 -0.913825	 -0.103701
H	 1.208210	 -0.175333	 1.419774
C	 -0.998893	 1.219485	 0.433193
H	 0.482531	 1.345121	 -1.130325
H	 0.957290	 2.103070	 0.354729
C	 -1.650275	 2.600165	 0.553756
H	 -1.025690	 0.736530	 1.407236
H	 -1.596417	 0.594949	 -0.229326
C	 -3.060777	 2.543071	 1.143861
H	 -1.025165	 3.237331	 1.177515
H	 -1.696988	 3.078882	 -0.421754
C	 -3.723527	 3.916542	 1.264163
H	 -3.020879	 2.076929	 2.126894
H	 -3.683525	 1.897475	 0.526536
C	 -5.130279	 3.851149	 1.857857
H	 -3.102032	 4.563259	 1.879909
H	 -3.768258	 4.382228	 0.281861
H	 -5.573447	 4.839563	 1.930296
H	 -5.115112	 3.421666	 2.855609
H	 -5.786214	 3.238726	 1.245516
C	 4.728119	 -1.109107	 -0.004993
H	 4.882018	 -1.033965	 -1.071845
H	 5.068212	 -2.067527	 0.355250
H	 5.265056	 -0.311663	 0.488280

	symmetry c1
}
set optking {
	frozen_dihedral = ("
		21 17 14 11,
		17 14 11 15,
		15 11 8 5,
		6 3 5 9,
		2 4 26 27,
		1 2 4 26,
		6 3 2 1
	")
}

ee = energy('scf')
oeprop('DIPOLE', 'QUADRUPOLE', 'MULLIKEN_CHARGES')
f=open( 'psi4out.xyz', 'w' )
f.write( "29  " )
f.write( str(ee) + "\n" )
f.write( MOL.save_string_xyz() )
f.close()
--------------------------------------------------------------------------

    Molecular point group: c1

    Geometry (in Angstrom), charge = 0, multiplicity = 1:

       Center              X                  Y                   Z               Mass
    ------------   -----------------  -----------------  -----------------  -----------------
           O          3.079778788039    -0.304545935451    -1.070272172201    15.994914619560
           C          2.554988788039    -1.217015935451    -0.517955172201    12.000000000000
           C          1.099175788039    -1.288743935451    -0.125205172201    12.000000000000
           O          3.201702788039    -2.321286935451    -0.165852172201    15.994914619560
           C          0.308911788039    -0.043500935451    -0.521397172201    12.000000000000
           H          0.692341788039    -2.188725935451    -0.574326172201     1.007825032070
           H          1.062009788039    -1.450233935451     0.949148827799     1.007825032070
           C         -1.145093211961    -0.055415935451    -0.037432172201    12.000000000000
           H          0.336330788039     0.070220064549    -1.600950172201     1.007825032070
           H          0.811089788039     0.828169064549    -0.115896172201     1.007825032070
           C         -1.796475211961     1.325264064549     0.083130827799    12.000000000000
           H         -1.171890211961    -0.538370935451     0.936610827799     1.007825032070
           H         -1.742617211961    -0.679951935451    -0.699951172201     1.007825032070
           C         -3.206977211961     1.268170064549     0.673235827799    12.000000000000
           H         -1.171365211961     1.962430064549     0.706889827799     1.007825032070
           H         -1.843188211961     1.803981064549    -0.892379172201     1.007825032070
           C         -3.869727211961     2.641641064549     0.793537827799    12.000000000000
           H         -3.167079211961     0.802028064549     1.656268827799     1.007825032070
           H         -3.829725211961     0.622574064549     0.055910827799     1.007825032070
           C         -5.276479211961     2.576248064549     1.387231827799    12.000000000000
           H         -3.248232211961     3.288358064549     1.409283827799     1.007825032070
           H         -3.914458211961     3.107327064549    -0.188764172201     1.007825032070
           H         -5.719647211961     3.564662064549     1.459670827799     1.007825032070
           H         -5.261312211961     2.146765064549     2.384983827799     1.007825032070
           H         -5.932414211961     1.963825064549     0.774890827799     1.007825032070
           C          4.581918788039    -2.384007935451    -0.475618172201    12.000000000000
           H          4.735817788039    -2.308865935451    -1.542470172201     1.007825032070
           H          4.922011788039    -3.342427935451    -0.115375172201     1.007825032070
           H          5.118855788039    -1.586563935451     0.017654827799     1.007825032070

  Charge       = 0
  Multiplicity = 1
  Basis Set: 6-31G*
  Basis Set:

    Orbital Energies (a.u.)
    -----------------------

    Doubly Occupied:

       1A    -20.603655     2A    -20.545385     3A    -11.372330
       4A    -11.280818     5A    -11.235982     6A    -11.218568
       7A    -11.217174     8A    -11.214853     9A    -11.214706
      10A    -11.213329    11A    -11.208244    12A     -1.469323
      13A     -1.362729    14A     -1.096237    15A     -1.067206
      16A     -1.020241    17A     -0.977602    18A     -0.927199
      19A     -0.856376    20A     -0.800693    21A     -0.789992
      22A     -0.766728    23A     -0.696991    24A     -0.683716
      25A     -0.671649    26A     -0.656669    27A     -0.630120
      28A     -0.597399    29A     -0.592283    30A     -0.583883
      31A     -0.566050    32A     -0.550506    33A     -0.530243
      34A     -0.523367    35A     -0.516810    36A     -0.514682
      37A     -0.491353    38A     -0.477884    39A     -0.468496
      40A     -0.461518    41A     -0.460142    42A     -0.455709
      43A     -0.446059    44A     -0.432414

  @DF-RHF Final Energy:  -501.04342073727958

   => Energetics <=

    Nuclear Repulsion Energy =            601.8519138803590067
    One-Electron Energy =               -1874.8554342874037957
    Two-Electron Energy =                 771.9600996697649862
    DFT Exchange-Correlation Energy =       0.0000000000000000
    Empirical Dispersion Energy =           0.0000000000000000
    PCM Polarization Energy =               0.0000000000000000
    EFP Energy =                            0.0000000000000000
    Total Energy =                       -501.0434207372798028

  Mulliken Charges: (a.u.)
   Center  Symbol    Alpha    Beta     Spin     Total
       1     O     4.28579  4.28579  0.00000 -0.57159
       2     C     2.60511  2.60511  0.00000  0.78978
       3     C     3.20878  3.20878  0.00000 -0.41755
       4     O     4.30762  4.30762  0.00000 -0.61524
       5     C     3.15330  3.15330  0.00000 -0.30661
       6     H     0.40016  0.40016  0.00000  0.19967
       7     H     0.40071  0.40071  0.00000  0.19858
       8     C     3.15480  3.15480  0.00000 -0.30960
       9     H     0.41208  0.41208  0.00000  0.17584
      10     H     0.41059  0.41059  0.00000  0.17881
      11     C     3.15233  3.15233  0.00000 -0.30465
      12     H     0.42510  0.42510  0.00000  0.14980
      13     H     0.42183  0.42183  0.00000  0.15634
      14     C     3.15125  3.15125  0.00000 -0.30250
      15     H     0.42244  0.42244  0.00000  0.15511
      16     H     0.42153  0.42153  0.00000  0.15694
      17     C     3.15154  3.15154  0.00000 -0.30308
      18     H     0.42421  0.42421  0.00000  0.15158
      19     H     0.42404  0.42404  0.00000  0.15191
      20     C     3.23928  3.23928  0.00000 -0.47857
      21     H     0.42278  0.42278  0.00000  0.15445
      22     H     0.42270  0.42270  0.00000  0.15460
      23     H     0.41921  0.41921  0.00000  0.16158
      24     H     0.42196  0.42196  0.00000  0.15608
      25     H     0.42187  0.42187  0.00000  0.15625
      26     C     3.09241  3.09241  0.00000 -0.18481
      27     H     0.40903  0.40903  0.00000  0.18194
      28     H     0.40845  0.40845  0.00000  0.18310
      29     H     0.40909  0.40909  0.00000  0.18181

   Total alpha = 44.00000, Total beta = 44.00000, Total charge =  0.00000
