  ==> Input File <==

--------------------------------------------------------------------------
set {
	reference rhf
	basis 6-31G*
}

set_num_threads( 1 )
memory 2 gb

molecule MOL {
0 1

H	 2.699704	 -0.077116	 -0.856286
O	 1.853740	 -0.512112	 -0.900002
C	 1.050492	 0.053836	 0.000068
C	 -0.318135	 -0.576402	 0.000164
O	 1.411095	 0.945138	 0.697593
C	 -1.454360	 0.441875	 -0.000474
H	 -0.374042	 -1.230163	 -0.866135
H	 -0.374274	 -1.229227	 0.867154
C	 -2.826123	 -0.230780	 0.000056
H	 -1.357605	 1.085198	 -0.868380
H	 -1.357504	 1.086451	 0.866496
H	 -2.959731	 -0.858053	 -0.876869
H	 -3.619374	 0.509403	 -0.000080
H	 -2.959371	 -0.857318	 0.877556

	symmetry c1
}
set optking {
	frozen_dihedral = ("
		7 4 6 10,
		1 2 3 5
	")
}

ee = energy('scf')
oeprop('DIPOLE', 'QUADRUPOLE', 'MULLIKEN_CHARGES')
f=open( 'psi4out.xyz', 'w' )
f.write( "14  " )
f.write( str(ee) + "\n" )
f.write( MOL.save_string_xyz() )
f.close()
--------------------------------------------------------------------------

    Molecular point group: c1

    Geometry (in Angstrom), charge = 0, multiplicity = 1:

       Center              X                  Y                   Z               Mass
    ------------   -----------------  -----------------  -----------------  -----------------
           H          2.708103165749    -0.095348831862    -0.809688839865     1.007825032070
           O          1.862139165749    -0.530344831862    -0.853404839865    15.994914619560
           C          1.058891165749     0.035603168138     0.046665160135    12.000000000000
           C         -0.309735834251    -0.594634831862     0.046761160135    12.000000000000
           O          1.419494165749     0.926905168138     0.744190160135    15.994914619560
           C         -1.445960834251     0.423642168138     0.046123160135    12.000000000000
           H         -0.365642834251    -1.248395831862    -0.819537839865     1.007825032070
           H         -0.365874834251    -1.247459831862     0.913751160135     1.007825032070
           C         -2.817723834251    -0.249012831862     0.046653160135    12.000000000000
           H         -1.349205834251     1.066965168138    -0.821782839865     1.007825032070
           H         -1.349104834251     1.068218168138     0.913093160135     1.007825032070
           H         -2.951331834251    -0.876285831862    -0.830271839865     1.007825032070
           H         -3.610974834251     0.491170168138     0.046517160135     1.007825032070
           H         -2.950971834251    -0.875550831862     0.924153160135     1.007825032070

  Charge       = 0
  Multiplicity = 1
  Basis Set: 6-31G*
  Basis Set:

    Orbital Energies (a.u.)
    -----------------------

    Doubly Occupied:

       1A    -20.614300     2A    -20.550447     3A    -11.381405
       4A    -11.239897     5A    -11.230825     6A    -11.219334
       7A     -1.475089     8A     -1.365634     9A     -1.085004
      10A     -0.980180    11A     -0.857141    12A     -0.797852
      13A     -0.702179    14A     -0.686949    15A     -0.655846
      16A     -0.623153    17A     -0.594525    18A     -0.572374
      19A     -0.547127    20A     -0.511594    21A     -0.495898
      22A     -0.485050    23A     -0.474062    24A     -0.441733

  @DF-RHF Final Energy:  -305.87907826284413

   => Energetics <=

    Nuclear Repulsion Energy =            239.8204125668132463
    One-Electron Energy =                -892.2236464604101229
    Two-Electron Energy =                 346.5241556307532846
    DFT Exchange-Correlation Energy =       0.0000000000000000
    Empirical Dispersion Energy =           0.0000000000000000
    PCM Polarization Energy =               0.0000000000000000
    EFP Energy =                            0.0000000000000000
    Total Energy =                       -305.8790782628435636

  Mulliken Charges: (a.u.)
   Center  Symbol    Alpha    Beta     Spin     Total
       1     H     0.26853  0.26853  0.00000  0.46294
       2     O     4.34906  4.34906  0.00000 -0.69813
       3     C     2.62370  2.62370  0.00000  0.75261
       4     C     3.20988  3.20988  0.00000 -0.41975
       5     O     4.27910  4.27910  0.00000 -0.55820
       6     C     3.15849  3.15849  0.00000 -0.31698
       7     H     0.39896  0.39896  0.00000  0.20207
       8     H     0.39846  0.39846  0.00000  0.20309
       9     C     3.24237  3.24237  0.00000 -0.48474
      10     H     0.41461  0.41461  0.00000  0.17079
      11     H     0.40376  0.40376  0.00000  0.19248
      12     H     0.41964  0.41964  0.00000  0.16073
      13     H     0.41431  0.41431  0.00000  0.17139
      14     H     0.41914  0.41914  0.00000  0.16172

   Total alpha = 24.00000, Total beta = 24.00000, Total charge =  0.00000
