  ==> Input File <==

--------------------------------------------------------------------------
set {
	reference rhf
	basis 6-31G*
}

set_num_threads( 4 )
memory 2 gb

molecule MOL {
0 1

H	 -2.467344	 -2.019639	 -1.143453
C	 -1.924060	 -1.225438	 -0.666523
C	 -2.587838	 -0.153050	 -0.095268
C	 -0.547122	 -1.264218	 -0.616660
H	 -3.661513	 -0.104512	 -0.123687
C	 -1.875662	 0.862178	 0.515344
H	 -0.004351	 -2.078920	 -1.048443
C	 0.154804	 -0.237046	 -0.000077
H	 -2.409190	 1.685561	 0.952933
C	 -0.484072	 0.860521	 0.586621
N	 1.611208	 -0.370857	 -0.000034
C	 0.192057	 2.023454	 1.278983
O	 2.274126	 0.622059	 -0.008063
O	 2.068510	 -1.474748	 0.007823
H	 0.857448	 2.551833	 0.610255
H	 -0.563887	 2.712979	 1.633214
H	 0.783892	 1.694642	 2.122037

	symmetry c1
}
set optking {
	frozen_dihedral = ("
		4 8 11 13
	")
}

ee = optimize('scf')
oeprop('DIPOLE', 'QUADRUPOLE', 'MULLIKEN_CHARGES')
f=open( 'psi4out.xyz', 'w' )
f.write( "17  " )
f.write( str(ee) + "\n" )
f.write( MOL.save_string_xyz() )
f.close()
--------------------------------------------------------------------------

    Molecular point group: c1
  Charge       = 0
  Multiplicity = 1
  Basis Set: 6-31G*
  Basis Set:
  @DF-RHF Final Energy:  -473.20589699218471
    Total Energy =                       -473.2058969921843072
    Molecular point group: c1
  Basis Set: 6-31G*
  Basis Set:
  Basis Set: 6-31G*
  Basis Set:
  @DF-RHF Final Energy:  -473.20030062312748
    Total Energy =                       -473.2003006231275322
  Basis Set: 6-31G*
  Basis Set:
  Basis Set: 6-31G*
  Basis Set:
  @DF-RHF Final Energy:  -473.20643236711021
    Total Energy =                       -473.2064323671099828
  Basis Set: 6-31G*
  Basis Set:
  Basis Set: 6-31G*
  Basis Set:
  @DF-RHF Final Energy:  -473.20669963192177
    Total Energy =                       -473.2066996319215377
  Basis Set: 6-31G*
  Basis Set:
  Basis Set: 6-31G*
  Basis Set:
  @DF-RHF Final Energy:  -473.20672101321907
    Total Energy =                       -473.2067210132190667
  Basis Set: 6-31G*
  Basis Set:
  Basis Set: 6-31G*
  Basis Set:
  @DF-RHF Final Energy:  -473.20672275450806
    Total Energy =                       -473.2067227545080641
  Basis Set: 6-31G*
  Basis Set:
  Charge       = 0
  Multiplicity = 1
  Basis Set: 6-31G*
  Basis Set:

    Orbital Energies (a.u.)
    -----------------------

    Doubly Occupied:

       1A    -20.600129     2A    -20.598592     3A    -15.852834
       4A    -11.300677     5A    -11.281549     6A    -11.266623
       7A    -11.263374     8A    -11.254368     9A    -11.253523
      10A    -11.234491    11A     -1.632417    12A     -1.415039
      13A     -1.200323    14A     -1.091780    15A     -1.072031
      16A     -0.979719    17A     -0.931818    18A     -0.848341
      19A     -0.821885    20A     -0.769317    21A     -0.732345
      22A     -0.726069    23A     -0.693613    24A     -0.660838
      25A     -0.637389    26A     -0.598596    27A     -0.591627
      28A     -0.564486    29A     -0.540791    30A     -0.520796
      31A     -0.519760    32A     -0.486179    33A     -0.479768
      34A     -0.447770    35A     -0.368274    36A     -0.353493

  @DF-RHF Final Energy:  -473.20672290194875

   => Energetics <=

    Nuclear Repulsion Energy =            509.9651554236177162
    One-Electron Energy =               -1655.1625135984058943
    Two-Electron Energy =                 671.9906352728396541
    DFT Exchange-Correlation Energy =       0.0000000000000000
    Empirical Dispersion Energy =           0.0000000000000000
    PCM Polarization Energy =               0.0000000000000000
    EFP Energy =                            0.0000000000000000
    Total Energy =                       -473.2067229019485239
    Molecular point group: c1
  Basis Set: 6-31G*
  Basis Set:

  -Total Gradient:
     Atom            X                  Y                   Z
    ------   -----------------  -----------------  -----------------
       1        0.000000792861     0.000000176920    -0.000002611816
       2       -0.000033677832     0.000021072493     0.000005277035
       3       -0.000005315859    -0.000040004514    -0.000015100910
       4        0.000069044712     0.000317346504    -0.000495676859
       5       -0.000000594495     0.000000605720    -0.000001065854
       6        0.000037681926     0.000022806430    -0.000004500796
       7        0.000003518215    -0.000005059417    -0.000003431760
       8       -0.000054519715    -0.000457629405     0.000439021110
       9       -0.000001563022    -0.000002049920     0.000000712118
      10       -0.000028046159     0.000000267659     0.000024639772
      11        0.000010036974     0.000164002699     0.000764406429
      12        0.000007635475    -0.000011889796     0.000011195032
      13        0.000002768601    -0.000021854515    -0.000712374699
      14       -0.000008550760    -0.000001666960     0.000000731357
      15        0.000002447597     0.000006035684    -0.000005186576
      16        0.000002628410     0.000004075117    -0.000001865544
      17       -0.000004286926     0.000003765301    -0.000004168039

  **** Optimization is complete! (in 7 steps) ****
    Final optimized geometry and variables:
    Molecular point group: c1

    Geometry (in Angstrom), charge = 0, multiplicity = 1:

    H           -2.455524360587    -1.992008077078    -1.270297510846
    C           -1.913920568585    -1.198764500378    -0.789786583261
    C           -2.579783004115    -0.114320943946    -0.243592991721
    C           -0.537896799864    -1.253288773063    -0.705835767542
    H           -3.652260513527    -0.059428285861    -0.293844002315
    C           -1.873486760640     0.901635560811     0.375036637745
    H            0.009450634683    -2.082792293970    -1.105769649199
    C            0.151906394301    -0.217138022814    -0.097173627144
    H           -2.409126184453     1.728178034662     0.804862351296
    C           -0.483962316416     0.891512199909     0.460763903280
    N            1.606686758131    -0.339107913719    -0.083546219657
    C            0.215827791043     2.037645474896     1.156254158347
    O            2.255643359508     0.663129673619    -0.097601970503
    O            2.067828171221    -1.441101491296    -0.080324637351
    H            0.717134519319     2.677388993106     0.442051798970
    H           -0.513021581724     2.626865157210     1.698515532539
    H            0.964446224606     1.690662514577     1.855641128361

  Mulliken Charges: (a.u.)
   Center  Symbol    Alpha    Beta     Spin     Total
       1     H     0.38944  0.38944  0.00000  0.22113
       2     C     3.11231  3.11231  0.00000 -0.22462
       3     C     3.08198  3.08198  0.00000 -0.16397
       4     C     3.08311  3.08311  0.00000 -0.16622
       5     H     0.38982  0.38982  0.00000  0.22037
       6     C     3.12454  3.12454  0.00000 -0.24908
       7     H     0.36672  0.36672  0.00000  0.26656
       8     C     2.92812  2.92812  0.00000  0.14375
       9     H     0.39272  0.39272  0.00000  0.21457
      10     C     2.96372  2.96372  0.00000  0.07256
      11     N     3.25497  3.25497  0.00000  0.49006
      12     C     3.24015  3.24015  0.00000 -0.48031
      13     O     4.23149  4.23149  0.00000 -0.46297
      14     O     4.23111  4.23111  0.00000 -0.46221
      15     H     0.39401  0.39401  0.00000  0.21197
      16     H     0.41392  0.41392  0.00000  0.17216
      17     H     0.40188  0.40188  0.00000  0.19625

   Total alpha = 36.00000, Total beta = 36.00000, Total charge = -0.00000
