  ==> Input File <==

--------------------------------------------------------------------------
set {
	reference rhf
	basis cc-pvtz
}

set_num_threads( 4 )
memory 2 gb

molecule MOL {
0 1

H	 -1.752232	 -2.214755	 -0.011938
C	 -1.343852	 -1.221619	 -0.018179
N	 -0.058800	 -1.097635	 -0.261688
C	 -2.148159	 -0.124236	 0.219734
C	 0.449026	 0.119242	 -0.273393
H	 -3.196988	 -0.237571	 0.417076
N	 -1.655094	 1.094230	 0.209506
C	 -0.370318	 1.215445	 -0.035100
C	 1.924033	 0.265863	 -0.538106
H	 0.033214	 2.210441	 -0.046812
C	 2.267058	 1.572739	 -1.254944
H	 2.442872	 0.229978	 0.412306
H	 2.269367	 -0.577090	 -1.124952
H	 3.337842	 1.657618	 -1.396901
H	 1.931844	 2.423739	 -0.676662
H	 1.794216	 1.619037	 -2.229533

	symmetry c1
}
set optking {
	frozen_dihedral = ("
		12 9 5 3
	")
}

ee = optimize('scf')
oeprop('DIPOLE', 'QUADRUPOLE', 'MULLIKEN_CHARGES')
f=open( 'psi4out.xyz', 'w' )
f.write( "16  " )
f.write( str(ee) + "\n" )
f.write( MOL.save_string_xyz() )
f.close()
--------------------------------------------------------------------------

    Molecular point group: c1
  Charge       = 0
  Multiplicity = 1
  Basis Set: CC-PVTZ
  Basis Set:
  @DF-RHF Final Energy:  -340.86850133689677
    Total Energy =                       -340.8685013368969408
    Molecular point group: c1
  Basis Set: CC-PVTZ
  Basis Set:
  Basis Set: CC-PVTZ
  Basis Set:
  @DF-RHF Final Energy:  -340.86951912652262
    Total Energy =                       -340.8695191265225617
  Basis Set: CC-PVTZ
  Basis Set:
  Basis Set: CC-PVTZ
  Basis Set:
  @DF-RHF Final Energy:  -340.87000663027317
    Total Energy =                       -340.8700066302731670
  Basis Set: CC-PVTZ
  Basis Set:
  Basis Set: CC-PVTZ
  Basis Set:
  @DF-RHF Final Energy:  -340.87004850923290
    Total Energy =                       -340.8700485092325607
  Basis Set: CC-PVTZ
  Basis Set:
  Basis Set: CC-PVTZ
  Basis Set:
  @DF-RHF Final Energy:  -340.87005534480670
    Total Energy =                       -340.8700553448069854
  Basis Set: CC-PVTZ
  Basis Set:
  Charge       = 0
  Multiplicity = 1
  Basis Set: CC-PVTZ
  Basis Set:

    Orbital Energies (a.u.)
    -----------------------

    Doubly Occupied:

       1A    -15.579992     2A    -15.574982     3A    -11.279263
       4A    -11.271373     5A    -11.267797     6A    -11.266906
       7A    -11.231818     8A    -11.221673     9A     -1.315276
      10A     -1.223050    11A     -1.086612    12A     -1.016438
      13A     -0.908853    14A     -0.894501    15A     -0.831726
      16A     -0.716642    17A     -0.712668    18A     -0.654936
      19A     -0.625654    20A     -0.609961    21A     -0.575279
      22A     -0.566085    23A     -0.522156    24A     -0.512610
      25A     -0.506554    26A     -0.484098    27A     -0.432458
      28A     -0.397240    29A     -0.346369

  @DF-RHF Final Energy:  -340.87005627015549

   => Energetics <=

    Nuclear Repulsion Energy =            349.9250526873466924
    One-Electron Energy =               -1154.3242724559381713
    Two-Electron Energy =                 463.5291634984357643
    DFT Exchange-Correlation Energy =       0.0000000000000000
    Empirical Dispersion Energy =           0.0000000000000000
    PCM Polarization Energy =               0.0000000000000000
    EFP Energy =                            0.0000000000000000
    Total Energy =                       -340.8700562701557146
    Molecular point group: c1
  Basis Set: CC-PVTZ
  Basis Set:

  -Total Gradient:
     Atom            X                  Y                   Z
    ------   -----------------  -----------------  -----------------
       1       -0.000011364846    -0.000000776499    -0.000015409149
       2        0.000212537939    -0.000068911323    -0.000031096499
       3       -0.000154674870    -0.000159560631     0.000110883455
       4        0.000005234522     0.000211282686     0.000079571248
       5       -0.000031091102     0.000210950173    -0.000105167484
       6       -0.000007261105    -0.000008793349    -0.000029909683
       7       -0.000164921153    -0.000122615831     0.000015017350
       8        0.000194077030    -0.000060590505    -0.000082097642
       9       -0.000022854162     0.000126085884     0.000062697488
      10       -0.000002213256     0.000001616182     0.000005648489
      11       -0.000016758771    -0.000007202956    -0.000003457826
      12        0.000006345477    -0.000124098369     0.000000584448
      13        0.000005510340    -0.000005712463    -0.000006230027
      14       -0.000004086737    -0.000000020640    -0.000000333041
      15       -0.000007061014    -0.000001486114     0.000002444793
      16       -0.000001418293     0.000009833755    -0.000003145919

  **** Optimization is complete! (in 6 steps) ****
    Final optimized geometry and variables:
    Molecular point group: c1

    Geometry (in Angstrom), charge = 0, multiplicity = 1:

    H           -1.641512688857    -2.488856686738     0.222569686006
    C           -1.258083253214    -1.485957502839     0.230117783695
    N            0.023567947440    -1.327649258584    -0.018359926093
    C           -2.085097227509    -0.413157294388     0.487923429974
    C            0.507096646803    -0.101618406312    -0.014691684502
    H           -3.130203165229    -0.551644277153     0.688333531442
    N           -1.617795264954     0.816549544323     0.494050958422
    C           -0.338459269746     0.972350026992     0.245507191250
    C            1.987976025692     0.053141503910    -0.268729550865
    H            0.032940162608     1.977897690385     0.251788581481
    C            2.405730917744     1.316771296616    -1.016960171400
    H            2.502219241059     0.013235025205     0.687543811654
    H            2.304049723284    -0.822910695570    -0.818137645940
    H            3.468927142693     1.288257124383    -1.220922774326
    H            2.211479254226     2.215870495805    -0.445479286385
    H            1.886478109602     1.403015052571    -1.964500878585

  Mulliken Charges: (a.u.)
   Center  Symbol    Alpha    Beta     Spin     Total
       1     H     0.41390  0.41390  0.00000  0.17221
       2     C     3.04186  3.04186  0.00000 -0.08373
       3     N     3.59148  3.59148  0.00000 -0.18296
       4     C     3.04794  3.04794  0.00000 -0.09587
       5     C     2.95493  2.95493  0.00000  0.09014
       6     H     0.41387  0.41387  0.00000  0.17227
       7     N     3.58837  3.58837  0.00000 -0.17674
       8     C     3.07313  3.07313  0.00000 -0.14626
       9     C     3.07072  3.07072  0.00000 -0.14144
      10     H     0.41377  0.41377  0.00000  0.17246
      11     C     3.15547  3.15547  0.00000 -0.31094
      12     H     0.44661  0.44661  0.00000  0.10678
      13     H     0.44144  0.44144  0.00000  0.11712
      14     H     0.44472  0.44472  0.00000  0.11056
      15     H     0.45456  0.45456  0.00000  0.09089
      16     H     0.44724  0.44724  0.00000  0.10551

   Total alpha = 29.00000, Total beta = 29.00000, Total charge = -0.00000
