  ==> Input File <==

--------------------------------------------------------------------------
set {
	reference rhf
	basis 6-31G*
}

set_num_threads( 1 )
memory 2 gb

molecule MOL {
0 1

H	 -3.261111	 -0.295142	 1.469456
C	 -3.306842	 -0.277400	 0.373456
C	 -2.660244	 0.921717	 -0.272021
O	 -3.838538	 -1.161155	 -0.216482
C	 -1.220012	 1.144545	 0.209990
H	 -2.705793	 0.797307	 -1.347733
H	 -3.263782	 1.790044	 -0.010477
C	 -0.252658	 0.041456	 -0.226725
H	 -0.873521	 2.100229	 -0.171974
H	 -1.211708	 1.231594	 1.295398
C	 1.180775	 0.282413	 0.250794
H	 -0.266029	 -0.034465	 -1.312038
H	 -0.597733	 -0.921000	 0.146291
C	 2.148627	 -0.814315	 -0.201312
H	 1.516199	 1.249228	 -0.115937
H	 1.192670	 0.346017	 1.338083
C	 3.580890	 -0.659131	 0.322722
H	 2.166869	 -0.852443	 -1.289387
H	 1.762857	 -1.776509	 0.128956
C	 3.770296	 -1.065871	 1.785017
H	 3.876553	 0.380964	 0.209878
H	 4.258138	 -1.236045	 -0.303717
H	 3.093533	 -0.515974	 2.433766
H	 3.589450	 -2.124401	 1.939236
H	 4.783981	 -0.858221	 2.114135

	symmetry c1
}
set optking {
	frozen_dihedral = ("
		6 3 5 8,
		6 3 2 4,
		3 5 8 12,
		12 8 11 14,
		8 11 14 18
	")
}

ee = energy('scf')
oeprop('DIPOLE', 'QUADRUPOLE', 'MULLIKEN_CHARGES')
f=open( 'psi4out.xyz', 'w' )
f.write( "25  " )
f.write( str(ee) + "\n" )
f.write( MOL.save_string_xyz() )
f.close()
--------------------------------------------------------------------------

    Molecular point group: c1

    Geometry (in Angstrom), charge = 0, multiplicity = 1:

       Center              X                  Y                   Z               Mass
    ------------   -----------------  -----------------  -----------------  -----------------
           H         -3.196043105465    -0.104570450592     1.235180321504     1.007825032070
           C         -3.241774105465    -0.086828450592     0.139180321504    12.000000000000
           C         -2.595176105465     1.112288549408    -0.506296678496    12.000000000000
           O         -3.773470105465    -0.970583450592    -0.450757678496    15.994914619560
           C         -1.154944105465     1.335116549408    -0.024285678496    12.000000000000
           H         -2.640725105465     0.987878549408    -1.582008678496     1.007825032070
           H         -3.198714105465     1.980615549408    -0.244752678496     1.007825032070
           C         -0.187590105465     0.232027549408    -0.461000678496    12.000000000000
           H         -0.808453105465     2.290800549408    -0.406249678496     1.007825032070
           H         -1.146640105465     1.422165549408     1.061122321504     1.007825032070
           C          1.245842894535     0.472984549408     0.016518321504    12.000000000000
           H         -0.200961105465     0.156106549408    -1.546313678496     1.007825032070
           H         -0.532665105465    -0.730428450592    -0.087984678496     1.007825032070
           C          2.213694894535    -0.623743450592    -0.435587678496    12.000000000000
           H          1.581266894535     1.439799549408    -0.350212678496     1.007825032070
           H          1.257737894535     0.536588549408     1.103807321504     1.007825032070
           C          3.645957894535    -0.468559450592     0.088446321504    12.000000000000
           H          2.231936894535    -0.661871450592    -1.523662678496     1.007825032070
           H          1.827924894535    -1.585937450592    -0.105319678496     1.007825032070
           C          3.835363894535    -0.875299450592     1.550741321504    12.000000000000
           H          3.941620894535     0.571535549408    -0.024397678496     1.007825032070
           H          4.323205894535    -1.045473450592    -0.537992678496     1.007825032070
           H          3.158600894535    -0.325402450592     2.199490321504     1.007825032070
           H          3.654517894535    -1.933829450592     1.704960321504     1.007825032070
           H          4.849048894535    -0.667649450592     1.879859321504     1.007825032070

  Charge       = 0
  Multiplicity = 1
  Basis Set: 6-31G*
  Basis Set:

    Orbital Energies (a.u.)
    -----------------------

    Doubly Occupied:

       1A    -20.562059     2A    -11.326185     3A    -11.235449
       4A    -11.234726     5A    -11.224080     6A    -11.220365
       7A    -11.217706     8A    -11.216698     9A    -11.210869
      10A     -1.402032    11A     -1.104112    12A     -1.069706
      13A     -1.013766    14A     -0.942722    15A     -0.874074
      16A     -0.819631    17A     -0.788433    18A     -0.783805
      19A     -0.664168    20A     -0.662499    21A     -0.630061
      22A     -0.626398    23A     -0.607765    24A     -0.591744
      25A     -0.567155    26A     -0.561481    27A     -0.525785
      28A     -0.521097    29A     -0.519154    30A     -0.497247
      31A     -0.486022    32A     -0.481914    33A     -0.464324
      34A     -0.457858    35A     -0.441896    36A     -0.409605

  @DF-RHF Final Energy:  -387.12124112582421

   => Energetics <=

    Nuclear Repulsion Energy =            439.2509763540348331
    One-Electron Energy =               -1394.8195957442599138
    Two-Electron Energy =                 568.4473782644018911
    DFT Exchange-Correlation Energy =       0.0000000000000000
    Empirical Dispersion Energy =           0.0000000000000000
    PCM Polarization Energy =               0.0000000000000000
    EFP Energy =                            0.0000000000000000
    Total Energy =                       -387.1212411258231896

  Mulliken Charges: (a.u.)
   Center  Symbol    Alpha    Beta     Spin     Total
       1     H     0.43258  0.43258  0.00000  0.13483
       2     C     2.83086  2.83086  0.00000  0.33827
       3     C     3.20812  3.20812  0.00000 -0.41624
       4     O     4.23773  4.23773  0.00000 -0.47546
       5     C     3.16660  3.16660  0.00000 -0.33320
       6     H     0.39967  0.39967  0.00000  0.20066
       7     H     0.40667  0.40667  0.00000  0.18666
       8     C     3.15497  3.15497  0.00000 -0.30995
       9     H     0.41282  0.41282  0.00000  0.17436
      10     H     0.41962  0.41962  0.00000  0.16076
      11     C     3.15388  3.15388  0.00000 -0.30776
      12     H     0.41798  0.41798  0.00000  0.16404
      13     H     0.41816  0.41816  0.00000  0.16367
      14     C     3.15365  3.15365  0.00000 -0.30730
      15     H     0.42248  0.42248  0.00000  0.15504
      16     H     0.42246  0.42246  0.00000  0.15507
      17     C     3.15357  3.15357  0.00000 -0.30714
      18     H     0.42050  0.42050  0.00000  0.15900
      19     H     0.42261  0.42261  0.00000  0.15478
      20     C     3.24071  3.24071  0.00000 -0.48142
      21     H     0.42355  0.42355  0.00000  0.15291
      22     H     0.41954  0.41954  0.00000  0.16093
      23     H     0.42198  0.42198  0.00000  0.15605
      24     H     0.42048  0.42048  0.00000  0.15904
      25     H     0.41881  0.41881  0.00000  0.16238

   Total alpha = 36.00000, Total beta = 36.00000, Total charge = -0.00000
