  ==> Input File <==

--------------------------------------------------------------------------
set {
	reference rhf
	basis cc-pvtz
}

set_num_threads( 4 )
memory 2 gb

molecule MOL {
0 1

H	 0.052427	 -2.576505	 -0.164348
C	 -0.833020	 -1.939438	 -0.204087
N	 -0.537714	 -0.645117	 0.000000
O	 -1.917535	 -2.385459	 -0.408073
C	 -1.522613	 0.412524	 0.000000
H	 0.411899	 -0.414581	 0.158347
H	 -2.150256	 0.356137	 -0.880771
H	 -1.005621	 1.357208	 0.000000
H	 -2.150256	 0.356137	 0.880771

	symmetry c1
}
set optking {
	frozen_dihedral = ("
		6 3 5 7
	")
}

ee = optimize('scf')
oeprop('DIPOLE', 'QUADRUPOLE', 'MULLIKEN_CHARGES')
f=open( 'psi4out.xyz', 'w' )
f.write( "9  " )
f.write( str(ee) + "\n" )
f.write( MOL.save_string_xyz() )
f.close()
--------------------------------------------------------------------------

    Molecular point group: c1
  Charge       = 0
  Multiplicity = 1
  Basis Set: CC-PVTZ
  Basis Set:
  @DF-RHF Final Energy:  -208.04346536150035
    Total Energy =                       -208.0434653615003526
    Molecular point group: c1
  Basis Set: CC-PVTZ
  Basis Set:
  Basis Set: CC-PVTZ
  Basis Set:
  @DF-RHF Final Energy:  -208.04363760666018
    Total Energy =                       -208.0436376066601269
  Basis Set: CC-PVTZ
  Basis Set:
  Basis Set: CC-PVTZ
  Basis Set:
  @DF-RHF Final Energy:  -208.04364515004903
    Total Energy =                       -208.0436451500490307
  Basis Set: CC-PVTZ
  Basis Set:
  Basis Set: CC-PVTZ
  Basis Set:
  @DF-RHF Final Energy:  -208.04365050966948
    Total Energy =                       -208.0436505096695043
  Basis Set: CC-PVTZ
  Basis Set:
  Basis Set: CC-PVTZ
  Basis Set:
  @DF-RHF Final Energy:  -208.04366506543670
    Total Energy =                       -208.0436650654367554
  Basis Set: CC-PVTZ
  Basis Set:
  Basis Set: CC-PVTZ
  Basis Set:
  @DF-RHF Final Energy:  -208.04366635665252
    Total Energy =                       -208.0436663566525795
  Basis Set: CC-PVTZ
  Basis Set:
  Charge       = 0
  Multiplicity = 1
  Basis Set: CC-PVTZ
  Basis Set:

    Orbital Energies (a.u.)
    -----------------------

    Doubly Occupied:

       1A    -20.516565     2A    -15.584390     3A    -11.335978
       4A    -11.260532     5A     -1.393916     6A     -1.239340
       7A     -0.969831     8A     -0.809259     9A     -0.749157
      10A     -0.645803    11A     -0.629955    12A     -0.596193
      13A     -0.559508    14A     -0.537011    15A     -0.428206
      16A     -0.396705

  @DF-RHF Final Energy:  -208.04366725933130

   => Energetics <=

    Nuclear Repulsion Energy =            122.9321507055390015
    One-Electron Energy =                -526.6469377799962786
    Two-Electron Energy =                 195.6711198151259623
    DFT Exchange-Correlation Energy =       0.0000000000000000
    Empirical Dispersion Energy =           0.0000000000000000
    PCM Polarization Energy =               0.0000000000000000
    EFP Energy =                            0.0000000000000000
    Total Energy =                       -208.0436672593313006
    Molecular point group: c1
  Basis Set: CC-PVTZ
  Basis Set:

  -Total Gradient:
     Atom            X                  Y                   Z
    ------   -----------------  -----------------  -----------------
       1        0.000000425403     0.000000458655    -0.000005682293
       2        0.000040007757     0.000007558357    -0.000055526403
       3       -0.000047330746    -0.000052199428     0.000282019888
       4       -0.000004177887     0.000009398602    -0.000020089812
       5       -0.000048618432    -0.000001991114    -0.000040416577
       6        0.000019002025     0.000011037195    -0.000131444744
       7        0.000033494442     0.000021274683    -0.000025537021
       8       -0.000007379928    -0.000012894691    -0.000022172009
       9        0.000014577365     0.000017357741     0.000018848970

  **** Optimization is complete! (in 7 steps) ****
    Final optimized geometry and variables:
    Molecular point group: c1

    Geometry (in Angstrom), charge = 0, multiplicity = 1:

    H            1.247268656127    -1.472951596946    -0.022044736090
    C            0.375596704502    -0.816442810293    -0.050789017934
    N            0.688944384538     0.474971705357     0.132372932040
    O           -0.724949071926    -1.232549723191    -0.231869920205
    C           -0.312615411269     1.517968887740     0.145325442324
    H            1.635601782324     0.706961453356     0.300288760966
    H           -0.927234174473     1.461513946748    -0.741393593800
    H            0.184690338953     2.476831597287     0.167158939782
    H           -0.957200811866     1.436729082803     1.011069633265

  Mulliken Charges: (a.u.)
   Center  Symbol    Alpha    Beta     Spin     Total
       1     H     0.46443  0.46443  0.00000  0.07115
       2     C     2.87954  2.87954  0.00000  0.24093
       3     N     3.60570  3.60570  0.00000 -0.21140
       4     O     4.21441  4.21441  0.00000 -0.42881
       5     C     3.07509  3.07509  0.00000 -0.15019
       6     H     0.40995  0.40995  0.00000  0.18010
       7     H     0.44508  0.44508  0.00000  0.10983
       8     H     0.45458  0.45458  0.00000  0.09083
       9     H     0.45122  0.45122  0.00000  0.09756

   Total alpha = 16.00000, Total beta = 16.00000, Total charge = -0.00000
