  ==> Input File <==

--------------------------------------------------------------------------
set {
	reference rhf
	basis 6-31G*
}

set_num_threads( 4 )
memory 2 gb

molecule MOL {
0 1

H	 5.268524	 0.192471	 1.070992
C	 4.673736	 -0.214914	 0.259335
C	 3.185378	 -0.203514	 0.605509
H	 4.871837	 0.380453	 -0.627026
H	 5.025590	 -1.224632	 0.065769
C	 2.317601	 -0.778379	 -0.516234
H	 2.874655	 0.814325	 0.817774
H	 3.023650	 -0.778480	 1.515976
C	 3.109240	 -1.189267	 -1.757905
H	 1.769273	 -1.638093	 -0.147626
H	 1.580356	 -0.035162	 -0.811428
C	 3.969396	 -2.430344	 -1.570546
H	 2.423563	 -1.407981	 -2.575085
H	 3.733515	 -0.370744	 -2.109296
C	 5.068032	 -2.683501	 -2.588202
O	 3.781645	 -3.191592	 -0.669627
C	 4.548678	 -2.900519	 -4.017306
H	 5.615969	 -3.555706	 -2.252437
H	 5.750937	 -1.836022	 -2.577994
C	 5.671078	 -3.249206	 -4.996716
H	 3.813059	 -3.702058	 -4.013538
H	 4.035506	 -2.008731	 -4.367791
C	 5.166765	 -3.467607	 -6.422505
H	 6.182185	 -4.144811	 -4.652153
H	 6.411921	 -2.452632	 -4.992511
H	 4.447692	 -4.280600	 -6.463760
H	 4.680479	 -2.576097	 -6.808316
H	 5.983785	 -3.714637	 -7.092828

	symmetry c1
}
set optking {
	frozen_dihedral = ("
		10 6 3 2
	")
}

ee = optimize('scf')
oeprop('DIPOLE', 'QUADRUPOLE', 'MULLIKEN_CHARGES')
f=open( 'psi4out.xyz', 'w' )
f.write( "28  " )
f.write( str(ee) + "\n" )
f.write( MOL.save_string_xyz() )
f.close()
--------------------------------------------------------------------------

    Molecular point group: c1
  Charge       = 0
  Multiplicity = 1
  Basis Set: 6-31G*
  Basis Set:
  @DF-RHF Final Energy:  -426.15263713367131
    Total Energy =                       -426.1526371336717602
    Molecular point group: c1
  Basis Set: 6-31G*
  Basis Set:
  Basis Set: 6-31G*
  Basis Set:
  @DF-RHF Final Energy:  -426.15739378431510
    Total Energy =                       -426.1573937843153317
  Basis Set: 6-31G*
  Basis Set:
  Basis Set: 6-31G*
  Basis Set:
  @DF-RHF Final Energy:  -426.15861245291364
    Total Energy =                       -426.1586124529140989
  Basis Set: 6-31G*
  Basis Set:
  Basis Set: 6-31G*
  Basis Set:
  @DF-RHF Final Energy:  -426.15805066947735
    Total Energy =                       -426.1580506694775750
  Basis Set: 6-31G*
  Basis Set:
  @DF-RHF Final Energy:  -426.15915873441327
    Total Energy =                       -426.1591587344133814
  @DF-RHF Final Energy:  -426.15927531026909
    Total Energy =                       -426.1592753102688675
  Basis Set: 6-31G*
  Basis Set:
  @DF-RHF Final Energy:  -426.15910800726408
    Total Energy =                       -426.1591080072635123
  Basis Set: 6-31G*
  Basis Set:
  Basis Set: 6-31G*
  Basis Set:
  @DF-RHF Final Energy:  -426.15925911843988
    Total Energy =                       -426.1592591184397634
  Basis Set: 6-31G*
  Basis Set:
  Basis Set: 6-31G*
  Basis Set:
  @DF-RHF Final Energy:  -426.15931091237792
    Total Energy =                       -426.1593109123780323
  Basis Set: 6-31G*
  Basis Set:
  Charge       = 0
  Multiplicity = 1
  Basis Set: 6-31G*
  Basis Set:

    Orbital Energies (a.u.)
    -----------------------

    Doubly Occupied:

       1A    -20.547142     2A    -11.321426     3A    -11.232257
       4A    -11.229346     5A    -11.228507     6A    -11.225936
       7A    -11.216866     8A    -11.216212     9A    -11.214508
      10A    -11.208267    11A     -1.392514    12A     -1.094671
      13A     -1.073750    14A     -1.020506    15A     -0.988854
      16A     -0.912919    17A     -0.881359    18A     -0.808760
      19A     -0.790494    20A     -0.719101    21A     -0.668310
      22A     -0.651453    23A     -0.635808    24A     -0.622259
      25A     -0.607566    26A     -0.594534    27A     -0.578045
      28A     -0.551633    29A     -0.547340    30A     -0.533719
      31A     -0.530829    32A     -0.508285    33A     -0.505851
      34A     -0.484513    35A     -0.477771    36A     -0.473394
      37A     -0.469273    38A     -0.456311    39A     -0.453709
      40A     -0.391821

  @DF-RHF Final Energy:  -426.15931124738165

   => Energetics <=

    Nuclear Repulsion Energy =            541.8410577472774321
    One-Electron Energy =               -1651.8690947610216426
    Two-Electron Energy =                 683.8687257663625587
    DFT Exchange-Correlation Energy =       0.0000000000000000
    Empirical Dispersion Energy =           0.0000000000000000
    PCM Polarization Energy =               0.0000000000000000
    EFP Energy =                            0.0000000000000000
    Total Energy =                       -426.1593112473817655
    Molecular point group: c1
  Basis Set: 6-31G*
  Basis Set:

  -Total Gradient:
     Atom            X                  Y                   Z
    ------   -----------------  -----------------  -----------------
       1       -0.000000837614     0.000004998239    -0.000001207718
       2        0.000047807865    -0.000366740886     0.000146675826
       3        0.000011583022     0.000486960145    -0.000270500081
       4        0.000001131908    -0.000014446569     0.000003067986
       5        0.000026239079    -0.000022306468    -0.000012589864
       6       -0.000534356977     0.000230246845     0.000281333354
       7       -0.000024426819    -0.000000485911     0.000001157755
       8       -0.000003773811    -0.000001072597     0.000005259907
       9        0.000030673613     0.000023853452    -0.000037726496
      10        0.000442951874    -0.000301053451    -0.000106158910
      11        0.000009786310    -0.000009874810    -0.000003355206
      12        0.000039447082    -0.000015824795    -0.000007788547
      13        0.000001221069    -0.000020494302    -0.000010575121
      14        0.000006006861    -0.000015401046     0.000000682785
      15       -0.000029730321    -0.000005331521    -0.000000662526
      16       -0.000028153796    -0.000011937489    -0.000005655859
      17        0.000008729153     0.000008370455     0.000005697464
      18       -0.000004094751     0.000002745645     0.000008476627
      19        0.000000378903     0.000008042824    -0.000000109199
      20        0.000003960677     0.000022981080     0.000000170388
      21       -0.000006840107     0.000002461084    -0.000005553888
      22        0.000002221876     0.000008160477     0.000009873988
      23       -0.000002475940    -0.000021524197     0.000002719603
      24        0.000006004214     0.000007567990     0.000004742708
      25       -0.000001656544     0.000005541837    -0.000006291942
      26       -0.000007000991     0.000001385768    -0.000004252491
      27        0.000006836008     0.000000418394     0.000002770095
      28       -0.000001631841    -0.000007240190    -0.000000200643

  **** Optimization is complete! (in 10 steps) ****
    Final optimized geometry and variables:
    Molecular point group: c1

    Geometry (in Angstrom), charge = 0, multiplicity = 1:

    H            0.921702058758     2.449583521394     3.589270692284
    C            0.511125265055     1.986911823067     2.697088682719
    C           -1.009745085952     1.869177109478     2.830664289024
    H            0.802385550500     2.606079432959     1.853785073796
    H            0.984668879613     1.017756725605     2.590428282949
    C           -1.792757587231     1.242903142581     1.642094174828
    H           -1.405814378528     2.862886973252     3.019387090657
    H           -1.221627467997     1.291965958901     3.724359034330
    C           -0.993280938000     0.840035732833     0.399642627064
    H           -2.316148712112     0.360501737826     1.986777718654
    H           -2.555005150945     1.945680692105     1.320379846924
    C           -0.165203164969    -0.424784718726     0.565662441604
    H           -1.692608791678     0.638366283868    -0.410673546787
    H           -0.359574293225     1.644734448325     0.040092232454
    C            0.917659532025    -0.695518481730    -0.464153680676
    O           -0.368507910538    -1.192094713550     1.458248652058
    C            0.378641618853    -0.891429141751    -1.889098609241
    H            1.448959719534    -1.582329362922    -0.140119471733
    H            1.619490060532     0.136247426913    -0.455416775329
    C            1.482795711949    -1.258445269941    -2.882427798905
    H           -0.374528373226    -1.676449130657    -1.882699886500
    H           -0.118110852458     0.013894824667    -2.228381897165
    C            0.958365020167    -1.460298005059    -4.303398581320
    H            1.979297037043    -2.165773658330    -2.547333101582
    H            2.239723631005    -0.477119224604    -2.883114084746
    H            0.221694207502    -2.257615642077    -4.339831980102
    H            0.487021891515    -0.557078185619    -4.680407610774
    H            1.762554586454    -1.721948526344    -4.983654167433

  Mulliken Charges: (a.u.)
   Center  Symbol    Alpha    Beta     Spin     Total
       1     H     0.41733  0.41733  0.00000  0.16534
       2     C     3.24994  3.24994  0.00000 -0.49987
       3     C     3.15247  3.15247  0.00000 -0.30495
       4     H     0.42576  0.42576  0.00000  0.14848
       5     H     0.41333  0.41333  0.00000  0.17334
       6     C     3.15559  3.15559  0.00000 -0.31118
       7     H     0.42216  0.42216  0.00000  0.15569
       8     H     0.41394  0.41394  0.00000  0.17211
       9     C     3.21453  3.21453  0.00000 -0.42906
      10     H     0.40313  0.40313  0.00000  0.19375
      11     H     0.41967  0.41967  0.00000  0.16065
      12     C     2.72892  2.72892  0.00000  0.54216
      13     H     0.40301  0.40301  0.00000  0.19398
      14     H     0.41102  0.41102  0.00000  0.17797
      15     C     3.20206  3.20206  0.00000 -0.40411
      16     O     4.26864  4.26864  0.00000 -0.53729
      17     C     3.16390  3.16390  0.00000 -0.32779
      18     H     0.39991  0.39991  0.00000  0.20018
      19     H     0.41263  0.41263  0.00000  0.17474
      20     C     3.15177  3.15177  0.00000 -0.30355
      21     H     0.41377  0.41377  0.00000  0.17246
      22     H     0.41866  0.41866  0.00000  0.16268
      23     C     3.24032  3.24032  0.00000 -0.48065
      24     H     0.41840  0.41840  0.00000  0.16320
      25     H     0.42141  0.42141  0.00000  0.15718
      26     H     0.41962  0.41962  0.00000  0.16077
      27     H     0.42122  0.42122  0.00000  0.15755
      28     H     0.41690  0.41690  0.00000  0.16620

   Total alpha = 40.00000, Total beta = 40.00000, Total charge =  0.00000
