  ==> Input File <==

--------------------------------------------------------------------------
set {
	reference rhf
	basis 6-31G*
}

set_num_threads( 4 )
memory 2 gb

molecule MOL {
0 1

H	 -1.402156	 -0.404012	 -0.563397
N	 -0.626943	 -0.667432	 -0.000092
C	 -0.727299	 -1.882669	 0.775695
C	 0.469286	 0.129090	 0.000148
H	 -1.550916	 -1.827195	 1.479671
H	 0.192636	 -2.010132	 1.322688
H	 -0.876658	 -2.743469	 0.132464
C	 1.788933	 -0.616240	 -0.000037
O	 0.411098	 1.327768	 -0.000049
H	 1.872803	 -1.245775	 -0.880381
H	 2.595421	 0.101576	 0.003713
H	 1.870096	 -1.252171	 0.875943

	symmetry c1
}
set optking {
	frozen_dihedral = ("
		3 2 4 9
	")
}

ee = optimize('scf')
oeprop('DIPOLE', 'QUADRUPOLE', 'MULLIKEN_CHARGES')
f=open( 'psi4out.xyz', 'w' )
f.write( "12  " )
f.write( str(ee) + "\n" )
f.write( MOL.save_string_xyz() )
f.close()
--------------------------------------------------------------------------

    Molecular point group: c1
  Charge       = 0
  Multiplicity = 1
  Basis Set: 6-31G*
  Basis Set:
  @DF-RHF Final Energy:  -246.98319875344501
    Total Energy =                       -246.9831987534448103
    Molecular point group: c1
  Basis Set: 6-31G*
  Basis Set:
  Basis Set: 6-31G*
  Basis Set:
  @DF-RHF Final Energy:  -246.98923471208201
    Total Energy =                       -246.9892347120820659
  Basis Set: 6-31G*
  Basis Set:
  Basis Set: 6-31G*
  Basis Set:
  @DF-RHF Final Energy:  -246.99489188462294
    Total Energy =                       -246.9948918846230868
  Basis Set: 6-31G*
  Basis Set:
  Basis Set: 6-31G*
  Basis Set:
  @DF-RHF Final Energy:  -246.99555372599301
    Total Energy =                       -246.9955537259932044
  Basis Set: 6-31G*
  Basis Set:
  @DF-RHF Final Energy:  -246.99724266001996
    Total Energy =                       -246.9972426600199356
  @DF-RHF Final Energy:  -246.99804671522278
    Total Energy =                       -246.9980467152228130
  @DF-RHF Final Energy:  -246.99893867431604
    Total Energy =                       -246.9989386743159798
  @DF-RHF Final Energy:  -246.99914808916387
    Total Energy =                       -246.9991480891640663
  Basis Set: 6-31G*
  Basis Set:
  @DF-RHF Final Energy:  -246.99923901068854
    Total Energy =                       -246.9992390106886546
  Basis Set: 6-31G*
  Basis Set:
  Basis Set: 6-31G*
  Basis Set:
  @DF-RHF Final Energy:  -246.99927998244650
    Total Energy =                       -246.9992799824465806
  Basis Set: 6-31G*
  Basis Set:
  Basis Set: 6-31G*
  Basis Set:
  @DF-RHF Final Energy:  -246.99928629441240
    Total Energy =                       -246.9992862944124568
  Basis Set: 6-31G*
  Basis Set:
  Charge       = 0
  Multiplicity = 1
  Basis Set: 6-31G*
  Basis Set:

    Orbital Energies (a.u.)
    -----------------------

    Doubly Occupied:

       1A    -20.527238     2A    -15.576568     3A    -11.346148
       4A    -11.269561     5A    -11.230579     6A     -1.393177
       7A     -1.227724     8A     -1.006926     9A     -0.951700
      10A     -0.775788    11A     -0.674866    12A     -0.666217
      13A     -0.637156    14A     -0.592964    15A     -0.577242
      16A     -0.563027    17A     -0.552608    18A     -0.511491
      19A     -0.421721    20A     -0.390713

  @DF-RHF Final Energy:  -246.99928652502524

   => Energetics <=

    Nuclear Repulsion Energy =            181.3064417196501381
    One-Electron Energy =                -694.8246266413516423
    Two-Electron Energy =                 266.5188983966762635
    DFT Exchange-Correlation Energy =       0.0000000000000000
    Empirical Dispersion Energy =           0.0000000000000000
    PCM Polarization Energy =               0.0000000000000000
    EFP Energy =                            0.0000000000000000
    Total Energy =                       -246.9992865250252407
    Molecular point group: c1
  Basis Set: 6-31G*
  Basis Set:

  -Total Gradient:
     Atom            X                  Y                   Z
    ------   -----------------  -----------------  -----------------
       1        0.000001407172     0.000000218176     0.000015190171
       2        0.003380993155    -0.003670487878    -0.002123391476
       3       -0.002406967696     0.002501602018     0.002871763582
       4       -0.000037818819     0.000709500483    -0.006038210724
       5        0.000000025973    -0.000006804367     0.000009579551
       6       -0.000004470728    -0.000002584456    -0.000004979701
       7        0.000003580976    -0.000000693413    -0.000003218128
       8        0.000012445775    -0.000004597291    -0.000014271907
       9       -0.000941880465     0.000471432552     0.005271713326
      10        0.000002047637     0.000006129754     0.000003962738
      11       -0.000006237317    -0.000003826841     0.000000835138
      12       -0.000003125663     0.000000111259     0.000011027431

  **** Optimization is complete! (in 12 steps) ****
    Final optimized geometry and variables:
    Molecular point group: c1

    Geometry (in Angstrom), charge = 0, multiplicity = 1:

    H           -1.682963397356     0.096714261725    -0.416678118630
    N           -0.830887761717    -0.409172155980    -0.286884576986
    C           -0.973848835761    -1.561085006070     0.585894965137
    C            0.215394289343     0.476213857574    -0.175325749259
    H           -1.080516827592    -1.290219212713     1.633775952646
    H           -0.124859023912    -2.223899080897     0.485297108493
    H           -1.854530824290    -2.111388434460     0.283462543504
    C            1.577477705502    -0.115402873948     0.112217713335
    O            0.050174445188     1.655053529008    -0.302366864140
    H            1.771042458755    -0.985446115974    -0.504157698517
    H            2.324108214383     0.642232042381    -0.074522738860
    H            1.644091695964    -0.418255594205     1.152944902506

  Mulliken Charges: (a.u.)
   Center  Symbol    Alpha    Beta     Spin     Total
       1     H     0.31237  0.31237  0.00000  0.37527
       2     N     3.87241  3.87241  0.00000 -0.74482
       3     C     3.15163  3.15163  0.00000 -0.30327
       4     C     2.64486  2.64486  0.00000  0.71027
       5     H     0.41655  0.41655  0.00000  0.16690
       6     H     0.40900  0.40900  0.00000  0.18200
       7     H     0.40604  0.40604  0.00000  0.18792
       8     C     3.29645  3.29645  0.00000 -0.59290
       9     O     4.28831  4.28831  0.00000 -0.57663
      10     H     0.40489  0.40489  0.00000  0.19022
      11     H     0.39186  0.39186  0.00000  0.21627
      12     H     0.40562  0.40562  0.00000  0.18877

   Total alpha = 20.00000, Total beta = 20.00000, Total charge =  0.00000
