                              Psi4 1.0.54 Driver

  ==> Input File <==

--------------------------------------------------------------------------
set {
	reference rhf
	basis cc-pvtz
}

set_num_threads( 4 )
memory 2 gb

molecule MOL {
0 1

H	 -3.436473	 1.252944	 -1.023892
O	 -3.458596	 0.315260	 -0.960865
C	 -3.176635	 -0.080824	 0.355601
C	 -1.763371	 0.265266	 0.799691
H	 -3.321825	 -1.153438	 0.379502
H	 -3.895468	 0.357385	 1.043382
C	 -0.673390	 -0.426948	 -0.013392
H	 -1.631049	 1.344913	 0.747560
H	 -1.664587	 -0.001624	 1.849167
C	 0.737842	 -0.043159	 0.423759
H	 -0.806103	 -0.190518	 -1.063345
H	 -0.797221	 -1.503753	 0.074146
C	 1.824000	 -0.743224	 -0.390623
H	 0.850588	 1.033777	 0.343840
H	 0.868587	 -0.286314	 1.476203
C	 1.692275	 -0.588553	 -1.906728
H	 1.834838	 -1.801211	 -0.138838
H	 2.791098	 -0.351225	 -0.087839
C	 0.466510	 -1.267124	 -2.513510
H	 2.582690	 -1.000242	 -2.371970
H	 1.680682	 0.468510	 -2.159520
H	 0.448051	 -2.325138	 -2.271970
H	 0.472131	 -1.176189	 -3.593760
H	 -0.458050	 -0.830282	 -2.155790

	symmetry c1
}
set optking {
	frozen_dihedral = ("
		17 13 10 7
	")
}

ee,wfn = optimize('scf', return_wfn=True)
oeprop( wfn, 'DIPOLE', 'QUADRUPOLE', 'MULLIKEN_CHARGES')
f=open( 'psi4out.xyz', 'w' )
f.write( "24  " )
f.write( str(ee) + "\n" )
f.write( MOL.save_string_xyz() )
f.close()
--------------------------------------------------------------------------

    Molecular point group: c1
  Charge       = 0
  Multiplicity = 1
  Basis Set: CC-PVTZ
  Basis Set:
  @DF-RHF Final Energy:  -349.35138511197317
    Total Energy =                       -349.3513851119737410
    Molecular point group: c1
  Basis Set: CC-PVTZ
  Basis Set:
  Basis Set: CC-PVTZ
  Basis Set:
  @DF-RHF Final Energy:  -349.36913263648057
    Total Energy =                       -349.3691326364804581
  Basis Set: CC-PVTZ
  Basis Set:
  Basis Set: CC-PVTZ
  Basis Set:
  @DF-RHF Final Energy:  -349.37322855325567
    Total Energy =                       -349.3732285532558990
  Basis Set: CC-PVTZ
  Basis Set:
  Basis Set: CC-PVTZ
  Basis Set:
  @DF-RHF Final Energy:  -349.37441212085150
    Total Energy =                       -349.3744121208512752
  Basis Set: CC-PVTZ
  Basis Set:
  @DF-RHF Final Energy:  -349.37479950372347
    Total Energy =                       -349.3747995037234659
  @DF-RHF Final Energy:  -349.37534524747082
    Total Energy =                       -349.3753452474711025
  @DF-RHF Final Energy:  -349.37546102065414
    Total Energy =                       -349.3754610206535745
  Basis Set: CC-PVTZ
  Basis Set:
  @DF-RHF Final Energy:  -349.37547550355777
    Total Energy =                       -349.3754755035573680
  Basis Set: CC-PVTZ
  Basis Set:
  Basis Set: CC-PVTZ
  Basis Set:
  @DF-RHF Final Energy:  -349.37548667840861
    Total Energy =                       -349.3754866784083219
  Basis Set: CC-PVTZ
  Basis Set:
  Basis Set: CC-PVTZ
  Basis Set:
  @DF-RHF Final Energy:  -349.37548795326705
    Total Energy =                       -349.3754879532671112
  Basis Set: CC-PVTZ
  Basis Set:
  Charge       = 0
  Multiplicity = 1
  Basis Set: CC-PVTZ
  Basis Set:

    Orbital Energies (a.u.)
    -----------------------

    Doubly Occupied:

       1A    -20.546794     2A    -11.265780     3A    -11.215253
       4A    -11.211299     5A    -11.211118     6A    -11.209764
       7A    -11.208654     8A    -11.201958     9A     -1.364539
      10A     -1.088519    11A     -1.046119    12A     -0.985834
      13A     -0.919353    14A     -0.848130    15A     -0.807106
      16A     -0.770797    17A     -0.683159    18A     -0.653290
      19A     -0.621829    20A     -0.615574    21A     -0.601685
      22A     -0.588289    23A     -0.555420    24A     -0.543009
      25A     -0.522452    26A     -0.503578    27A     -0.499481
      28A     -0.476799    29A     -0.471743    30A     -0.457646
      31A     -0.453638    32A     -0.442805    33A     -0.421591

  @DF-RHF Final Energy:  -349.37548865187557

   => Energetics <=

    Nuclear Repulsion Energy =            394.0035797606243477
    One-Electron Energy =               -1254.7321153072834932
    Two-Electron Energy =                 511.3530468947836880
    DFT Exchange-Correlation Energy =       0.0000000000000000
    Empirical Dispersion Energy =           0.0000000000000000
    PCM Polarization Energy =               0.0000000000000000
    EFP Energy =                            0.0000000000000000
    Total Energy =                       -349.3754886518754574
    Molecular point group: c1
  Basis Set: CC-PVTZ
  Basis Set:

  -Total Gradient:
     Atom            X                  Y                   Z
    ------   -----------------  -----------------  -----------------
       1       -0.000001830469    -0.000010833457    -0.000001267590
       2       -0.000006088836     0.000023800297     0.000004533718
       3       -0.000000147816    -0.000019989078     0.000011660129
       4       -0.000004145497    -0.000006777176     0.000005666728
       5        0.000005017363     0.000010867288     0.000003207578
       6        0.000001212861    -0.000004733105    -0.000010748109
       7       -0.000039428946     0.001295126960    -0.001183723509
       8       -0.000000759910    -0.000020301014    -0.000008588242
       9       -0.000001019246     0.000011818278    -0.000005424315
      10        0.000440967692    -0.001747222553     0.002069100634
      11       -0.000002007110    -0.000002803412     0.000018080064
      12       -0.000002445698     0.000020403896     0.000006633111
      13       -0.001953693137    -0.000011156368    -0.002492474224
      14       -0.000010032749    -0.000011074259    -0.000006953848
      15        0.000005922698     0.000005121994     0.000009618616
      16        0.000000021124     0.000036634870    -0.000036167505
      17        0.001562129221     0.000461781392     0.001609617565
      18       -0.000005258534    -0.000003728821     0.000000084812
      19        0.000005800130    -0.000031069439     0.000013522404
      20        0.000010320317     0.000003780591     0.000000409260
      21        0.000008371131     0.000030918182     0.000000911257
      22       -0.000009357602    -0.000027860998    -0.000016168687
      23        0.000000873570     0.000003340973     0.000018963979
      24       -0.000004420558    -0.000006045038    -0.000010493825

  **** Optimization is complete! (in 11 steps) ****
    Final optimized geometry and variables:
    Molecular point group: c1

    Geometry (in Angstrom), charge = 0, multiplicity = 1:

    H           -2.944195593046     1.753689389400    -0.141988350613
    O           -2.991511841599     0.815228817722    -0.115114754305
    C           -2.598804567824     0.354226572323     1.150974602788
    C           -1.136905199886     0.632610409708     1.466627894943
    H           -2.782025075714    -0.712800309738     1.146977601538
    H           -3.230583931283     0.786984994297     1.922519623805
    C           -0.159021364122    -0.060370597882     0.521302012497
    H           -0.969144773698     1.708397024050     1.443954706471
    H           -0.946105532353     0.317935369435     2.489702753927
    C            1.296269592521     0.278542626837     0.834891544290
    H           -0.398153317912     0.220614503725    -0.495916241098
    H           -0.307588743280    -1.135701900249     0.588445154564
    C            2.362844524981    -0.439978488373     0.000839028825
    H            1.431999577634     1.351415949521     0.714444003832
    H            1.491843452646     0.068833669463     1.883281887039
    C            2.257723772901    -0.297436970383    -1.525677251409
    H            2.391444296631    -1.492136782669     0.273822520800
    H            3.322096157603    -0.039667887798     0.314916480451
    C            1.464730984351    -1.398879295341    -2.227584278443
    H            3.260660228067    -0.295739430460    -1.940019077351
    H            1.834201520644     0.672678494613    -1.771416167727
    H            1.914988252193    -2.369124054964    -2.045057014935
    H            1.453625199487    -1.239199508576    -3.300108150504
    H            0.437222442404    -1.445792655470    -1.892462019169

  Mulliken Charges: (a.u.)
   Center  Symbol    Alpha    Beta     Spin     Total
       1     H     0.39528  0.39528  0.00000  0.20944
       2     O     4.20314  4.20314  0.00000 -0.40627
       3     C     2.97848  2.97848  0.00000  0.04303
       4     C     3.10289  3.10289  0.00000 -0.20578
       5     H     0.45856  0.45856  0.00000  0.08289
       6     H     0.45964  0.45964  0.00000  0.08072
       7     C     3.09577  3.09577  0.00000 -0.19155
       8     H     0.45899  0.45899  0.00000  0.08202
       9     H     0.45247  0.45247  0.00000  0.09505
      10     C     3.09481  3.09481  0.00000 -0.18963
      11     H     0.44305  0.44305  0.00000  0.11391
      12     H     0.45298  0.45298  0.00000  0.09404
      13     C     3.09866  3.09866  0.00000 -0.19733
      14     H     0.45439  0.45439  0.00000  0.09121
      15     H     0.45014  0.45014  0.00000  0.09971
      16     C     3.09927  3.09927  0.00000 -0.19854
      17     H     0.45459  0.45459  0.00000  0.09083
      18     H     0.44580  0.44580  0.00000  0.10840
      19     C     3.14855  3.14855  0.00000 -0.29710
      20     H     0.44587  0.44587  0.00000  0.10826
      21     H     0.45252  0.45252  0.00000  0.09496
      22     H     0.45552  0.45552  0.00000  0.08895
      23     H     0.44867  0.44867  0.00000  0.10266
      24     H     0.44995  0.44995  0.00000  0.10010

   Total alpha = 33.00000, Total beta = 33.00000, Total charge =  0.00000

*** Psi4 exiting successfully. Buy a developer a beer!
