  ==> Input File <==

--------------------------------------------------------------------------
set {
	reference rhf
	basis cc-pvtz
}

set_num_threads( 4 )
memory 2 gb

molecule MOL {
0 1

H	 3.275308	 0.173574	 -0.055714
N	 2.433987	 -0.362316	 -0.080024
C	 1.263552	 0.494993	 0.021953
H	 2.472226	 -1.005443	 0.683036
C	 -0.016533	 -0.325589	 -0.026925
H	 1.280915	 1.180773	 -0.818522
H	 1.263064	 1.106893	 0.925038
C	 -1.280353	 0.525521	 0.047747
H	 -0.016686	 -0.912532	 -0.939714
H	 -0.014099	 -1.037598	 0.796369
C	 -2.560681	 -0.301323	 -0.007747
H	 -1.279957	 1.241025	 -0.770189
H	 -1.270445	 1.110526	 0.963468
H	 -2.617064	 -0.872870	 -0.928010
H	 -3.439525	 0.331102	 0.043462
H	 -2.609427	 -1.002736	 0.818585

	symmetry c1
}
set optking {
	frozen_dihedral = ("
		1 2 3 6
	")
}

ee = optimize('scf')
oeprop('DIPOLE', 'QUADRUPOLE', 'MULLIKEN_CHARGES')
f=open( 'psi4out.xyz', 'w' )
f.write( "16  " )
f.write( str(ee) + "\n" )
f.write( MOL.save_string_xyz() )
f.close()
--------------------------------------------------------------------------

    Molecular point group: c1
  Charge       = 0
  Multiplicity = 1
  Basis Set: CC-PVTZ
  Basis Set:
  @DF-RHF Final Energy:  -212.40030708672938
    Total Energy =                       -212.4003070867294127
    Molecular point group: c1
  Basis Set: CC-PVTZ
  Basis Set:
  Basis Set: CC-PVTZ
  Basis Set:
  @DF-RHF Final Energy:  -212.40030995082839
    Total Energy =                       -212.4003099508283299
  Basis Set: CC-PVTZ
  Basis Set:
  Charge       = 0
  Multiplicity = 1
  Basis Set: CC-PVTZ
  Basis Set:

    Orbital Energies (a.u.)
    -----------------------

    Doubly Occupied:

       1A    -15.526616     2A    -11.238038     3A    -11.213162
       4A    -11.208346     5A    -11.206037     6A     -1.178455
       7A     -1.061048     8A     -0.959890     9A     -0.844275
      10A     -0.792749    11A     -0.664279    12A     -0.639783
      13A     -0.606247    14A     -0.576473    15A     -0.566405
      16A     -0.525087    17A     -0.501505    18A     -0.470365
      19A     -0.465494    20A     -0.462555    21A     -0.384418

  @DF-RHF Final Energy:  -212.40031026269719

   => Energetics <=

    Nuclear Repulsion Energy =            186.5926819558759462
    One-Electron Energy =                -655.8035305963915107
    Two-Electron Energy =                 256.8105383778183750
    DFT Exchange-Correlation Energy =       0.0000000000000000
    Empirical Dispersion Energy =           0.0000000000000000
    PCM Polarization Energy =               0.0000000000000000
    EFP Energy =                            0.0000000000000000
    Total Energy =                       -212.4003102626971895
    Molecular point group: c1
  Basis Set: CC-PVTZ
  Basis Set:

  -Total Gradient:
     Atom            X                  Y                   Z
    ------   -----------------  -----------------  -----------------
       1       -0.000001336350    -0.000060280313     0.000397182801
       2       -0.000070536358     0.000013915450    -0.000511560203
       3        0.000288546652     0.000237258354     0.000296802793
       4        0.000004436596     0.000020867558    -0.000011791459
       5        0.000017051345     0.000031359912    -0.000001322864
       6       -0.000206931291    -0.000214904681    -0.000209548969
       7       -0.000012666614    -0.000012219691     0.000019109554
       8       -0.000007797254    -0.000013308857     0.000026111842
       9        0.000002077259     0.000000443974    -0.000004318701
      10       -0.000012634443    -0.000000743828     0.000008832242
      11       -0.000002493505     0.000006692005    -0.000013956832
      12        0.000001076721    -0.000011393585     0.000004437397
      13        0.000001188952     0.000000946714     0.000002850043
      14       -0.000000537858    -0.000005419708     0.000000571867
      15       -0.000002330099     0.000000203507    -0.000005466632
      16        0.000002886245     0.000006583187     0.000002067122

  **** Optimization is complete! (in 3 steps) ****
    Final optimized geometry and variables:
    Molecular point group: c1

    Geometry (in Angstrom), charge = 0, multiplicity = 1:

    H            3.275248051798     0.173311275567    -0.059076109087
    N            2.433673756487    -0.362524106309    -0.082462621036
    C            1.264107872695     0.495499215677     0.024455381847
    H            2.474386409142    -1.002676404248     0.683182402423
    C           -0.016106078802    -0.324866380503    -0.027085379327
    H            1.279017641402     1.183568729830    -0.814268760269
    H            1.264237570325     1.103072546484     0.930404591405
    C           -1.279916511207     0.526351167411     0.045875356810
    H           -0.015138105930    -0.910950085323    -0.940468879509
    H           -0.015647319502    -1.037285600531     0.795913852736
    C           -2.560112469105    -0.300758821624    -0.007407463767
    H           -1.279660132004     1.239828766300    -0.773733288605
    H           -1.269716006709     1.113263783469     0.960338632786
    H           -2.616762687483    -0.874193066022    -0.926482951089
    H           -3.438987904418     0.331730461266     0.042808421881
    H           -2.608469475935    -1.000418842871     0.820430945215

  Mulliken Charges: (a.u.)
   Center  Symbol    Alpha    Beta     Spin     Total
       1     H     0.43058  0.43058  0.00000  0.13884
       2     N     3.68873  3.68873  0.00000 -0.37746
       3     C     3.02516  3.02516  0.00000 -0.05032
       4     H     0.43117  0.43117  0.00000  0.13767
       5     C     3.08092  3.08092  0.00000 -0.16184
       6     H     0.45734  0.45734  0.00000  0.08531
       7     H     0.46904  0.46904  0.00000  0.06193
       8     C     3.08839  3.08839  0.00000 -0.17678
       9     H     0.44922  0.44922  0.00000  0.10156
      10     H     0.46088  0.46088  0.00000  0.07824
      11     C     3.14924  3.14924  0.00000 -0.29848
      12     H     0.45455  0.45455  0.00000  0.09090
      13     H     0.45639  0.45639  0.00000  0.08722
      14     H     0.45415  0.45415  0.00000  0.09169
      15     H     0.44876  0.44876  0.00000  0.10248
      16     H     0.45549  0.45549  0.00000  0.08903

   Total alpha = 21.00000, Total beta = 21.00000, Total charge =  0.00000
