  ==> Input File <==

--------------------------------------------------------------------------
set {
	reference rhf
	basis 6-31G*
}

set_num_threads( 1 )
memory 2 gb

molecule MOL {
0 1

O	 2.115840	 -0.145596	 -1.892776
C	 2.057554	 -0.587068	 -0.790612
C	 1.245376	 -0.013843	 0.345420
O	 2.718989	 -1.672140	 -0.407529
C	 0.455112	 1.231400	 -0.050772
H	 0.599840	 -0.807315	 0.707190
H	 1.934222	 0.202173	 1.158146
C	 -0.998893	 1.219485	 0.433193
H	 0.482531	 1.345121	 -1.130325
H	 0.957290	 2.103070	 0.354729
C	 -1.883438	 0.145884	 -0.207175
H	 -1.431207	 2.195402	 0.224832
H	 -1.019646	 1.105716	 1.516076
C	 -3.347647	 0.245583	 0.225435
H	 -1.822183	 0.231698	 -1.291012
H	 -1.510341	 -0.844814	 0.042401
C	 -4.239992	 -0.825570	 -0.404234
H	 -3.732888	 1.230466	 -0.033079
H	 -3.408585	 0.170602	 1.310038
C	 -5.701275	 -0.716658	 0.029921
H	 -4.179496	 -0.752714	 -1.488058
H	 -3.859041	 -1.810759	 -0.143352
H	 -6.308102	 -1.488908	 -0.432678
H	 -6.122175	 0.245478	 -0.248167
H	 -5.799072	 -0.820114	 1.106957
C	 3.524934	 -2.310506	 -1.381093
H	 2.923095	 -2.640989	 -2.215404
H	 3.972731	 -3.157191	 -0.884495
H	 4.291260	 -1.638659	 -1.740125

	symmetry c1
}
set optking {
	frozen_dihedral = ("
		21 17 14 11,
		17 14 11 15,
		15 11 8 5,
		11 8 5 9,
		2 4 26 27,
		1 2 4 26,
		6 3 2 1
	")
}

ee = energy('scf')
oeprop('DIPOLE', 'QUADRUPOLE', 'MULLIKEN_CHARGES')
f=open( 'psi4out.xyz', 'w' )
f.write( "29  " )
f.write( str(ee) + "\n" )
f.write( MOL.save_string_xyz() )
f.close()
--------------------------------------------------------------------------

    Molecular point group: c1

    Geometry (in Angstrom), charge = 0, multiplicity = 1:

       Center              X                  Y                   Z               Mass
    ------------   -----------------  -----------------  -----------------  -----------------
           O          2.454460989643     0.193249954433    -1.503202988307    15.994914619560
           C          2.396174989643    -0.248222045567    -0.401038988307    12.000000000000
           C          1.583996989643     0.325002954433     0.734993011693    12.000000000000
           O          3.057609989643    -1.333294045567    -0.017955988307    15.994914619560
           C          0.793732989643     1.570245954433     0.338801011693    12.000000000000
           H          0.938460989643    -0.468469045567     1.096763011693     1.007825032070
           H          2.272842989643     0.541018954433     1.547719011693     1.007825032070
           C         -0.660272010357     1.558330954433     0.822766011693    12.000000000000
           H          0.821151989643     1.683966954433    -0.740751988307     1.007825032070
           H          1.295910989643     2.441915954433     0.744302011693     1.007825032070
           C         -1.544817010357     0.484729954433     0.182398011693    12.000000000000
           H         -1.092586010357     2.534247954433     0.614405011693     1.007825032070
           H         -0.681025010357     1.444561954433     1.905649011693     1.007825032070
           C         -3.009026010357     0.584428954433     0.615008011693    12.000000000000
           H         -1.483562010357     0.570543954433    -0.901438988307     1.007825032070
           H         -1.171720010357    -0.505968045567     0.431974011693     1.007825032070
           C         -3.901371010357    -0.486724045567    -0.014660988307    12.000000000000
           H         -3.394267010357     1.569311954433     0.356494011693     1.007825032070
           H         -3.069964010357     0.509447954433     1.699611011693     1.007825032070
           C         -5.362654010357    -0.377812045567     0.419494011693    12.000000000000
           H         -3.840875010357    -0.413868045567    -1.098484988307     1.007825032070
           H         -3.520420010357    -1.471913045567     0.246221011693     1.007825032070
           H         -5.969481010357    -1.150062045567    -0.043104988307     1.007825032070
           H         -5.783554010357     0.584323954433     0.141406011693     1.007825032070
           H         -5.460451010357    -0.481268045567     1.496530011693     1.007825032070
           C          3.863554989643    -1.971660045567    -0.991519988307    12.000000000000
           H          3.261715989643    -2.302143045567    -1.825830988307     1.007825032070
           H          4.311351989643    -2.818345045567    -0.494921988307     1.007825032070
           H          4.629880989643    -1.299813045567    -1.350551988307     1.007825032070

  Charge       = 0
  Multiplicity = 1
  Basis Set: 6-31G*
  Basis Set:

    Orbital Energies (a.u.)
    -----------------------

    Doubly Occupied:

       1A    -20.603795     2A    -20.545874     3A    -11.372359
       4A    -11.280843     5A    -11.233343     6A    -11.216152
       7A    -11.215016     8A    -11.214552     9A    -11.214088
      10A    -11.213132    11A    -11.208010    12A     -1.469541
      13A     -1.363335    14A     -1.096803    15A     -1.065636
      16A     -1.018265    17A     -0.976799    18A     -0.927569
      19A     -0.861068    20A     -0.798619    21A     -0.788579
      22A     -0.762981    23A     -0.703096    24A     -0.681918
      25A     -0.673154    26A     -0.648806    27A     -0.626738
      28A     -0.607211    29A     -0.593525    30A     -0.579755
      31A     -0.565628    32A     -0.546381    33A     -0.536833
      34A     -0.529096    35A     -0.516322    36A     -0.504303
      37A     -0.493269    38A     -0.476760    39A     -0.467927
      40A     -0.459868    41A     -0.458598    42A     -0.456930
      43A     -0.440314    44A     -0.435567

  @DF-RHF Final Energy:  -501.03961272229128

   => Energetics <=

    Nuclear Repulsion Energy =            619.4468063384755396
    One-Electron Energy =               -1910.0763028090491389
    Two-Electron Energy =                 789.5898837482830004
    DFT Exchange-Correlation Energy =       0.0000000000000000
    Empirical Dispersion Energy =           0.0000000000000000
    PCM Polarization Energy =               0.0000000000000000
    EFP Energy =                            0.0000000000000000
    Total Energy =                       -501.0396127222904852

  Mulliken Charges: (a.u.)
   Center  Symbol    Alpha    Beta     Spin     Total
       1     O     4.28462  4.28462  0.00000 -0.56925
       2     C     2.61096  2.61096  0.00000  0.77809
       3     C     3.21065  3.21065  0.00000 -0.42129
       4     O     4.30596  4.30596  0.00000 -0.61191
       5     C     3.16331  3.16331  0.00000 -0.32663
       6     H     0.39775  0.39775  0.00000  0.20450
       7     H     0.39768  0.39768  0.00000  0.20465
       8     C     3.15748  3.15748  0.00000 -0.31496
       9     H     0.39421  0.39421  0.00000  0.21158
      10     H     0.41700  0.41700  0.00000  0.16601
      11     C     3.15452  3.15452  0.00000 -0.30903
      12     H     0.41968  0.41968  0.00000  0.16064
      13     H     0.42497  0.42497  0.00000  0.15006
      14     C     3.15019  3.15019  0.00000 -0.30039
      15     H     0.41939  0.41939  0.00000  0.16123
      16     H     0.42528  0.42528  0.00000  0.14944
      17     C     3.15150  3.15150  0.00000 -0.30300
      18     H     0.42331  0.42331  0.00000  0.15338
      19     H     0.42453  0.42453  0.00000  0.15094
      20     C     3.23932  3.23932  0.00000 -0.47865
      21     H     0.42217  0.42217  0.00000  0.15566
      22     H     0.42358  0.42358  0.00000  0.15285
      23     H     0.41932  0.41932  0.00000  0.16135
      24     H     0.42162  0.42162  0.00000  0.15676
      25     H     0.42209  0.42209  0.00000  0.15582
      26     C     3.09221  3.09221  0.00000 -0.18442
      27     H     0.40909  0.40909  0.00000  0.18182
      28     H     0.40852  0.40852  0.00000  0.18295
      29     H     0.40909  0.40909  0.00000  0.18182

   Total alpha = 44.00000, Total beta = 44.00000, Total charge = -0.00000
