  ==> Input File <==

--------------------------------------------------------------------------
set {
	reference rhf
	basis 6-31G*
}

set_num_threads( 4 )
memory 2 gb

molecule MOL {
0 1

O	 0.667997	 0.358151	 0.960900
C	 0.028650	 0.075053	 -0.000277
C	 -1.233602	 -0.752807	 0.000328
O	 0.351448	 0.459782	 -1.228155
C	 -2.501530	 0.091881	 0.000126
H	 -1.193807	 -1.406641	 -0.865785
H	 -1.193516	 -1.405779	 0.867015
H	 -2.545121	 0.729328	 -0.874513
H	 -3.377167	 -0.548497	 0.000561
H	 -2.544818	 0.730135	 0.874258
C	 1.521245	 1.245537	 -1.368704
H	 1.429508	 2.166291	 -0.810844
H	 1.611322	 1.454491	 -2.423260
H	 2.387676	 0.702930	 -1.018925

	symmetry c1
}
set optking {
	frozen_dihedral = ("
		4 2 3 6
	")
}

ee = optimize('scf')
oeprop('DIPOLE', 'QUADRUPOLE', 'MULLIKEN_CHARGES')
f=open( 'psi4out.xyz', 'w' )
f.write( "14  " )
f.write( str(ee) + "\n" )
f.write( MOL.save_string_xyz() )
f.close()
--------------------------------------------------------------------------

    Molecular point group: c1
  Charge       = 0
  Multiplicity = 1
  Basis Set: 6-31G*
  Basis Set:
  @DF-RHF Final Energy:  -305.86991527001783
    Total Energy =                       -305.8699152700178274
    Molecular point group: c1
  Basis Set: 6-31G*
  Basis Set:
  Basis Set: 6-31G*
  Basis Set:
  @DF-RHF Final Energy:  -305.87009477865837
    Total Energy =                       -305.8700947786583129
  Basis Set: 6-31G*
  Basis Set:
  Basis Set: 6-31G*
  Basis Set:
  @DF-RHF Final Energy:  -305.86978472010833
    Total Energy =                       -305.8697847201084414
  Basis Set: 6-31G*
  Basis Set:
  Basis Set: 6-31G*
  Basis Set:
  @DF-RHF Final Energy:  -305.87053016705295
    Total Energy =                       -305.8705301670529479
  Basis Set: 6-31G*
  Basis Set:
  Basis Set: 6-31G*
  Basis Set:
  @DF-RHF Final Energy:  -305.87053284316869
    Total Energy =                       -305.8705328431685757
  Basis Set: 6-31G*
  Basis Set:
  Charge       = 0
  Multiplicity = 1
  Basis Set: 6-31G*
  Basis Set:

    Orbital Energies (a.u.)
    -----------------------

    Doubly Occupied:

       1A    -20.605324     2A    -20.544224     3A    -11.371694
       4A    -11.281338     5A    -11.237273     6A    -11.227556
       7A     -1.469612     8A     -1.362261     9A     -1.067637
      10A     -0.976980    11A     -0.883832    12A     -0.774072
      13A     -0.697031    14A     -0.678996    15A     -0.673413
      16A     -0.617584    17A     -0.594913    18A     -0.568468
      19A     -0.543099    20A     -0.518383    21A     -0.510123
      22A     -0.506063    23A     -0.455571    24A     -0.434387

  @DF-RHF Final Energy:  -305.87053300595585

   => Energetics <=

    Nuclear Repulsion Energy =            248.1418538275295020
    One-Electron Energy =                -908.8251054412495478
    Two-Electron Energy =                 354.8127186077641682
    DFT Exchange-Correlation Energy =       0.0000000000000000
    Empirical Dispersion Energy =           0.0000000000000000
    PCM Polarization Energy =               0.0000000000000000
    EFP Energy =                            0.0000000000000000
    Total Energy =                       -305.8705330059558491
    Molecular point group: c1
  Basis Set: 6-31G*
  Basis Set:

  -Total Gradient:
     Atom            X                  Y                   Z
    ------   -----------------  -----------------  -----------------
       1       -0.000016630847    -0.000007114056    -0.000029131109
       2       -0.000334646616     0.000505797183     0.000067799101
       3        0.000330012698    -0.000511703001     0.000283079479
       4        0.000202538888    -0.000278918524    -0.000069677161
       5        0.000011104021     0.000003323510    -0.000001003804
       6       -0.000216837177     0.000324058690    -0.000231912012
       7       -0.000002620562    -0.000002384002    -0.000008687576
       8        0.000000573938     0.000003560335    -0.000004991781
       9        0.000005195031    -0.000007950391     0.000001978409
      10        0.000002544983    -0.000001464543     0.000000044460
      11        0.000028740866    -0.000055625781    -0.000008040935
      12       -0.000013292037     0.000002306144     0.000006145020
      13       -0.000004146773     0.000008781200     0.000000350012
      14        0.000007463586     0.000017333234    -0.000005952103

  **** Optimization is complete! (in 6 steps) ****
    Final optimized geometry and variables:
    Molecular point group: c1

    Geometry (in Angstrom), charge = 0, multiplicity = 1:

    O            0.843401488526     0.067784051046     1.243093612709
    C            0.208169496683    -0.216995054017     0.279141877594
    C           -1.054656868839    -1.041586619593     0.290960875728
    O            0.521628879111     0.189606499469    -0.944408341770
    C           -2.297488647721    -0.141989467835     0.269493596047
    H           -1.058656797050    -1.694324323782    -0.573737338392
    H           -1.041030764093    -1.645422898106     1.188508162096
    H           -2.325381330827     0.461804589131    -0.630376732884
    H           -3.196695180636    -0.746988741563     0.298179500453
    H           -2.310205096828     0.520307267269     1.128242509762
    C            1.667419801693     1.011753138810    -1.074008939152
    H            1.547296183474     1.922797576768    -0.505578027764
    H            1.752983312886     1.235403405354    -2.125939940180
    H            2.548769092307     0.491037651053    -0.728539585597

  Mulliken Charges: (a.u.)
   Center  Symbol    Alpha    Beta     Spin     Total
       1     O     4.28443  4.28443  0.00000 -0.56885
       2     C     2.61715  2.61715  0.00000  0.76570
       3     C     3.19397  3.19397  0.00000 -0.38794
       4     O     4.30268  4.30268  0.00000 -0.60536
       5     C     3.25158  3.25158  0.00000 -0.50317
       6     H     0.40339  0.40339  0.00000  0.19322
       7     H     0.39896  0.39896  0.00000  0.20208
       8     H     0.40911  0.40911  0.00000  0.18177
       9     H     0.41135  0.41135  0.00000  0.17731
      10     H     0.40877  0.40877  0.00000  0.18247
      11     C     3.09257  3.09257  0.00000 -0.18515
      12     H     0.40903  0.40903  0.00000  0.18193
      13     H     0.40867  0.40867  0.00000  0.18266
      14     H     0.40834  0.40834  0.00000  0.18333

   Total alpha = 24.00000, Total beta = 24.00000, Total charge =  0.00000
