  ==> Input File <==

--------------------------------------------------------------------------
set {
	reference rhf
	basis 6-31G*
}

set_num_threads( 4 )
memory 2 gb

molecule MOL {
0 1

H	 -2.748115	 0.412582	 0.512626
O	 -2.035884	 -0.060112	 0.102722
C	 -0.955155	 0.788182	 -0.092531
C	 0.353668	 0.040312	 -0.004810
H	 -0.985057	 1.290372	 -1.054184
H	 -0.974469	 1.533190	 0.688632
F	 0.394464	 -0.937475	 -0.903053
F	 1.368604	 0.853376	 -0.249821
F	 0.546173	 -0.502608	 1.179981

	symmetry c1
}
set optking {
	frozen_dihedral = ("
		1 2 3 5
	")
}

ee = optimize('scf')
oeprop('DIPOLE', 'QUADRUPOLE', 'MULLIKEN_CHARGES')
f=open( 'psi4out.xyz', 'w' )
f.write( "9  " )
f.write( str(ee) + "\n" )
f.write( MOL.save_string_xyz() )
f.close()
--------------------------------------------------------------------------

    Molecular point group: c1
  Charge       = 0
  Multiplicity = 1
  Basis Set: 6-31G*
  Basis Set:
  @DF-RHF Final Energy:  -450.65779446417389
    Total Energy =                       -450.6577944641738895
    Molecular point group: c1
  Basis Set: 6-31G*
  Basis Set:
  Basis Set: 6-31G*
  Basis Set:
  @DF-RHF Final Energy:  -450.65919644377379
    Total Energy =                       -450.6591964437739080
  Basis Set: 6-31G*
  Basis Set:
  Basis Set: 6-31G*
  Basis Set:
  @DF-RHF Final Energy:  -450.65945389004321
    Total Energy =                       -450.6594538900432099
  Basis Set: 6-31G*
  Basis Set:
  Basis Set: 6-31G*
  Basis Set:
  @DF-RHF Final Energy:  -450.65946477474824
    Total Energy =                       -450.6594647747485283
  Basis Set: 6-31G*
  Basis Set:
  Charge       = 0
  Multiplicity = 1
  Basis Set: 6-31G*
  Basis Set:

    Orbital Energies (a.u.)
    -----------------------

    Doubly Occupied:

       1A    -26.336486     2A    -26.332854     3A    -26.332449
       4A    -20.589045     5A    -11.495987     6A    -11.309887
       7A     -1.733176     8A     -1.631014     9A     -1.629427
      10A     -1.401064    11A     -1.047772    12A     -0.916614
      13A     -0.824837    14A     -0.822859    15A     -0.782983
      16A     -0.734856    17A     -0.706010    18A     -0.695534
      19A     -0.665136    20A     -0.649196    21A     -0.636050
      22A     -0.634186    23A     -0.594494    24A     -0.529423
      25A     -0.478697

  @DF-RHF Final Energy:  -450.65946671512449

   => Energetics <=

    Nuclear Repulsion Energy =            277.0539602415063882
    One-Electron Energy =               -1176.4067866358134324
    Two-Electron Energy =                 448.6933596791828336
    DFT Exchange-Correlation Energy =       0.0000000000000000
    Empirical Dispersion Energy =           0.0000000000000000
    PCM Polarization Energy =               0.0000000000000000
    EFP Energy =                            0.0000000000000000
    Total Energy =                       -450.6594667151242106
    Molecular point group: c1
  Basis Set: 6-31G*
  Basis Set:

  -Total Gradient:
     Atom            X                  Y                   Z
    ------   -----------------  -----------------  -----------------
       1        0.000111332850    -0.000056009940     0.000272610753
       2       -0.000030346048     0.000102416978    -0.000425653350
       3       -0.000221835018     0.000184231707     0.000277391290
       4        0.000071150896     0.000093258605     0.000130878824
       5        0.000111104325    -0.000238898147    -0.000100016815
       6       -0.000023799633    -0.000011542705    -0.000002875916
       7        0.000025025677    -0.000016018807    -0.000028323032
       8       -0.000010619841    -0.000073957696    -0.000041072910
       9       -0.000032013203     0.000016520005    -0.000082938840

  **** Optimization is complete! (in 5 steps) ****
    Final optimized geometry and variables:
    Molecular point group: c1

    Geometry (in Angstrom), charge = 0, multiplicity = 1:

    H           -2.732695683710     0.359769538148     0.485190445401
    O           -1.994258943367    -0.086985529465     0.098531295763
    C           -0.941793600040     0.800378543180    -0.098930159649
    C            0.349312684869     0.024065059794    -0.024204833950
    H           -0.987161641641     1.271836862348    -1.074585990405
    H           -0.896921359437     1.571841514344     0.661413220322
    F            0.401263772888    -0.937330445100    -0.924591355961
    F            1.369446604318     0.842234414759    -0.247762376171
    F            0.527413160956    -0.522351234987     1.163355030830

  Mulliken Charges: (a.u.)
   Center  Symbol    Alpha    Beta     Spin     Total
       1     H     0.27118  0.27118  0.00000  0.45763
       2     O     4.36345  4.36345  0.00000 -0.72689
       3     C     3.05346  3.05346  0.00000 -0.10693
       4     C     2.45338  2.45338  0.00000  1.09324
       5     H     0.40822  0.40822  0.00000  0.18355
       6     H     0.41048  0.41048  0.00000  0.17904
       7     F     4.67658  4.67658  0.00000 -0.35317
       8     F     4.68545  4.68545  0.00000 -0.37090
       9     F     4.67779  4.67779  0.00000 -0.35557

   Total alpha = 25.00000, Total beta = 25.00000, Total charge = -0.00000
