                              Psi4 1.0.54 Driver

  ==> Input File <==

--------------------------------------------------------------------------
set {
	reference rhf
	basis cc-pvtz
}

set_num_threads( 4 )
memory 2 gb

molecule MOL {
0 1

H	 -3.436473	 1.252944	 -1.023892
O	 -3.458596	 0.315260	 -0.960865
C	 -3.176635	 -0.080824	 0.355601
C	 -1.763371	 0.265266	 0.799691
H	 -3.321825	 -1.153438	 0.379502
H	 -3.895468	 0.357385	 1.043382
C	 -0.673390	 -0.426948	 -0.013392
H	 -1.631049	 1.344913	 0.747560
H	 -1.664587	 -0.001624	 1.849167
C	 0.737842	 -0.043159	 0.423759
H	 -0.806103	 -0.190518	 -1.063345
H	 -0.797221	 -1.503753	 0.074146
C	 1.824000	 -0.743224	 -0.390623
H	 0.850588	 1.033777	 0.343840
H	 0.868587	 -0.286314	 1.476203
C	 2.498335	 0.130472	 -1.449762
H	 1.401479	 -1.623540	 -0.869548
H	 2.587479	 -1.107929	 0.291073
C	 1.586088	 0.564293	 -2.594641
H	 3.337656	 -0.419565	 -1.864222
H	 2.920455	 1.010981	 -0.972333
H	 1.144421	 -0.295979	 -3.087529
H	 2.142848	 1.120772	 -3.340022
H	 0.778310	 1.199492	 -2.251680

	symmetry c1
}
set optking {
	frozen_dihedral = ("
		17 13 10 7
	")
}

ee,wfn = optimize('scf', return_wfn=True)
oeprop( wfn, 'DIPOLE', 'QUADRUPOLE', 'MULLIKEN_CHARGES')
f=open( 'psi4out.xyz', 'w' )
f.write( "24  " )
f.write( str(ee) + "\n" )
f.write( MOL.save_string_xyz() )
f.close()
--------------------------------------------------------------------------

    Molecular point group: c1
  Charge       = 0
  Multiplicity = 1
  Basis Set: CC-PVTZ
  Basis Set:
  @DF-RHF Final Energy:  -349.37536431998330
    Total Energy =                       -349.3753643199835324
    Molecular point group: c1
  Basis Set: CC-PVTZ
  Basis Set:
  Basis Set: CC-PVTZ
  Basis Set:
  @DF-RHF Final Energy:  -349.37568081443186
    Total Energy =                       -349.3756808144315755
  Basis Set: CC-PVTZ
  Basis Set:
  Basis Set: CC-PVTZ
  Basis Set:
  @DF-RHF Final Energy:  -349.37578014563513
    Total Energy =                       -349.3757801456349625
  Basis Set: CC-PVTZ
  Basis Set:
  Basis Set: CC-PVTZ
  Basis Set:
  @DF-RHF Final Energy:  -349.37578312448312
    Total Energy =                       -349.3757831244832346
  Basis Set: CC-PVTZ
  Basis Set:
  Charge       = 0
  Multiplicity = 1
  Basis Set: CC-PVTZ
  Basis Set:

    Orbital Energies (a.u.)
    -----------------------

    Doubly Occupied:

       1A    -20.546444     2A    -11.265544     3A    -11.214908
       4A    -11.211834     5A    -11.210545     6A    -11.209394
       7A    -11.208607     8A    -11.204484     9A     -1.364190
      10A     -1.088480    11A     -1.047977    12A     -0.984721
      13A     -0.918649    14A     -0.850563    15A     -0.802029
      16A     -0.775164    17A     -0.682218    18A     -0.654123
      19A     -0.625607    20A     -0.616673    21A     -0.600468
      22A     -0.583113    23A     -0.563743    24A     -0.533593
      25A     -0.525349    26A     -0.510148    27A     -0.493444
      28A     -0.479041    29A     -0.468571    30A     -0.460831
      31A     -0.454456    32A     -0.444165    33A     -0.420958

  @DF-RHF Final Energy:  -349.37578352785124

   => Energetics <=

    Nuclear Repulsion Energy =            392.8394083647540356
    One-Electron Energy =               -1252.3903138305031462
    Two-Electron Energy =                 510.1751219378976430
    DFT Exchange-Correlation Energy =       0.0000000000000000
    Empirical Dispersion Energy =           0.0000000000000000
    PCM Polarization Energy =               0.0000000000000000
    EFP Energy =                            0.0000000000000000
    Total Energy =                       -349.3757835278514676
    Molecular point group: c1
  Basis Set: CC-PVTZ
  Basis Set:

  -Total Gradient:
     Atom            X                  Y                   Z
    ------   -----------------  -----------------  -----------------
       1       -0.000000780525     0.000002328522    -0.000006004608
       2       -0.000001162686     0.000012552606     0.000005316930
       3       -0.000005659656    -0.000014973063    -0.000006484236
       4        0.000023733242     0.000023229918    -0.000008462927
       5        0.000001756206    -0.000000478856     0.000009401769
       6       -0.000003167324     0.000000534316    -0.000002899391
       7        0.000049558951    -0.000508967749     0.000394428170
       8       -0.000000015042     0.000005331697     0.000004748600
       9       -0.000000579251    -0.000003830959    -0.000008428672
      10       -0.000011031198     0.000734568147    -0.000756512538
      11       -0.000014177551    -0.000002368129     0.000005803093
      12        0.000008045616    -0.000008718034    -0.000000771961
      13        0.000168679555    -0.000750411220     0.000976350325
      14        0.000027600289    -0.000000604351    -0.000043282924
      15        0.000023021180    -0.000035571430     0.000031931723
      16        0.000000839114     0.000034587083     0.000010364633
      17       -0.000235914620     0.000445742904    -0.000648932888
      18       -0.000050812094     0.000041182894     0.000046323035
      19        0.000008291165     0.000027092581     0.000010490341
      20        0.000002559968    -0.000004239715     0.000001274990
      21        0.000007586250     0.000006373784    -0.000021591084
      22        0.000000997362    -0.000009512259     0.000008744254
      23        0.000000586573     0.000005508540    -0.000006394366
      24        0.000000044474     0.000000642774     0.000004587729

  **** Optimization is complete! (in 5 steps) ****
    Final optimized geometry and variables:
    Molecular point group: c1

    Geometry (in Angstrom), charge = 0, multiplicity = 1:

    H           -3.100371888717     1.186247995572    -0.557602461624
    O           -3.117441381720     0.250753614990    -0.466774838997
    C           -2.825512306292    -0.105010879940     0.858989213474
    C           -1.410188148285     0.258053524028     1.282694840698
    H           -2.967307271735    -1.176847380321     0.915506004601
    H           -3.541225757697     0.351275417732     1.538212126593
    C           -0.324205112755    -0.452700133624     0.480642321756
    H           -1.282163117081     1.336374661380     1.199770647770
    H           -1.302380954204     0.021056804075     2.338502510520
    C            1.089284265180    -0.067657478489     0.916037683404
    H           -0.463258001958    -0.243047543719    -0.572663989268
    H           -0.447032177685    -1.527087577970     0.594535497120
    C            2.211000434865    -0.752636801748     0.111947892994
    H            1.205315623808     1.011448823820     0.857537593916
    H            1.199960965622    -0.318967770670     1.966660257804
    C            2.891315563233     0.129414528420    -0.938605463164
    H            1.816066529950    -1.639275425528    -0.376900478566
    H            2.977191346942    -1.101416725466     0.795770350088
    C            1.985133164445     0.602418588186    -2.071828381822
    H            3.721721249747    -0.425417543148    -1.365232264430
    H            3.327819976400     0.993960208546    -0.445224641346
    H            1.538802843424    -0.237780483779    -2.593345189150
    H            2.547755230481     1.179948112369    -2.796582348481
    H            1.180212689971     1.231148902018    -1.709807193049

  Mulliken Charges: (a.u.)
   Center  Symbol    Alpha    Beta     Spin     Total
       1     H     0.39528  0.39528  0.00000  0.20944
       2     O     4.20267  4.20267  0.00000 -0.40534
       3     C     2.97746  2.97746  0.00000  0.04508
       4     C     3.10401  3.10401  0.00000 -0.20802
       5     H     0.45906  0.45906  0.00000  0.08188
       6     H     0.46006  0.46006  0.00000  0.07987
       7     C     3.08980  3.08980  0.00000 -0.17960
       8     H     0.45885  0.45885  0.00000  0.08230
       9     H     0.45271  0.45271  0.00000  0.09459
      10     C     3.10728  3.10728  0.00000 -0.21455
      11     H     0.44292  0.44292  0.00000  0.11416
      12     H     0.45343  0.45343  0.00000  0.09314
      13     C     3.10070  3.10070  0.00000 -0.20140
      14     H     0.45244  0.45244  0.00000  0.09512
      15     H     0.44556  0.44556  0.00000  0.10888
      16     C     3.08523  3.08523  0.00000 -0.17045
      17     H     0.45394  0.45394  0.00000  0.09211
      18     H     0.44440  0.44440  0.00000  0.11119
      19     C     3.15819  3.15819  0.00000 -0.31639
      20     H     0.44973  0.44973  0.00000  0.10054
      21     H     0.45562  0.45562  0.00000  0.08876
      22     H     0.45170  0.45170  0.00000  0.09660
      23     H     0.44419  0.44419  0.00000  0.11162
      24     H     0.45477  0.45477  0.00000  0.09046

   Total alpha = 33.00000, Total beta = 33.00000, Total charge = -0.00000

*** Psi4 exiting successfully. Buy a developer a beer!
