                              Psi4 1.0.54 Driver

  ==> Input File <==

--------------------------------------------------------------------------
set {
	reference rhf
	basis cc-pvtz
}

set_num_threads( 4 )
memory 2 gb

molecule MOL {
0 1

H	 3.289346	 -0.454484	 0.039362
C	 2.232486	 -0.267601	 0.030022
C	 1.600641	 0.056383	 -1.161254
C	 1.510304	 -0.351106	 1.203477
H	 2.168670	 0.119354	 -2.069093
C	 0.245025	 0.296877	 -1.177608
H	 2.001709	 -0.601887	 2.123317
C	 0.148916	 -0.109303	 1.185462
H	 -0.261195	 0.548586	 -2.088125
C	 -0.486398	 0.214248	 0.000000
H	 -0.419267	 -0.172559	 2.095045
C	 -1.946525	 0.470130	 0.000000
O	 -2.779618	 -0.371226	 0.000000
H	 -2.227127	 1.528393	 0.000000

	symmetry c1
}
set optking {
	frozen_dihedral = ("
		8 10 12 14
	")
}

ee,wfn = optimize('scf', return_wfn=True)
oeprop( wfn, 'DIPOLE', 'QUADRUPOLE', 'MULLIKEN_CHARGES')
f=open( 'psi4out.xyz', 'w' )
f.write( "14  " )
f.write( str(ee) + "\n" )
f.write( MOL.save_string_xyz() )
f.close()
--------------------------------------------------------------------------

    Molecular point group: c1
  Charge       = 0
  Multiplicity = 1
  Basis Set: CC-PVTZ
  Basis Set:
  @DF-RHF Final Energy:  -343.53705328419454
    Total Energy =                       -343.5370532841945987
    Molecular point group: c1
  Basis Set: CC-PVTZ
  Basis Set:
  Basis Set: CC-PVTZ
  Basis Set:
  @DF-RHF Final Energy:  -343.53696659172982
    Total Energy =                       -343.5369665917299358
  Basis Set: CC-PVTZ
  Basis Set:
  Basis Set: CC-PVTZ
  Basis Set:
  @DF-RHF Final Energy:  -343.53696139716317
    Total Energy =                       -343.5369613971635090
  Basis Set: CC-PVTZ
  Basis Set:
  Basis Set: CC-PVTZ
  Basis Set:
  @DF-RHF Final Energy:  -343.53759697686962
    Total Energy =                       -343.5375969768699065
  Basis Set: CC-PVTZ
  Basis Set:
  Basis Set: CC-PVTZ
  Basis Set:
  @DF-RHF Final Energy:  -343.53760400520713
    Total Energy =                       -343.5376040052071289
  Basis Set: CC-PVTZ
  Basis Set:
  Charge       = 0
  Multiplicity = 1
  Basis Set: CC-PVTZ
  Basis Set:

    Orbital Energies (a.u.)
    -----------------------

    Doubly Occupied:

       1A    -20.563699     2A    -11.332795     3A    -11.251304
       4A    -11.245997     5A    -11.245183     6A    -11.243004
       7A    -11.242338     8A    -11.240809     9A     -1.417904
      10A     -1.174918    11A     -1.049337    12A     -1.033440
      13A     -0.890380    14A     -0.845100    15A     -0.798203
      16A     -0.725620    17A     -0.681402    18A     -0.657060
      19A     -0.645864    20A     -0.620784    21A     -0.604168
      22A     -0.540558    23A     -0.532337    24A     -0.518134
      25A     -0.506019    26A     -0.426233    27A     -0.352325
      28A     -0.351444

  @DF-RHF Final Energy:  -343.53760465077329

   => Energetics <=

    Nuclear Repulsion Energy =            323.0342206498021937
    One-Electron Energy =               -1105.6709353021999505
    Two-Electron Energy =                 439.0991100016241262
    DFT Exchange-Correlation Energy =       0.0000000000000000
    Empirical Dispersion Energy =           0.0000000000000000
    PCM Polarization Energy =               0.0000000000000000
    EFP Energy =                            0.0000000000000000
    Total Energy =                       -343.5376046507736874
    Molecular point group: c1
  Basis Set: CC-PVTZ
  Basis Set:

  -Total Gradient:
     Atom            X                  Y                   Z
    ------   -----------------  -----------------  -----------------
       1       -0.000003426562     0.000000132122    -0.000009717981
       2       -0.000003067612    -0.000017244868     0.000197069752
       3       -0.000163264703     0.000044576910    -0.000099319503
       4        0.000160785170    -0.000031895548    -0.000101481316
       5        0.000008090276    -0.000004294954     0.000003300264
       6        0.000140068870    -0.000013976555    -0.000075670720
       7       -0.000009267342     0.000002136972     0.000011634785
       8        0.000369034585     0.002664223485     0.000288441816
       9       -0.000002565107     0.000001312644     0.000004024918
      10       -0.000751493258    -0.003788927722     0.000622098410
      11        0.000013255916    -0.000004531818     0.000002984900
      12        0.000233877323     0.001090349631    -0.004068007404
      13       -0.000029798700    -0.000029172312    -0.000017861280
      14        0.000037771150     0.000087312013     0.003242503361

  **** Optimization is complete! (in 6 steps) ****
    Final optimized geometry and variables:
    Molecular point group: c1

    Geometry (in Angstrom), charge = 0, multiplicity = 1:

    H            3.301803793622    -0.445268710019     0.020029894481
    C            2.244707707627    -0.261549677238     0.009050393983
    C            1.608880806102     0.049761958603    -1.178483381841
    C            1.517562881755    -0.333441297937     1.181514040998
    H            2.170688947556     0.106552088063    -2.090876104598
    C            0.249358976995     0.292919424768    -1.192477499914
    H            2.008389372459    -0.571428765429     2.105523707310
    C            0.154906752568    -0.101919420397     1.168232854879
    H           -0.239862166255     0.542608093287    -2.115545787958
    C           -0.483281830788     0.200314528337    -0.021423095266
    H           -0.410556539916    -0.167630034192     2.078198220753
    C           -1.952281440491     0.499112746866    -0.025181572155
    O           -2.796309197448    -0.323617831322     0.047989313385
    H           -2.218074877777     1.561000575580    -0.059211562689

  Mulliken Charges: (a.u.)
   Center  Symbol    Alpha    Beta     Spin     Total
       1     H     0.42082  0.42082  0.00000  0.15835
       2     C     3.08426  3.08426  0.00000 -0.16851
       3     C     3.06346  3.06346  0.00000 -0.12692
       4     C     3.06297  3.06297  0.00000 -0.12593
       5     H     0.42086  0.42086  0.00000  0.15828
       6     C     3.09924  3.09924  0.00000 -0.19849
       7     H     0.42094  0.42094  0.00000  0.15812
       8     C     3.09941  3.09941  0.00000 -0.19881
       9     H     0.42387  0.42387  0.00000  0.15226
      10     C     2.93744  2.93744  0.00000  0.12512
      11     H     0.42043  0.42043  0.00000  0.15914
      12     C     2.93161  2.93161  0.00000  0.13679
      13     O     4.15616  4.15616  0.00000 -0.31231
      14     H     0.45854  0.45854  0.00000  0.08293

   Total alpha = 28.00000, Total beta = 28.00000, Total charge = -0.00000

*** Psi4 exiting successfully. Buy a developer a beer!
