  ==> Input File <==

--------------------------------------------------------------------------
set {
	reference rhf
	basis cc-pvtz
}

set_num_threads( 4 )
memory 2 gb

molecule MOL {
0 1

H	 -0.835512	 -1.195633	 -0.559676
O	 -1.432053	 -0.565244	 -0.200812
C	 -0.727158	 0.534527	 0.310686
C	 0.680222	 0.664433	 -0.252229
H	 -1.306802	 1.408001	 0.044211
H	 -0.690821	 0.490158	 1.397609
C	 1.605391	 -0.489360	 0.123098
H	 0.615089	 0.745647	 -1.332226
H	 1.101414	 1.597893	 0.110950
H	 1.247627	 -1.432485	 -0.275204
H	 2.601435	 -0.332816	 -0.273062
H	 1.691776	 -0.589902	 1.200774

	symmetry c1
}
set optking {
	frozen_dihedral = ("
		1 2 3 4
	")
}

ee = optimize('scf')
oeprop('DIPOLE', 'QUADRUPOLE', 'MULLIKEN_CHARGES')
f=open( 'psi4out.xyz', 'w' )
f.write( "12  " )
f.write( str(ee) + "\n" )
f.write( MOL.save_string_xyz() )
f.close()
--------------------------------------------------------------------------

    Molecular point group: c1
  Charge       = 0
  Multiplicity = 1
  Basis Set: CC-PVTZ
  Basis Set:
  @DF-RHF Final Energy:  -193.18818457026620
    Total Energy =                       -193.1881845702663441
    Molecular point group: c1
  Basis Set: CC-PVTZ
  Basis Set:
  Basis Set: CC-PVTZ
  Basis Set:
  @DF-RHF Final Energy:  -193.18836461611616
    Total Energy =                       -193.1883646161161323
  Basis Set: CC-PVTZ
  Basis Set:
  Basis Set: CC-PVTZ
  Basis Set:
  @DF-RHF Final Energy:  -193.18843129428376
    Total Energy =                       -193.1884312942838164
  Basis Set: CC-PVTZ
  Basis Set:
  Charge       = 0
  Multiplicity = 1
  Basis Set: CC-PVTZ
  Basis Set:

    Orbital Energies (a.u.)
    -----------------------

    Doubly Occupied:

       1A    -20.543333     2A    -11.265327     3A    -11.224291
       4A    -11.220079     5A     -1.362057     6A     -1.055945
       7A     -0.930654     8A     -0.819044     9A     -0.679167
      10A     -0.643615    11A     -0.623830    12A     -0.582111
      13A     -0.552234    14A     -0.511033    15A     -0.494684
      16A     -0.467440    17A     -0.434249

  @DF-RHF Final Energy:  -193.18843163906763

   => Energetics <=

    Nuclear Repulsion Energy =            133.2123527070617683
    One-Electron Energy =                -525.9833851477019380
    Two-Electron Energy =                 199.5826008015725392
    DFT Exchange-Correlation Energy =       0.0000000000000000
    Empirical Dispersion Energy =           0.0000000000000000
    PCM Polarization Energy =               0.0000000000000000
    EFP Energy =                            0.0000000000000000
    Total Energy =                       -193.1884316390676304
    Molecular point group: c1
  Basis Set: CC-PVTZ
  Basis Set:

  -Total Gradient:
     Atom            X                  Y                   Z
    ------   -----------------  -----------------  -----------------
       1       -0.000093305701     0.000691325832    -0.001308215339
       2        0.000247306410    -0.001013615214     0.001872213696
       3       -0.000462965619     0.000887180456    -0.001179370318
       4        0.000286792276    -0.000580520873     0.000594976363
       5        0.000002001351    -0.000019265551    -0.000023512688
       6        0.000009284142     0.000022633063     0.000019388170
       7       -0.000001439152     0.000036064284     0.000042184754
       8        0.000011382391    -0.000006464885    -0.000018811302
       9       -0.000021410154    -0.000027166963     0.000006503306
      10        0.000017852831     0.000021346940     0.000000235263
      11        0.000016129103     0.000006290650    -0.000000207150
      12       -0.000011627880    -0.000017807739    -0.000005384758

  **** Optimization is complete! (in 4 steps) ****
    Final optimized geometry and variables:
    Molecular point group: c1

    Geometry (in Angstrom), charge = 0, multiplicity = 1:

    H           -0.878902882956    -1.199140303275    -0.566370688570
    O           -1.455051053049    -0.558371534615    -0.195499200055
    C           -0.727845341548     0.526773310789     0.319903884134
    C            0.679041346755     0.653103382946    -0.243840965922
    H           -1.292585067215     1.421856795129     0.091241229993
    H           -0.676955316102     0.441949105754     1.403026401121
    C            1.614580950023    -0.489267510422     0.146266629821
    H            0.620608415142     0.732668377249    -1.325807960804
    H            1.095777339194     1.589499213792     0.113320936049
    H            1.272955800894    -1.449610919688    -0.226494619421
    H            2.606809425142    -0.328455882864    -0.257597072693
    H            1.701570439519    -0.569970164609     1.224156109719

  Mulliken Charges: (a.u.)
   Center  Symbol    Alpha    Beta     Spin     Total
       1     H     0.39170  0.39170  0.00000  0.21661
       2     O     4.20779  4.20779  0.00000 -0.41559
       3     C     2.95341  2.95341  0.00000  0.09318
       4     C     3.10287  3.10287  0.00000 -0.20573
       5     H     0.45982  0.45982  0.00000  0.08037
       6     H     0.47666  0.47666  0.00000  0.04669
       7     C     3.14475  3.14475  0.00000 -0.28949
       8     H     0.44948  0.44948  0.00000  0.10103
       9     H     0.45286  0.45286  0.00000  0.09428
      10     H     0.46309  0.46309  0.00000  0.07383
      11     H     0.44592  0.44592  0.00000  0.10817
      12     H     0.45167  0.45167  0.00000  0.09666

   Total alpha = 17.00000, Total beta = 17.00000, Total charge = -0.00000
