  ==> Input File <==

--------------------------------------------------------------------------
set {
	reference rhf
	basis 6-31G*
}

set_num_threads( 4 )
memory 2 gb

molecule MOL {
0 1

O	 0.074228	 1.262779	 -0.000085
C	 0.028650	 0.075053	 -0.000277
C	 -1.233602	 -0.752807	 0.000328
O	 1.109162	 -0.694619	 -0.000298
C	 -2.501530	 0.091881	 0.000126
H	 -1.193807	 -1.406641	 -0.865785
H	 -1.193516	 -1.405779	 0.867015
H	 -2.545121	 0.729328	 -0.874513
H	 -3.377167	 -0.548497	 0.000561
H	 -2.544818	 0.730135	 0.874258
C	 1.161667	 -1.728482	 -0.966713
H	 0.338690	 -2.415636	 -0.832769
H	 2.101084	 -2.234263	 -0.806889
H	 1.122554	 -1.317502	 -1.965231

	symmetry c1
}
set optking {
	frozen_dihedral = ("
		11 4 2 3
	")
}

ee = optimize('scf')
oeprop('DIPOLE', 'QUADRUPOLE', 'MULLIKEN_CHARGES')
f=open( 'psi4out.xyz', 'w' )
f.write( "14  " )
f.write( str(ee) + "\n" )
f.write( MOL.save_string_xyz() )
f.close()
--------------------------------------------------------------------------

    Molecular point group: c1
  Charge       = 0
  Multiplicity = 1
  Basis Set: 6-31G*
  Basis Set:
  @DF-RHF Final Energy:  -305.84608521999871
    Total Energy =                       -305.8460852199987130
    Molecular point group: c1
  Basis Set: 6-31G*
  Basis Set:
  Basis Set: 6-31G*
  Basis Set:
  @DF-RHF Final Energy:  -305.84813238360920
    Total Energy =                       -305.8481323836093679
  Basis Set: 6-31G*
  Basis Set:
  Basis Set: 6-31G*
  Basis Set:
  @DF-RHF Final Energy:  -305.85228012574373
    Total Energy =                       -305.8522801257436186
  Basis Set: 6-31G*
  Basis Set:
  Basis Set: 6-31G*
  Basis Set:
  @DF-RHF Final Energy:  -305.85303944954865
    Total Energy =                       -305.8530394495487030
  Basis Set: 6-31G*
  Basis Set:
  @DF-RHF Final Energy:  -305.85308548142109
    Total Energy =                       -305.8530854814208055
  @DF-RHF Final Energy:  -305.85317557100473
    Total Energy =                       -305.8531755710046127
  @DF-RHF Final Energy:  -305.85321705761760
    Total Energy =                       -305.8532170576174281
  Basis Set: 6-31G*
  Basis Set:
  @DF-RHF Final Energy:  -305.85321831385170
    Total Energy =                       -305.8532183138516416
  Basis Set: 6-31G*
  Basis Set:
  Basis Set: 6-31G*
  Basis Set:
  @DF-RHF Final Energy:  -305.85300115712039
    Total Energy =                       -305.8530011571206160
  Basis Set: 6-31G*
  Basis Set:
  Basis Set: 6-31G*
  Basis Set:
  @DF-RHF Final Energy:  -305.85321554347172
    Total Energy =                       -305.8532155434716628
  Basis Set: 6-31G*
  Basis Set:
  Charge       = 0
  Multiplicity = 1
  Basis Set: 6-31G*
  Basis Set:

    Orbital Energies (a.u.)
    -----------------------

    Doubly Occupied:

       1A    -20.594520     2A    -20.549991     3A    -11.374974
       4A    -11.296150     5A    -11.246719     6A    -11.220851
       7A     -1.461303     8A     -1.368356     9A     -1.062705
      10A     -0.982363    11A     -0.897661    12A     -0.767780
      13A     -0.702986    14A     -0.682054    15A     -0.673701
      16A     -0.628147    17A     -0.610135    18A     -0.560804
      19A     -0.547307    20A     -0.525182    21A     -0.512790
      22A     -0.492522    23A     -0.454785    24A     -0.435355

  @DF-RHF Final Energy:  -305.85321869630565

   => Energetics <=

    Nuclear Repulsion Energy =            247.0947012239412857
    One-Electron Energy =                -906.5975560122959678
    Two-Electron Energy =                 353.6496360920490929
    DFT Exchange-Correlation Energy =       0.0000000000000000
    Empirical Dispersion Energy =           0.0000000000000000
    PCM Polarization Energy =               0.0000000000000000
    EFP Energy =                            0.0000000000000000
    Total Energy =                       -305.8532186963055324
    Molecular point group: c1
  Basis Set: 6-31G*
  Basis Set:

  -Total Gradient:
     Atom            X                  Y                   Z
    ------   -----------------  -----------------  -----------------
       1        0.000005385377    -0.000013311785    -0.000005557428
       2        0.000855665819     0.000896747665    -0.005557646417
       3       -0.000080236576     0.000132338230     0.002953367488
       4       -0.002222702231    -0.003045270659     0.004782272432
       5        0.000004105773    -0.000003550661    -0.000001745403
       6       -0.000003548525     0.000000702584    -0.000000927724
       7       -0.000003869637    -0.000002815774     0.000001915394
       8        0.000000490495    -0.000000001914    -0.000001268840
       9        0.000001101493    -0.000000089236    -0.000000557387
      10        0.000000764022    -0.000000078452     0.000000877308
      11        0.001445917535     0.002029788531    -0.002173564370
      12       -0.000003624892    -0.000001173838     0.000002442349
      13        0.000000638411     0.000002203245    -0.000000066582
      14       -0.000000087068     0.000004512060     0.000000459181

  **** Optimization is complete! (in 11 steps) ****
    Final optimized geometry and variables:
    Molecular point group: c1

    Geometry (in Angstrom), charge = 0, multiplicity = 1:

    O            0.267803651553     1.527876165805     0.142228876679
    C            0.206198105678     0.348367527753     0.099621427458
    C           -1.096475725670    -0.426602123627     0.100104114324
    O            1.330790826838    -0.385847908146     0.160918211117
    C           -2.316254576829     0.471706756365     0.269434330471
    H           -1.173194834447    -0.992275449690    -0.824803421864
    H           -1.035344375226    -1.161777293727     0.897700605068
    H           -2.380490493687     1.194185343727    -0.534362221036
    H           -3.221788117736    -0.125536564495     0.268545168552
    H           -2.268188436946     1.020344116710     1.201784290896
    C            1.520736224395    -1.469483683789    -0.720367988607
    H            0.867296242101    -2.301052971570    -0.484954496933
    H            2.545818371593    -1.780875097457    -0.594526593626
    H            1.367521040181    -1.165944412433    -1.749455597419

  Mulliken Charges: (a.u.)
   Center  Symbol    Alpha    Beta     Spin     Total
       1     O     4.25653  4.25653  0.00000 -0.51307
       2     C     2.60957  2.60957  0.00000  0.78085
       3     C     3.22320  3.22320  0.00000 -0.44639
       4     O     4.30646  4.30646  0.00000 -0.61292
       5     C     3.23626  3.23626  0.00000 -0.47252
       6     H     0.40579  0.40579  0.00000  0.18843
       7     H     0.40038  0.40038  0.00000  0.19924
       8     H     0.40778  0.40778  0.00000  0.18444
       9     H     0.41848  0.41848  0.00000  0.16305
      10     H     0.40785  0.40785  0.00000  0.18430
      11     C     3.09455  3.09455  0.00000 -0.18910
      12     H     0.41846  0.41846  0.00000  0.16308
      13     H     0.39922  0.39922  0.00000  0.20156
      14     H     0.41547  0.41547  0.00000  0.16905

   Total alpha = 24.00000, Total beta = 24.00000, Total charge =  0.00000
