                              Psi4 1.0.54 Driver

  ==> Input File <==

--------------------------------------------------------------------------
set {
	reference rhf
	basis cc-pvtz
}

set_num_threads( 4 )
memory 2 gb

molecule MOL {
0 1

H	 -2.698799	 -0.000846	 0.036018
C	 -1.694291	 -0.000483	 0.434279
O	 -0.828718	 -0.000608	 -0.655022
H	 -1.576855	 0.881100	 1.056504
H	 -1.576401	 -0.881658	 1.057001
C	 0.557893	 -0.000203	 -0.420099
C	 1.032284	 1.266305	 0.283592
C	 1.032965	 -1.266214	 0.284011
H	 0.977963	 -0.000254	 -1.418177
H	 0.646349	 2.144262	 -0.219703
H	 2.115014	 1.312625	 0.266395
H	 0.720745	 1.299999	 1.321085
H	 0.647577	 -2.144549	 -0.219028
H	 2.115736	 -1.311923	 0.266940
H	 0.721352	 -1.299762	 1.321466

	symmetry c1
}
set optking {
	frozen_dihedral = ("
		6 3 2 1
	")
}

ee,wfn = optimize('scf', return_wfn=True)
oeprop( wfn, 'DIPOLE', 'QUADRUPOLE', 'MULLIKEN_CHARGES')
f=open( 'psi4out.xyz', 'w' )
f.write( "15  " )
f.write( str(ee) + "\n" )
f.write( MOL.save_string_xyz() )
f.close()
--------------------------------------------------------------------------

    Molecular point group: c1
  Charge       = 0
  Multiplicity = 1
  Basis Set: CC-PVTZ
  Basis Set:

    Orbital Energies (a.u.)
    -----------------------

    Doubly Occupied:

       1A    -20.541888     2A    -11.272614     3A    -11.258474
       4A    -11.208673     5A    -11.208656     6A     -1.373567
       7A     -1.051635     8A     -0.940214     9A     -0.931679
      10A     -0.781482    11A     -0.675583    12A     -0.642370
      13A     -0.635228    14A     -0.574015    15A     -0.565840
      16A     -0.552805    17A     -0.533734    18A     -0.497793
      19A     -0.497479    20A     -0.444830    21A     -0.409683

  @DF-RHF Final Energy:  -232.22617976044850

   => Energetics <=

    Nuclear Repulsion Energy =            199.0325846804063019
    One-Electron Energy =                -709.3210444916574033
    Two-Electron Energy =                 278.0622800508024284
    DFT Exchange-Correlation Energy =       0.0000000000000000
    Empirical Dispersion Energy =           0.0000000000000000
    PCM Polarization Energy =               0.0000000000000000
    EFP Energy =                            0.0000000000000000
    Total Energy =                       -232.2261797604486446
    Molecular point group: c1
  Basis Set: CC-PVTZ
  Basis Set:

  -Total Gradient:
     Atom            X                  Y                   Z
    ------   -----------------  -----------------  -----------------
       1        0.000040887623     0.000000776209    -0.000009460110
       2       -0.000019067421     0.000007085800     0.000113719775
       3        0.000005920793    -0.000002544929    -0.000062516066
       4       -0.000004605463    -0.000013355868    -0.000019558269
       5        0.000000110679     0.000010760952    -0.000022694435
       6        0.000155801551    -0.000005262205     0.000016609492
       7       -0.000055631323     0.000005781048     0.000005054400
       8       -0.000064427108    -0.000005356797     0.000009272589
       9       -0.000029566979    -0.000000245722    -0.000018833373
      10        0.000009643605    -0.000018436351     0.000011407275
      11       -0.000037661411    -0.000011760707    -0.000008100762
      12        0.000006700570     0.000007621202    -0.000005191923
      13        0.000010705477     0.000021828575     0.000015349938
      14       -0.000028839666     0.000010237308    -0.000006036771
      15        0.000010029072    -0.000007128515    -0.000019021759

  **** Optimization is complete! (in 1 steps) ****
    Final optimized geometry and variables:
    Molecular point group: c1

    Geometry (in Angstrom), charge = 0, multiplicity = 1:

    H           -2.698798927669    -0.000604633507     0.036017768234
    C           -1.694290927669    -0.000241633507     0.434278768234
    O           -0.828717927669    -0.000366633507    -0.655022231766
    H           -1.576854927669     0.881341366493     1.056503768234
    H           -1.576400927669    -0.881416633507     1.057000768234
    C            0.557893072331     0.000038366493    -0.420099231766
    C            1.032284072331     1.266546366493     0.283591768234
    C            1.032965072331    -1.265972633507     0.284010768234
    H            0.977963072331    -0.000012633507    -1.418177231766
    H            0.646349072331     2.144503366493    -0.219703231766
    H            2.115014072331     1.312866366493     0.266394768234
    H            0.720745072331     1.300240366493     1.321084768234
    H            0.647577072331    -2.144307633507    -0.219028231766
    H            2.115736072331    -1.311681633507     0.266939768234
    H            0.721352072331    -1.299520633507     1.321465768234

  Mulliken Charges: (a.u.)
   Center  Symbol    Alpha    Beta     Spin     Total
       1     H     0.44075  0.44075  0.00000  0.11849
       2     C     3.03890  3.03890  0.00000 -0.07781
       3     O     4.18305  4.18305  0.00000 -0.36609
       4     H     0.47039  0.47039  0.00000  0.05922
       5     H     0.47039  0.47039  0.00000  0.05922
       6     C     2.93319  2.93319  0.00000  0.13361
       7     C     3.15866  3.15866  0.00000 -0.31731
       8     C     3.15865  3.15865  0.00000 -0.31730
       9     H     0.44700  0.44700  0.00000  0.10599
      10     H     0.44386  0.44386  0.00000  0.11229
      11     H     0.44966  0.44966  0.00000  0.10067
      12     H     0.45599  0.45599  0.00000  0.08803
      13     H     0.44386  0.44386  0.00000  0.11229
      14     H     0.44967  0.44967  0.00000  0.10066
      15     H     0.45598  0.45598  0.00000  0.08803

   Total alpha = 21.00000, Total beta = 21.00000, Total charge = -0.00000

*** Psi4 exiting successfully. Buy a developer a beer!
