  ==> Input File <==

--------------------------------------------------------------------------
set {
	reference rhf
	basis 6-31G*
}

set_num_threads( 4 )
memory 2 gb

molecule MOL {
0 1

H	 -1.487101	 4.148576	 -0.606712
O	 -0.798186	 3.547221	 -0.850992
C	 -0.903722	 2.372924	 -0.087788
C	 0.213850	 1.433622	 -0.505509
H	 -0.823911	 2.598191	 0.974846
H	 -1.870213	 1.897098	 -0.248492
C	 0.198102	 0.111031	 0.262842
H	 1.162137	 1.942528	 -0.355520
H	 0.124195	 1.248727	 -1.572399
C	 1.331804	 -0.827780	 -0.158768
H	 0.264244	 0.316057	 1.328564
H	 -0.756354	 -0.389666	 0.105250
C	 2.723619	 -0.410569	 0.329459
H	 1.342964	 -0.912588	 -1.244120
H	 1.116806	 -1.824343	 0.220779
C	 3.243875	 0.895854	 -0.272975
H	 3.424222	 -1.207124	 0.091250
H	 2.714788	 -0.329854	 1.414619
H	 3.251977	 0.848779	 -1.358681
H	 2.637085	 1.747371	 0.016682
H	 4.259473	 1.094070	 0.055697

	symmetry c1
}
set optking {
	frozen_dihedral = ("
		4 7 10 14
	")
}

ee = optimize('scf')
oeprop('DIPOLE', 'QUADRUPOLE', 'MULLIKEN_CHARGES')
f=open( 'psi4out.xyz', 'w' )
f.write( "21  " )
f.write( str(ee) + "\n" )
f.write( MOL.save_string_xyz() )
f.close()
--------------------------------------------------------------------------

    Molecular point group: c1
  Charge       = 0
  Multiplicity = 1
  Basis Set: 6-31G*
  Basis Set:
  @DF-RHF Final Energy:  -310.19822455871747
    Total Energy =                       -310.1982245587173566
    Molecular point group: c1
  Basis Set: 6-31G*
  Basis Set:
  Basis Set: 6-31G*
  Basis Set:
  @DF-RHF Final Energy:  -310.20619838329571
    Total Energy =                       -310.2061983832961118
  Basis Set: 6-31G*
  Basis Set:
  Basis Set: 6-31G*
  Basis Set:
  @DF-RHF Final Energy:  -310.20750759401125
    Total Energy =                       -310.2075075940112470
  Basis Set: 6-31G*
  Basis Set:
  Basis Set: 6-31G*
  Basis Set:
  @DF-RHF Final Energy:  -310.20780758765483
    Total Energy =                       -310.2078075876548837
  Basis Set: 6-31G*
  Basis Set:
  @DF-RHF Final Energy:  -310.20791348273929
    Total Energy =                       -310.2079134827394000
  @DF-RHF Final Energy:  -310.20793350503749
    Total Energy =                       -310.2079335050376017
  Basis Set: 6-31G*
  Basis Set:
  @DF-RHF Final Energy:  -310.20794864416808
    Total Energy =                       -310.2079486441680274
  Basis Set: 6-31G*
  Basis Set:
  Basis Set: 6-31G*
  Basis Set:
  @DF-RHF Final Energy:  -310.20795756395154
    Total Energy =                       -310.2079575639512541
  Basis Set: 6-31G*
  Basis Set:
  Basis Set: 6-31G*
  Basis Set:
  @DF-RHF Final Energy:  -310.20796131203883
    Total Energy =                       -310.2079613120388331
  Basis Set: 6-31G*
  Basis Set:
  Charge       = 0
  Multiplicity = 1
  Basis Set: 6-31G*
  Basis Set:

    Orbital Energies (a.u.)
    -----------------------

    Doubly Occupied:

       1A    -20.552050     2A    -11.267094     3A    -11.216648
       4A    -11.214477     5A    -11.213898     6A    -11.210223
       7A    -11.205057     8A     -1.358869     9A     -1.083608
      10A     -1.029984    11A     -0.957652    12A     -0.873386
      13A     -0.810744    14A     -0.775699    15A     -0.691787
      16A     -0.658289    17A     -0.622440    18A     -0.603108
      19A     -0.585645    20A     -0.568923    21A     -0.541493
      22A     -0.522091    23A     -0.502972    24A     -0.491317
      25A     -0.480518    26A     -0.461615    27A     -0.447579
      28A     -0.439982    29A     -0.434239

  @DF-RHF Final Energy:  -310.20796161646666

   => Energetics <=

    Nuclear Repulsion Energy =            317.7595759978912042
    One-Electron Energy =               -1050.2922990827648846
    Two-Electron Energy =                 422.3247614684071323
    DFT Exchange-Correlation Energy =       0.0000000000000000
    Empirical Dispersion Energy =           0.0000000000000000
    PCM Polarization Energy =               0.0000000000000000
    EFP Energy =                            0.0000000000000000
    Total Energy =                       -310.2079616164664913
    Molecular point group: c1
  Basis Set: 6-31G*
  Basis Set:

  -Total Gradient:
     Atom            X                  Y                   Z
    ------   -----------------  -----------------  -----------------
       1        0.000001006479    -0.000005459550     0.000001705085
       2        0.000008295245    -0.000000716741    -0.000012787839
       3        0.000000052790    -0.000004203160     0.000013843253
       4       -0.000483506206    -0.000293290489    -0.000595184786
       5       -0.000002053479    -0.000003581331    -0.000000823422
       6       -0.000003509201    -0.000000680646     0.000000013651
       7        0.000827360305     0.000646234950     0.000858218299
       8       -0.000001017720     0.000005961932     0.000000815156
       9        0.000005332150    -0.000012713129     0.000001980429
      10       -0.001086102954    -0.001212884455    -0.000265196267
      11        0.000006391318     0.000003352927    -0.000010535990
      12       -0.000010456110    -0.000001680429     0.000007261146
      13        0.000022334891    -0.000002568769    -0.000013876348
      14        0.000698442661     0.000869738623     0.000006178271
      15       -0.000015546915     0.000000474722    -0.000000715648
      16        0.000025747171     0.000009336759     0.000012486895
      17        0.000008467704     0.000003405901     0.000001758692
      18        0.000000660595    -0.000000793944    -0.000005145396
      19       -0.000004754382    -0.000000278666     0.000005173128
      20        0.000005267238     0.000001770439    -0.000003370876
      21       -0.000002411576    -0.000001424949    -0.000001797431

  **** Optimization is complete! (in 10 steps) ****
    Final optimized geometry and variables:
    Molecular point group: c1

    Geometry (in Angstrom), charge = 0, multiplicity = 1:

    H           -2.638727760333     2.983408327761    -0.346596569520
    O           -1.847186315563     2.497125597385    -0.528037481092
    C           -1.916181729088     1.236095726034     0.086368948526
    C           -0.633389262859     0.485221704012    -0.227460457205
    H           -2.032517973958     1.340897118899     1.164386882989
    H           -2.775450107123     0.677064220280    -0.281440142200
    C           -0.595958579747    -0.896281084586     0.431321203582
    H            0.197053660670     1.098956115843     0.101500574912
    H           -0.547311713132     0.389932825537    -1.306442871111
    C            0.551154783465    -1.823201338312     0.000000332232
    H           -0.575270598964    -0.784522756234     1.514064829199
    H           -1.530170051433    -1.406358289866     0.201536648233
    C            1.950472159165    -1.496232137639     0.551613371669
    H            0.596141780451    -1.861237179843    -1.086937856722
    H            0.291546605891    -2.826385160964     0.327732963588
    C            2.747823373529    -0.451290225863    -0.233102924870
    H            2.530538039924    -2.415665944679     0.560830344323
    H            1.865995141266    -1.187312569813     1.591607976823
    H            2.855974763995    -0.748773116623    -1.272453091992
    H            2.282004004178     0.526259624060    -0.218161807380
    H            3.745357638219    -0.343663856412     0.182541595185

  Mulliken Charges: (a.u.)
   Center  Symbol    Alpha    Beta     Spin     Total
       1     H     0.28114  0.28114  0.00000  0.43772
       2     O     4.37194  4.37194  0.00000 -0.74389
       3     C     2.98955  2.98955  0.00000  0.02091
       4     C     3.16140  3.16140  0.00000 -0.32281
       5     H     0.43297  0.43297  0.00000  0.13405
       6     H     0.43271  0.43271  0.00000  0.13459
       7     C     3.16092  3.16092  0.00000 -0.32185
       8     H     0.41211  0.41211  0.00000  0.17578
       9     H     0.41523  0.41523  0.00000  0.16955
      10     C     3.15406  3.15406  0.00000 -0.30812
      11     H     0.42292  0.42292  0.00000  0.15415
      12     H     0.42342  0.42342  0.00000  0.15317
      13     C     3.15348  3.15348  0.00000 -0.30697
      14     H     0.42245  0.42245  0.00000  0.15510
      15     H     0.42047  0.42047  0.00000  0.15906
      16     C     3.24102  3.24102  0.00000 -0.48204
      17     H     0.42125  0.42125  0.00000  0.15751
      18     H     0.42330  0.42330  0.00000  0.15340
      19     H     0.42202  0.42202  0.00000  0.15596
      20     H     0.41702  0.41702  0.00000  0.16597
      21     H     0.42063  0.42063  0.00000  0.15875

   Total alpha = 29.00000, Total beta = 29.00000, Total charge = -0.00000
