                              Psi4 1.0.54 Driver

  ==> Input File <==

--------------------------------------------------------------------------
set {
	reference rhf
	basis cc-pvtz
}

set_num_threads( 4 )
memory 2 gb

molecule MOL {
0 1

H	 -2.698799	 -0.000846	 0.036018
C	 -1.694291	 -0.000483	 0.434279
O	 -0.828718	 -0.000608	 -0.655022
H	 -1.576855	 0.881100	 1.056504
H	 -1.576401	 -0.881658	 1.057001
C	 0.557892	 0.000078	 -0.420099
C	 1.230794	 1.284985	 -0.889662
C	 0.907422	 -0.342162	 1.023836
H	 0.915396	 -0.807635	 -1.046525
H	 0.931605	 1.518198	 -1.904136
H	 2.307675	 1.163504	 -0.871899
H	 0.987352	 2.130236	 -0.256519
H	 0.384048	 -1.237405	 1.336347
H	 1.972574	 -0.522692	 1.111206
H	 0.655301	 0.459861	 1.707748

	symmetry c1
}
set optking {
	frozen_dihedral = ("
		9 6 3 2
	")
}

ee,wfn = optimize('scf', return_wfn=True)
oeprop( wfn, 'DIPOLE', 'QUADRUPOLE', 'MULLIKEN_CHARGES')
f=open( 'psi4out.xyz', 'w' )
f.write( "15  " )
f.write( str(ee) + "\n" )
f.write( MOL.save_string_xyz() )
f.close()
--------------------------------------------------------------------------

    Molecular point group: c1
  Charge       = 0
  Multiplicity = 1
  Basis Set: CC-PVTZ
  Basis Set:
  @DF-RHF Final Energy:  -232.21907720465819
    Total Energy =                       -232.2190772046582197
    Molecular point group: c1
  Basis Set: CC-PVTZ
  Basis Set:
  Basis Set: CC-PVTZ
  Basis Set:
  @DF-RHF Final Energy:  -231.49637909697893
    Total Energy =                       -231.4963790969789557
  Basis Set: CC-PVTZ
  Basis Set:
  Basis Set: CC-PVTZ
  Basis Set:
  @DF-RHF Final Energy:  -231.68547798264939
    Total Energy =                       -231.6854779826495019
  Basis Set: CC-PVTZ
  Basis Set:
  Basis Set: CC-PVTZ
  Basis Set:
  @DF-RHF Final Energy:  -231.98560006445410
    Total Energy =                       -231.9856000644539904
  Basis Set: CC-PVTZ
  Basis Set:
  @DF-RHF Final Energy:  -232.18243121035329
    Total Energy =                       -232.1824312103533998
  @DF-RHF Final Energy:  -232.21948542550808
    Total Energy =                       -232.2194854255080259
  @DF-RHF Final Energy:  -232.22192664454934
    Total Energy =                       -232.2219266445492281
  Basis Set: CC-PVTZ
  Basis Set:
  @DF-RHF Final Energy:  -232.22206426337030
    Total Energy =                       -232.2220642633703847
  Basis Set: CC-PVTZ
  Basis Set:
  Basis Set: CC-PVTZ
  Basis Set:
  @DF-RHF Final Energy:  -232.22211669526172
    Total Energy =                       -232.2221166952616045
  Basis Set: CC-PVTZ
  Basis Set:
  Basis Set: CC-PVTZ
  Basis Set:
  @DF-RHF Final Energy:  -232.22211849064101
    Total Energy =                       -232.2221184906409235
  Basis Set: CC-PVTZ
  Basis Set:
  Charge       = 0
  Multiplicity = 1
  Basis Set: CC-PVTZ
  Basis Set:

    Orbital Energies (a.u.)
    -----------------------

    Doubly Occupied:

       1A    -20.538717     2A    -11.273152     3A    -11.259724
       4A    -11.213216     5A    -11.204112     6A     -1.369518
       7A     -1.053470     8A     -0.948537     9A     -0.919524
      10A     -0.781863    11A     -0.676358    12A     -0.644012
      13A     -0.632646    14A     -0.582805    15A     -0.554828
      16A     -0.543592    17A     -0.535692    18A     -0.507742
      19A     -0.493090    20A     -0.447509    21A     -0.401499

  @DF-RHF Final Energy:  -232.22212002865695

   => Energetics <=

    Nuclear Repulsion Energy =            198.3005232102570972
    One-Electron Energy =                -707.8820750969789515
    Two-Electron Energy =                 277.3594318580647382
    DFT Exchange-Correlation Energy =       0.0000000000000000
    Empirical Dispersion Energy =           0.0000000000000000
    PCM Polarization Energy =               0.0000000000000000
    EFP Energy =                            0.0000000000000000
    Total Energy =                       -232.2221200286571161
    Molecular point group: c1
  Basis Set: CC-PVTZ
  Basis Set:

  -Total Gradient:
     Atom            X                  Y                   Z
    ------   -----------------  -----------------  -----------------
       1        0.000017014765    -0.000035812925     0.000025620687
       2       -0.001440100696    -0.001124125431    -0.000297010818
       3        0.001997480678     0.001424649487     0.000766070239
       4       -0.000002671315    -0.000013031925    -0.000024526145
       5        0.000019891044     0.000036691279    -0.000005187151
       6        0.000512258525     0.000763270415    -0.001864399606
       7        0.000048728551     0.000021927447     0.000058154408
       8        0.000031422056     0.000011239764     0.000051865303
       9       -0.001122658788    -0.001141575542     0.001320472367
      10       -0.000013478981     0.000026460251    -0.000032896059
      11       -0.000031922336    -0.000002682686     0.000019391526
      12        0.000019219165     0.000010907155    -0.000000133365
      13       -0.000013089705    -0.000011885214    -0.000003130319
      14       -0.000021392281     0.000036179170    -0.000014041187
      15       -0.000000700682    -0.000002211244    -0.000000249879

  **** Optimization is complete! (in 11 steps) ****
    Final optimized geometry and variables:
    Molecular point group: c1

    Geometry (in Angstrom), charge = 0, multiplicity = 1:

    H           -1.915142834283     1.821954117908     0.690387097736
    C           -1.280681563245     0.965305794818     0.868117201581
    O           -0.718336862123     0.628048042398    -0.357506425581
    H           -0.535321454850     1.246166812128     1.606803530800
    H           -1.893289242477     0.170252208487     1.279846404477
    C            0.201372992495    -0.437089158893    -0.478327463478
    C            1.556834584492     0.139777901689    -0.857056184156
    C            0.297487865236    -1.357924179698     0.733169296668
    H           -0.166698756245    -1.041137872099    -1.301402740838
    H            1.459696457763     0.774566414303    -1.728206262702
    H            2.265960614968    -0.649353084410    -1.082023122663
    H            1.958231463755     0.738295905872    -0.045887430902
    H           -0.660493037018    -1.795815247709     0.982390271180
    H            0.976455855732    -2.168358616798     0.497527407238
    H            0.683170734280    -0.849274781680     1.608391566896

  Mulliken Charges: (a.u.)
   Center  Symbol    Alpha    Beta     Spin     Total
       1     H     0.44196  0.44196  0.00000  0.11608
       2     C     3.03708  3.03708  0.00000 -0.07417
       3     O     4.18976  4.18976  0.00000 -0.37951
       4     H     0.47134  0.47134  0.00000  0.05732
       5     H     0.46886  0.46886  0.00000  0.06229
       6     C     2.92522  2.92522  0.00000  0.14956
       7     C     3.13977  3.13977  0.00000 -0.27954
       8     C     3.17219  3.17219  0.00000 -0.34438
       9     H     0.45277  0.45277  0.00000  0.09446
      10     H     0.44604  0.44604  0.00000  0.10793
      11     H     0.45830  0.45830  0.00000  0.08341
      12     H     0.45782  0.45782  0.00000  0.08437
      13     H     0.44463  0.44463  0.00000  0.11074
      14     H     0.44358  0.44358  0.00000  0.11284
      15     H     0.45069  0.45069  0.00000  0.09862

   Total alpha = 21.00000, Total beta = 21.00000, Total charge =  0.00000

*** Psi4 exiting successfully. Buy a developer a beer!
