                              Psi4 1.0.54 Driver

  ==> Input File <==

--------------------------------------------------------------------------
set {
	reference rhf
	basis cc-pvtz
}

set_num_threads( 4 )
memory 2 gb

molecule MOL {
0 1

H	 2.247077	 0.879561	 -0.581281
C	 1.954439	 -0.098770	 -0.217427
N	 0.526300	 -0.128137	 0.000000
H	 2.471895	 -0.269399	 0.718076
H	 2.303280	 -0.838702	 -0.940879
C	 -0.247113	 0.037112	 -1.209233
H	 0.268986	 -0.976982	 0.454874
H	 -0.996493	 -0.743733	 -1.271440
H	 0.397975	 -0.057351	 -2.073512
H	 -0.763794	 0.997171	 -1.271673

	symmetry c1
}
set optking {
	frozen_dihedral = ("
		2 3 6 8
	")
}

ee,wfn = optimize('scf', return_wfn=True)
oeprop( wfn, 'DIPOLE', 'QUADRUPOLE', 'MULLIKEN_CHARGES')
f=open( 'psi4out.xyz', 'w' )
f.write( "10  " )
f.write( str(ee) + "\n" )
f.write( MOL.save_string_xyz() )
f.close()
--------------------------------------------------------------------------

    Molecular point group: c1
  Charge       = 0
  Multiplicity = 1
  Basis Set: CC-PVTZ
  Basis Set:
  @DF-RHF Final Energy:  -134.28808162513673
    Total Energy =                       -134.2880816251366412
    Molecular point group: c1
  Basis Set: CC-PVTZ
  Basis Set:
  Basis Set: CC-PVTZ
  Basis Set:
  @DF-RHF Final Energy:  -134.28863668239251
    Total Energy =                       -134.2886366823924504
  Basis Set: CC-PVTZ
  Basis Set:
  Basis Set: CC-PVTZ
  Basis Set:
  @DF-RHF Final Energy:  -134.28870893296715
    Total Energy =                       -134.2887089329671539
  Basis Set: CC-PVTZ
  Basis Set:
  Charge       = 0
  Multiplicity = 1
  Basis Set: CC-PVTZ
  Basis Set:

    Orbital Energies (a.u.)
    -----------------------

    Doubly Occupied:

       1A    -15.530181     2A    -11.234422     3A    -11.234103
       4A     -1.197054     5A     -0.948181     6A     -0.854934
       7A     -0.660628     8A     -0.611954     9A     -0.589091
      10A     -0.546136    11A     -0.508883    12A     -0.504950
      13A     -0.360916

  @DF-RHF Final Energy:  -134.28871005652417

   => Energetics <=

    Nuclear Repulsion Energy =             84.5036110807254488
    One-Electron Energy =                -348.0217718547909271
    Two-Electron Energy =                 129.2294507175412548
    DFT Exchange-Correlation Energy =       0.0000000000000000
    Empirical Dispersion Energy =           0.0000000000000000
    PCM Polarization Energy =               0.0000000000000000
    EFP Energy =                            0.0000000000000000
    Total Energy =                       -134.2887100565241951
    Molecular point group: c1
  Basis Set: CC-PVTZ
  Basis Set:

  -Total Gradient:
     Atom            X                  Y                   Z
    ------   -----------------  -----------------  -----------------
       1       -0.000047410948    -0.000014884503     0.000001066590
       2        0.000061899641    -0.002023965207    -0.000184648841
       3        0.000438670142     0.002408014708    -0.000069188378
       4        0.000049981287     0.000002547046     0.000012152389
       5       -0.000032008931     0.000011070054     0.000001637225
       6       -0.002141864189     0.001027422533     0.001583146103
       7        0.000043972428     0.000024487205     0.000013561713
       8        0.001669384514    -0.001450710379    -0.001333893685
       9       -0.000008476922     0.000012510252     0.000014228170
      10       -0.000034147022     0.000003508291    -0.000038061286

  **** Optimization is complete! (in 4 steps) ****
    Final optimized geometry and variables:
    Molecular point group: c1

    Geometry (in Angstrom), charge = 0, multiplicity = 1:

    H            1.490782307091     0.990151615864    -0.076828137669
    C            1.212656976475     0.004736228714     0.278963851674
    N           -0.216417568708    -0.057823359361     0.485741025049
    H            1.724501496379    -0.157848795723     1.219299472156
    H            1.583777636478    -0.724926268860    -0.443021917429
    C           -1.015374339799     0.096706113951    -0.719333602732
    H           -0.449416336626    -0.909348998031     0.943884204814
    H           -1.754485272894    -0.692019830637    -0.799467806141
    H           -0.405285727202     0.039755974664    -1.617508589764
    H           -1.531903156539     1.049797715996    -0.732005984377

  Mulliken Charges: (a.u.)
   Center  Symbol    Alpha    Beta     Spin     Total
       1     H     0.45633  0.45633  0.00000  0.08734
       2     C     3.08309  3.08309  0.00000 -0.16619
       3     N     3.63122  3.63122  0.00000 -0.26243
       4     H     0.45319  0.45319  0.00000  0.09362
       5     H     0.47399  0.47399  0.00000  0.05203
       6     C     3.07622  3.07622  0.00000 -0.15244
       7     H     0.44071  0.44071  0.00000  0.11859
       8     H     0.45965  0.45965  0.00000  0.08070
       9     H     0.46974  0.46974  0.00000  0.06052
      10     H     0.45587  0.45587  0.00000  0.08827

   Total alpha = 13.00000, Total beta = 13.00000, Total charge = -0.00000

*** Psi4 exiting successfully. Buy a developer a beer!
