  ==> Input File <==

--------------------------------------------------------------------------
set {
	reference rhf
	basis 6-31G*
}

set_num_threads( 1 )
memory 2 gb

molecule MOL {
0 1

H	 -1.597368	 -1.095780	 -0.890759
O	 -2.310168	 -0.871793	 -0.309793
C	 -2.026376	 0.340750	 0.341611
C	 -0.673256	 0.843270	 -0.132153
H	 -2.792215	 1.080697	 0.115987
H	 -2.013526	 0.200402	 1.421792
C	 0.486613	 -0.083066	 0.235839
H	 -0.715586	 0.970948	 -1.210718
H	 -0.508072	 1.829858	 0.297090
C	 1.840406	 0.433480	 -0.254303
H	 0.300215	 -1.068318	 -0.178947
H	 0.519509	 -0.203625	 1.318070
C	 3.000220	 -0.489290	 0.118523
H	 1.809207	 0.553576	 -1.335192
H	 2.021860	 1.424500	 0.157276
H	 2.864959	 -1.479103	 -0.307933
H	 3.946603	 -0.099227	 -0.243630
H	 3.080049	 -0.602997	 1.196117

	symmetry c1
}
set optking {
	frozen_dihedral = ("
		14 10 7 11,
		10 7 4 8,
		2 3 4 8
	")
}

ee = energy('scf')
oeprop('DIPOLE', 'QUADRUPOLE', 'MULLIKEN_CHARGES')
f=open( 'psi4out.xyz', 'w' )
f.write( "18  " )
f.write( str(ee) + "\n" )
f.write( MOL.save_string_xyz() )
f.close()
--------------------------------------------------------------------------

    Molecular point group: c1

    Geometry (in Angstrom), charge = 0, multiplicity = 1:

       Center              X                  Y                   Z               Mass
    ------------   -----------------  -----------------  -----------------  -----------------
           H         -1.614964946318    -1.097144843909    -0.880552236501     1.007825032070
           O         -2.327764946318    -0.873157843909    -0.299586236501    15.994914619560
           C         -2.043972946318     0.339385156091     0.351817763499    12.000000000000
           C         -0.690852946318     0.841905156091    -0.121946236501    12.000000000000
           H         -2.809811946318     1.079332156091     0.126193763499     1.007825032070
           H         -2.031122946318     0.199037156091     1.431998763499     1.007825032070
           C          0.469016053682    -0.084430843909     0.246045763499    12.000000000000
           H         -0.733182946318     0.969583156091    -1.200511236501     1.007825032070
           H         -0.525668946318     1.828493156091     0.307296763499     1.007825032070
           C          1.822809053682     0.432115156091    -0.244096236501    12.000000000000
           H          0.282618053682    -1.069682843909    -0.168740236501     1.007825032070
           H          0.501912053682    -0.204989843909     1.328276763499     1.007825032070
           C          2.982623053682    -0.490654843909     0.128729763499    12.000000000000
           H          1.791610053682     0.552211156091    -1.324985236501     1.007825032070
           H          2.004263053682     1.423135156091     0.167482763499     1.007825032070
           H          2.847362053682    -1.480467843909    -0.297726236501     1.007825032070
           H          3.929006053682    -0.100591843909    -0.233423236501     1.007825032070
           H          3.062452053682    -0.604361843909     1.206323763499     1.007825032070

  Charge       = 0
  Multiplicity = 1
  Basis Set: 6-31G*
  Basis Set:

    Orbital Energies (a.u.)
    -----------------------

    Doubly Occupied:

       1A    -20.548211     2A    -11.267641     3A    -11.224698
       4A    -11.223209     5A    -11.223044     6A    -11.214046
       7A     -1.358478     8A     -1.087221     9A     -1.015356
      10A     -0.923777    11A     -0.835648    12A     -0.799069
      13A     -0.664646    14A     -0.660678    15A     -0.634577
      16A     -0.615554    17A     -0.577086    18A     -0.562989
      19A     -0.540799    20A     -0.502463    21A     -0.492306
      22A     -0.480154    23A     -0.473400    24A     -0.450838
      25A     -0.430019

  @DF-RHF Final Energy:  -271.17427466576470

   => Energetics <=

    Nuclear Repulsion Energy =            250.5555556807248081
    One-Electron Energy =                -863.8476487450382137
    Two-Electron Energy =                 342.1178183985489909
    DFT Exchange-Correlation Energy =       0.0000000000000000
    Empirical Dispersion Energy =           0.0000000000000000
    PCM Polarization Energy =               0.0000000000000000
    EFP Energy =                            0.0000000000000000
    Total Energy =                       -271.1742746657643579

  Mulliken Charges: (a.u.)
   Center  Symbol    Alpha    Beta     Spin     Total
       1     H     0.27629  0.27629  0.00000  0.44743
       2     O     4.37826  4.37826  0.00000 -0.75651
       3     C     2.97346  2.97346  0.00000  0.05307
       4     C     3.19272  3.19272  0.00000 -0.38544
       5     H     0.42285  0.42285  0.00000  0.15430
       6     H     0.42597  0.42597  0.00000  0.14806
       7     C     3.15399  3.15399  0.00000 -0.30797
       8     H     0.41950  0.41950  0.00000  0.16101
       9     H     0.41798  0.41798  0.00000  0.16404
      10     C     3.15106  3.15106  0.00000 -0.30213
      11     H     0.42661  0.42661  0.00000  0.14678
      12     H     0.41833  0.41833  0.00000  0.16334
      13     C     3.23960  3.23960  0.00000 -0.47921
      14     H     0.42277  0.42277  0.00000  0.15447
      15     H     0.42108  0.42108  0.00000  0.15783
      16     H     0.42110  0.42110  0.00000  0.15779
      17     H     0.41800  0.41800  0.00000  0.16400
      18     H     0.42044  0.42044  0.00000  0.15913

   Total alpha = 25.00000, Total beta = 25.00000, Total charge =  0.00000
