  ==> Input File <==

--------------------------------------------------------------------------
set {
	reference rhf
	basis 6-31G*
}

set_num_threads( 4 )
memory 2 gb

molecule MOL {
0 1

O	 -2.042549	 -1.228399	 -0.269030
C	 -1.653912	 -0.146171	 0.050137
C	 -0.332303	 0.024011	 0.778412
C	 -2.438579	 1.106236	 -0.272369
C	 0.845713	 -0.001731	 -0.208243
H	 -0.323783	 0.953829	 1.340327
H	 -0.235459	 -0.796807	 1.480410
C	 2.175924	 0.361581	 0.453251
H	 0.653541	 0.687297	 -1.028849
H	 0.910595	 -0.994210	 -0.644037
C	 3.350547	 0.328053	 -0.523654
H	 2.101064	 1.352635	 0.895555
H	 2.367351	 -0.326556	 1.273246
H	 3.204087	 1.031551	 -1.338327
H	 3.470586	 -0.660115	 -0.957887
H	 4.280230	 0.586609	 -0.026800
H	 -3.277823	 0.863061	 -0.908988
H	 -1.806773	 1.843019	 -0.759671
H	 -2.802853	 1.554979	 0.648059

	symmetry c1
}
set optking {
	frozen_dihedral = ("
		9 5 3 2
	")
}

ee = optimize('scf')
oeprop('DIPOLE', 'QUADRUPOLE', 'MULLIKEN_CHARGES')
f=open( 'psi4out.xyz', 'w' )
f.write( "19  " )
f.write( str(ee) + "\n" )
f.write( MOL.save_string_xyz() )
f.close()
--------------------------------------------------------------------------

    Molecular point group: c1
  Charge       = 0
  Multiplicity = 1
  Basis Set: 6-31G*
  Basis Set:
  @DF-RHF Final Energy:  -309.06482096416335
    Total Energy =                       -309.0648209641634026
    Molecular point group: c1
  Basis Set: 6-31G*
  Basis Set:
  Basis Set: 6-31G*
  Basis Set:
  @DF-RHF Final Energy:  -309.06483844165058
    Total Energy =                       -309.0648384416509771
  Basis Set: 6-31G*
  Basis Set:
  Basis Set: 6-31G*
  Basis Set:
  @DF-RHF Final Energy:  -309.06472574330741
    Total Energy =                       -309.0647257433070649
  Basis Set: 6-31G*
  Basis Set:
  Basis Set: 6-31G*
  Basis Set:
  @DF-RHF Final Energy:  -309.06487086052471
    Total Energy =                       -309.0648708605244792
  Basis Set: 6-31G*
  Basis Set:
  Basis Set: 6-31G*
  Basis Set:
  @DF-RHF Final Energy:  -309.06487298301181
    Total Energy =                       -309.0648729830117531
  Basis Set: 6-31G*
  Basis Set:
  Basis Set: 6-31G*
  Basis Set:
  @DF-RHF Final Energy:  -309.06487570032073
    Total Energy =                       -309.0648757003208971
  Basis Set: 6-31G*
  Basis Set:
  Charge       = 0
  Multiplicity = 1
  Basis Set: 6-31G*
  Basis Set:

    Orbital Energies (a.u.)
    -----------------------

    Doubly Occupied:

       1A    -20.547506     2A    -11.324562     3A    -11.231038
       4A    -11.229519     5A    -11.228325     6A    -11.225443
       7A    -11.215329     8A     -1.393139     9A     -1.091800
      10A     -1.029612    11A     -0.983766    12A     -0.890376
      13A     -0.807443    14A     -0.733559    15A     -0.662432
      16A     -0.646472    17A     -0.622293    18A     -0.613287
      19A     -0.582789    20A     -0.573452    21A     -0.552499
      22A     -0.538447    23A     -0.510664    24A     -0.501529
      25A     -0.483335    26A     -0.475820    27A     -0.467270
      28A     -0.396828

  @DF-RHF Final Energy:  -309.06487622299835

   => Energetics <=

    Nuclear Repulsion Energy =            301.3119607371132815
    One-Electron Energy =               -1015.6366067916108022
    Two-Electron Energy =                 405.2597698314992272
    DFT Exchange-Correlation Energy =       0.0000000000000000
    Empirical Dispersion Energy =           0.0000000000000000
    PCM Polarization Energy =               0.0000000000000000
    EFP Energy =                            0.0000000000000000
    Total Energy =                       -309.0648762229982935
    Molecular point group: c1
  Basis Set: 6-31G*
  Basis Set:

  -Total Gradient:
     Atom            X                  Y                   Z
    ------   -----------------  -----------------  -----------------
       1        0.000003073249    -0.000002456998     0.000000828160
       2       -0.000065861207     0.001277846301    -0.000200092513
       3       -0.000079496275    -0.002013853522    -0.000046468270
       4       -0.000051233379    -0.000014030366     0.000071411680
       5        0.000982972328     0.002045155199     0.001161678645
       6        0.000007307723     0.000000429384     0.000018259150
       7        0.000013578019     0.000006292581     0.000002619082
       8       -0.000043121839     0.000007841405    -0.000033075925
       9       -0.000792406527    -0.001303963205    -0.000940813518
      10       -0.000012591195    -0.000022565839    -0.000013042321
      11        0.000005700336    -0.000000821647     0.000003217037
      12       -0.000001185605     0.000000391813     0.000008491194
      13        0.000004538732    -0.000000052702    -0.000002594991
      14        0.000000898704     0.000004145277     0.000003357264
      15       -0.000006438488     0.000003932930    -0.000001046580
      16        0.000001138115    -0.000001587179    -0.000000338241
      17        0.000005594586     0.000000536509    -0.000005914763
      18        0.000017359869    -0.000006440079    -0.000011494863
      19        0.000010172859     0.000019200139    -0.000014980227

  **** Optimization is complete! (in 7 steps) ****
    Final optimized geometry and variables:
    Molecular point group: c1

    Geometry (in Angstrom), charge = 0, multiplicity = 1:

    O           -2.044964322116    -1.301908605284    -0.236560420498
    C           -1.646280659825    -0.218465540925     0.065717940572
    C           -0.324920624047    -0.044851393296     0.792387265009
    C           -2.419686610420     1.035815308682    -0.277522991563
    C            0.849314790633    -0.045507402611    -0.200443116751
    H           -0.328485406135     0.883635645631     1.357204355153
    H           -0.213909643688    -0.865698741277     1.491579161163
    C            2.184717189710     0.299836723259     0.458377300626
    H            0.649506950076     0.651802045664    -1.012278130235
    H            0.907947847191    -1.028527104758    -0.658827868156
    C            3.356068580346     0.260346748259    -0.522166104486
    H            2.120953334587     1.288761887579     0.906974721366
    H            2.371642428155    -0.394990920950     1.273943858526
    H            3.212865289043     0.968475338893    -1.333407906254
    H            3.466491422984    -0.726893129961    -0.960948247470
    H            4.289361673798     0.509087657364    -0.027082652569
    H           -3.251042824059     0.791545085561    -0.923991674132
    H           -1.778890502718     1.767528607297    -0.760359383204
    H           -2.795655504264     1.491342383396     0.634850559139

  Mulliken Charges: (a.u.)
   Center  Symbol    Alpha    Beta     Spin     Total
       1     O     4.26184  4.26184  0.00000 -0.52369
       2     C     2.73732  2.73732  0.00000  0.52536
       3     C     3.20004  3.20004  0.00000 -0.40009
       4     C     3.28966  3.28966  0.00000 -0.57931
       5     C     3.16098  3.16098  0.00000 -0.32196
       6     H     0.41721  0.41721  0.00000  0.16559
       7     H     0.40060  0.40060  0.00000  0.19879
       8     C     3.15187  3.15187  0.00000 -0.30375
       9     H     0.42054  0.42054  0.00000  0.15892
      10     H     0.40723  0.40723  0.00000  0.18554
      11     C     3.24038  3.24038  0.00000 -0.48077
      12     H     0.42226  0.42226  0.00000  0.15549
      13     H     0.41939  0.41939  0.00000  0.16122
      14     H     0.42098  0.42098  0.00000  0.15805
      15     H     0.41880  0.41880  0.00000  0.16240
      16     H     0.41739  0.41739  0.00000  0.16521
      17     H     0.39694  0.39694  0.00000  0.20613
      18     H     0.41003  0.41003  0.00000  0.17994
      19     H     0.40654  0.40654  0.00000  0.18693

   Total alpha = 28.00000, Total beta = 28.00000, Total charge =  0.00000
