  ==> Input File <==

--------------------------------------------------------------------------
set {
	reference rhf
	basis 6-31G*
}

set_num_threads( 1 )
memory 2 gb

molecule MOL {
0 1

O	 -2.821601	 1.309235	 -0.001213
C	 -2.668563	 0.129746	 -0.000350
C	 -3.801572	 -0.864014	 -0.000442
O	 -1.481751	 -0.454642	 0.000584
H	 -4.417280	 -0.689587	 -0.874708
H	 -3.443784	 -1.883046	 -0.000565
H	 -4.417179	 -0.689832	 0.873954
C	 -0.334255	 0.388708	 0.000906
C	 0.891947	 -0.504646	 0.000751
H	 -0.365390	 1.025305	 -0.873475
H	 -0.365484	 1.024911	 0.875569
C	 2.191998	 0.301789	 0.000897
H	 0.855148	 -1.151283	 -0.871571
H	 0.855132	 -1.151660	 0.872805
C	 1.987374	 1.762089	 0.408302
H	 2.907490	 -0.161631	 0.677950
H	 2.642148	 0.266406	 -0.989656
C	 3.286103	 2.567177	 0.409729
H	 1.537935	 1.799297	 1.398098
H	 1.274400	 2.227369	 -0.268642
H	 4.008130	 2.145693	 1.103301
H	 3.108871	 3.597277	 0.702505
H	 3.742429	 2.577272	 -0.576007

	symmetry c1
}
set optking {
	frozen_dihedral = ("
		13 9 8 10,
		2 4 8 10,
		19 15 12 16,
		1 2 4 8
	")
}

ee = energy('scf')
oeprop('DIPOLE', 'QUADRUPOLE', 'MULLIKEN_CHARGES')
f=open( 'psi4out.xyz', 'w' )
f.write( "23  " )
f.write( str(ee) + "\n" )
f.write( MOL.save_string_xyz() )
f.close()
--------------------------------------------------------------------------

    Molecular point group: c1

    Geometry (in Angstrom), charge = 0, multiplicity = 1:

       Center              X                  Y                   Z               Mass
    ------------   -----------------  -----------------  -----------------  -----------------
           O         -2.497150540774     0.786205992780    -0.092628124994    15.994914619560
           C         -2.344112540774    -0.393283007220    -0.091765124994    12.000000000000
           C         -3.477121540774    -1.387043007220    -0.091857124994    12.000000000000
           O         -1.157300540774    -0.977671007220    -0.090831124994    15.994914619560
           H         -4.092829540774    -1.212616007220    -0.966123124994     1.007825032070
           H         -3.119333540774    -2.406075007220    -0.091980124994     1.007825032070
           H         -4.092728540774    -1.212861007220     0.782538875006     1.007825032070
           C         -0.009804540774    -0.134321007220    -0.090509124994    12.000000000000
           C          1.216397459226    -1.027675007220    -0.090664124994    12.000000000000
           H         -0.040939540774     0.502275992780    -0.964890124994     1.007825032070
           H         -0.041033540774     0.501881992780     0.784153875006     1.007825032070
           C          2.516448459226    -0.221240007220    -0.090518124994    12.000000000000
           H          1.179598459226    -1.674312007220    -0.962986124994     1.007825032070
           H          1.179582459226    -1.674689007220     0.781389875006     1.007825032070
           C          2.311824459226     1.239059992780     0.316886875006    12.000000000000
           H          3.231940459226    -0.684660007220     0.586534875006     1.007825032070
           H          2.966598459226    -0.256623007220    -1.081071124994     1.007825032070
           C          3.610553459226     2.044147992780     0.318313875006    12.000000000000
           H          1.862385459226     1.276267992780     1.306682875006     1.007825032070
           H          1.598850459226     1.704339992780    -0.360057124994     1.007825032070
           H          4.332580459226     1.622663992780     1.011885875006     1.007825032070
           H          3.433321459226     3.074247992780     0.611089875006     1.007825032070
           H          4.066879459226     2.054242992780    -0.667422124994     1.007825032070

  Charge       = 0
  Multiplicity = 1
  Basis Set: 6-31G*
  Basis Set:

    Orbital Energies (a.u.)
    -----------------------

    Doubly Occupied:

       1A    -20.601633     2A    -20.539981     3A    -11.373512
       4A    -11.279698     5A    -11.231998     6A    -11.222880
       7A    -11.222199     8A    -11.221059     9A    -11.212192
      10A     -1.467032    11A     -1.360022    12A     -1.098780
      13A     -1.037418    14A     -1.001367    15A     -0.930763
      16A     -0.857220    17A     -0.791204    18A     -0.772221
      19A     -0.692276    20A     -0.684726    21A     -0.666197
      22A     -0.644162    23A     -0.603942    24A     -0.588540
      25A     -0.578934    26A     -0.571358    27A     -0.568493
      28A     -0.525673    29A     -0.523928    30A     -0.517318
      31A     -0.501316    32A     -0.473900    33A     -0.463965
      34A     -0.458317    35A     -0.444238    36A     -0.435610

  @DF-RHF Final Energy:  -422.96750677859467

   => Energetics <=

    Nuclear Repulsion Energy =            461.8466255223970052
    One-Electron Energy =               -1491.3001916741472996
    Two-Electron Energy =                 606.4860593731555127
    DFT Exchange-Correlation Energy =       0.0000000000000000
    Empirical Dispersion Energy =           0.0000000000000000
    PCM Polarization Energy =               0.0000000000000000
    EFP Energy =                            0.0000000000000000
    Total Energy =                       -422.9675067785947249

  Mulliken Charges: (a.u.)
   Center  Symbol    Alpha    Beta     Spin     Total
       1     O     4.28438  4.28438  0.00000 -0.56877
       2     C     2.61574  2.61574  0.00000  0.76853
       3     C     3.28781  3.28781  0.00000 -0.57562
       4     O     4.31555  4.31555  0.00000 -0.63109
       5     H     0.39764  0.39764  0.00000  0.20472
       6     H     0.39984  0.39984  0.00000  0.20031
       7     H     0.39767  0.39767  0.00000  0.20466
       8     C     2.99988  2.99988  0.00000  0.00025
       9     C     3.16593  3.16593  0.00000 -0.33186
      10     H     0.40982  0.40982  0.00000  0.18036
      11     H     0.40721  0.40721  0.00000  0.18558
      12     C     3.15864  3.15864  0.00000 -0.31728
      13     H     0.41159  0.41159  0.00000  0.17683
      14     H     0.41270  0.41270  0.00000  0.17460
      15     C     3.16709  3.16709  0.00000 -0.33417
      16     H     0.41718  0.41718  0.00000  0.16564
      17     H     0.41861  0.41861  0.00000  0.16278
      18     C     3.23690  3.23690  0.00000 -0.47381
      19     H     0.41934  0.41934  0.00000  0.16132
      20     H     0.41671  0.41671  0.00000  0.16658
      21     H     0.42136  0.42136  0.00000  0.15728
      22     H     0.41726  0.41726  0.00000  0.16548
      23     H     0.42115  0.42115  0.00000  0.15770

   Total alpha = 36.00000, Total beta = 36.00000, Total charge = -0.00000
