  ==> Input File <==

--------------------------------------------------------------------------
set {
	reference rhf
	basis 6-31G*
}

set_num_threads( 1 )
memory 2 gb

molecule MOL {
0 1

H	 3.472290	 -1.177551	 -0.576845
O	 2.826016	 -1.159218	 0.122261
C	 2.077727	 -0.067559	 -0.035091
C	 0.624473	 -0.343591	 0.253101
O	 2.542965	 0.974826	 -0.363729
C	 -0.265902	 0.883932	 0.072916
H	 0.324016	 -1.163849	 -0.390541
H	 0.565024	 -0.726111	 1.268924
C	 -1.728698	 0.646073	 0.462102
H	 -0.209144	 1.219470	 -0.958188
H	 0.135059	 1.692851	 0.673903
C	 -2.482460	 -0.343073	 -0.431425
H	 -2.245265	 1.602650	 0.432430
H	 -1.779332	 0.308348	 1.496285
C	 -3.960546	 -0.461025	 -0.060175
H	 -2.395034	 -0.026811	 -1.468912
H	 -2.024850	 -1.327147	 -0.371646
H	 -4.472726	 -1.168004	 -0.705284
H	 -4.465146	 0.496508	 -0.151489
H	 -4.081218	 -0.800940	 0.964585

	symmetry c1
}
set optking {
	frozen_dihedral = ("
		16 12 9 6,
		7 4 6 10,
		12 9 6 10,
		5 3 4 7
	")
}

ee = energy('scf')
oeprop('DIPOLE', 'QUADRUPOLE', 'MULLIKEN_CHARGES')
f=open( 'psi4out.xyz', 'w' )
f.write( "20  " )
f.write( str(ee) + "\n" )
f.write( MOL.save_string_xyz() )
f.close()
--------------------------------------------------------------------------

    Molecular point group: c1

    Geometry (in Angstrom), charge = 0, multiplicity = 1:

       Center              X                  Y                   Z               Mass
    ------------   -----------------  -----------------  -----------------  -----------------
           H          3.474522962480    -1.175386926989    -0.572449607329     1.007825032070
           O          2.828248962480    -1.157053926989     0.126656392671    15.994914619560
           C          2.079959962480    -0.065394926989    -0.030695607329    12.000000000000
           C          0.626705962480    -0.341426926989     0.257496392671    12.000000000000
           O          2.545197962480     0.976990073011    -0.359333607329    15.994914619560
           C         -0.263669037520     0.886096073011     0.077311392671    12.000000000000
           H          0.326248962480    -1.161684926989    -0.386145607329     1.007825032070
           H          0.567256962480    -0.723946926989     1.273319392671     1.007825032070
           C         -1.726465037520     0.648237073011     0.466497392671    12.000000000000
           H         -0.206911037520     1.221634073011    -0.953792607329     1.007825032070
           H          0.137291962480     1.695015073011     0.678298392671     1.007825032070
           C         -2.480227037520    -0.340908926989    -0.427029607329    12.000000000000
           H         -2.243032037520     1.604814073011     0.436825392671     1.007825032070
           H         -1.777099037520     0.310512073011     1.500680392671     1.007825032070
           C         -3.958313037520    -0.458860926989    -0.055779607329    12.000000000000
           H         -2.392801037520    -0.024646926989    -1.464516607329     1.007825032070
           H         -2.022617037520    -1.324982926989    -0.367250607329     1.007825032070
           H         -4.470493037520    -1.165839926989    -0.700888607329     1.007825032070
           H         -4.462913037520     0.498672073011    -0.147093607329     1.007825032070
           H         -4.078985037520    -0.798775926989     0.968980392671     1.007825032070

  Charge       = 0
  Multiplicity = 1
  Basis Set: 6-31G*
  Basis Set:

    Orbital Energies (a.u.)
    -----------------------

    Doubly Occupied:

       1A    -20.606538     2A    -20.554211     3A    -11.380593
       4A    -11.239775     5A    -11.222577     6A    -11.221002
       7A    -11.220211     8A    -11.212760     9A     -1.472423
      10A     -1.366140    11A     -1.096045    12A     -1.040611
      13A     -0.960310    14A     -0.867833    15A     -0.816746
      16A     -0.777821    17A     -0.703040    18A     -0.687720
      19A     -0.665447    20A     -0.632497    21A     -0.615200
      22A     -0.588791    23A     -0.563056    24A     -0.549402
      25A     -0.546645    26A     -0.510474    27A     -0.498148
      28A     -0.482045    29A     -0.469445    30A     -0.466464
      31A     -0.457426    32A     -0.443351

  @DF-RHF Final Energy:  -383.93972554197268

   => Energetics <=

    Nuclear Repulsion Energy =            375.9558053472541701
    One-Electron Energy =               -1267.9215730653936589
    Two-Electron Energy =                 508.0260421761664702
    DFT Exchange-Correlation Energy =       0.0000000000000000
    Empirical Dispersion Energy =           0.0000000000000000
    PCM Polarization Energy =               0.0000000000000000
    EFP Energy =                            0.0000000000000000
    Total Energy =                       -383.9397255419729618

  Mulliken Charges: (a.u.)
   Center  Symbol    Alpha    Beta     Spin     Total
       1     H     0.26627  0.26627  0.00000  0.46746
       2     O     4.35425  4.35425  0.00000 -0.70850
       3     C     2.62762  2.62762  0.00000  0.74477
       4     C     3.21206  3.21206  0.00000 -0.42413
       5     O     4.26960  4.26960  0.00000 -0.53919
       6     C     3.15483  3.15483  0.00000 -0.30966
       7     H     0.39993  0.39993  0.00000  0.20015
       8     H     0.39865  0.39865  0.00000  0.20270
       9     C     3.15536  3.15536  0.00000 -0.31072
      10     H     0.41336  0.41336  0.00000  0.17327
      11     H     0.40749  0.40749  0.00000  0.18501
      12     C     3.15481  3.15481  0.00000 -0.30962
      13     H     0.41797  0.41797  0.00000  0.16406
      14     H     0.42344  0.42344  0.00000  0.15311
      15     C     3.23919  3.23919  0.00000 -0.47838
      16     H     0.42190  0.42190  0.00000  0.15620
      17     H     0.42308  0.42308  0.00000  0.15384
      18     H     0.41850  0.41850  0.00000  0.16300
      19     H     0.42054  0.42054  0.00000  0.15891
      20     H     0.42114  0.42114  0.00000  0.15771

   Total alpha = 32.00000, Total beta = 32.00000, Total charge =  0.00000
