                              Psi4 1.0.54 Driver

  ==> Input File <==

--------------------------------------------------------------------------
set {
	reference rhf
	basis cc-pvtz
}

set_num_threads( 4 )
memory 2 gb

molecule MOL {
0 1

H	 0.096543	 -0.857849	 -1.729739
C	 0.302578	 0.220498	 -1.690298
C	 0.062554	 0.862911	 -0.350953
O	 0.689605	 0.784563	 -2.654246
C	 -1.339253	 0.577611	 0.196911
H	 0.245212	 1.925946	 -0.440883
H	 0.803612	 0.451172	 0.330500
C	 -1.813142	 -0.849710	 -0.061612
H	 -2.032833	 1.276441	 -0.256032
H	 -1.357249	 0.782269	 1.263793
H	 -1.839268	 -1.063526	 -1.124230
H	 -2.810118	 -1.001930	 0.334000
H	 -1.159274	 -1.579980	 0.402282

	symmetry c1
}
set optking {
	frozen_dihedral = ("
		6 3 5 9
	")
}

ee,wfn = optimize('scf', return_wfn=True)
oeprop( wfn, 'DIPOLE', 'QUADRUPOLE', 'MULLIKEN_CHARGES')
f=open( 'psi4out.xyz', 'w' )
f.write( "13  " )
f.write( str(ee) + "\n" )
f.write( MOL.save_string_xyz() )
f.close()
--------------------------------------------------------------------------

    Molecular point group: c1
  Charge       = 0
  Multiplicity = 1
  Basis Set: CC-PVTZ
  Basis Set:
  @DF-RHF Final Energy:  -231.06458751353591
    Total Energy =                       -231.0645875135357414
    Molecular point group: c1
  Basis Set: CC-PVTZ
  Basis Set:
  Basis Set: CC-PVTZ
  Basis Set:
  @DF-RHF Final Energy:  -231.06513958420732
    Total Energy =                       -231.0651395842073725
  Basis Set: CC-PVTZ
  Basis Set:
  Basis Set: CC-PVTZ
  Basis Set:
  @DF-RHF Final Energy:  -231.06290618668095
    Total Energy =                       -231.0629061866807490
  Basis Set: CC-PVTZ
  Basis Set:
  Basis Set: CC-PVTZ
  Basis Set:
  @DF-RHF Final Energy:  -231.06668924441246
    Total Energy =                       -231.0666892444124016
  Basis Set: CC-PVTZ
  Basis Set:
  @DF-RHF Final Energy:  -231.06686315616207
    Total Energy =                       -231.0668631561621567
  @DF-RHF Final Energy:  -231.06745234777759
    Total Energy =                       -231.0674523477774471
  Basis Set: CC-PVTZ
  Basis Set:
  @DF-RHF Final Energy:  -231.06749895189992
    Total Energy =                       -231.0674989519000064
  Basis Set: CC-PVTZ
  Basis Set:
  Basis Set: CC-PVTZ
  Basis Set:
  @DF-RHF Final Energy:  -231.06754122901461
    Total Energy =                       -231.0675412290146937
  Basis Set: CC-PVTZ
  Basis Set:
  Basis Set: CC-PVTZ
  Basis Set:
  @DF-RHF Final Energy:  -231.06754531987403
    Total Energy =                       -231.0675453198740001
  Basis Set: CC-PVTZ
  Basis Set:
  Charge       = 0
  Multiplicity = 1
  Basis Set: CC-PVTZ
  Basis Set:

    Orbital Energies (a.u.)
    -----------------------

    Doubly Occupied:

       1A    -20.551809     2A    -11.320325     3A    -11.236980
       4A    -11.234224     5A    -11.223473     6A     -1.406230
       7A     -1.085367     8A     -0.974222     9A     -0.857756
      10A     -0.776940    11A     -0.683246    12A     -0.644376
      13A     -0.614233    14A     -0.605137    15A     -0.564745
      16A     -0.536146    17A     -0.512825    18A     -0.492040
      19A     -0.482411    20A     -0.410316

  @DF-RHF Final Energy:  -231.06754605021368

   => Energetics <=

    Nuclear Repulsion Energy =            174.1854855037854293
    One-Electron Energy =                -658.0804676544212271
    Two-Electron Energy =                 252.8274361004219202
    DFT Exchange-Correlation Energy =       0.0000000000000000
    Empirical Dispersion Energy =           0.0000000000000000
    PCM Polarization Energy =               0.0000000000000000
    EFP Energy =                            0.0000000000000000
    Total Energy =                       -231.0675460502138492
    Molecular point group: c1
  Basis Set: CC-PVTZ
  Basis Set:

  -Total Gradient:
     Atom            X                  Y                   Z
    ------   -----------------  -----------------  -----------------
       1        0.000000452227    -0.000034693869    -0.000032536541
       2       -0.000002811556     0.000033105899     0.000060270701
       3        0.002005637970     0.000176045802     0.005203694445
       4        0.000000839268    -0.000017959322    -0.000022301778
       5       -0.001329753532    -0.002705928705    -0.004641867943
       6       -0.001456358802     0.000289189326    -0.003633691350
       7        0.000004607518    -0.000003637894    -0.000015537510
       8        0.000000395445     0.000021415754    -0.000008499792
       9        0.000788622896     0.002238085600     0.003087014511
      10       -0.000006415783    -0.000004260165     0.000001115295
      11       -0.000001602099    -0.000004072048    -0.000014268083
      12       -0.000012563517     0.000005724397     0.000011695491
      13        0.000008949967     0.000006985228     0.000004912553

  **** Optimization is complete! (in 10 steps) ****
    Final optimized geometry and variables:
    Molecular point group: c1

    Geometry (in Angstrom), charge = 0, multiplicity = 1:

    H            0.888222707381    -1.130862154280    -0.955124717519
    C            0.793297517345    -0.048090205544    -0.816808026728
    C            0.613413949721     0.426938001407     0.602635332180
    O            0.833829587879     0.670294206708    -1.756099710654
    C           -0.807794543347     0.186630250054     1.143866910945
    H            0.828434322139     1.486924868843     0.599806199767
    H            1.338648561718    -0.088592736507     1.225188728786
    C           -1.389470161656    -1.199611769275     0.882059089487
    H           -1.464235737503     0.954429544950     0.750613137916
    H           -0.777396821215     0.356285882144     2.214912493071
    H           -1.550982917999    -1.381100022726    -0.174109332411
    H           -2.346441702127    -1.304173728456     1.378200166077
    H           -0.736747097822    -1.980445528366     1.258853872259

  Mulliken Charges: (a.u.)
   Center  Symbol    Alpha    Beta     Spin     Total
       1     H     0.46144  0.46144  0.00000  0.07712
       2     C     2.90593  2.90593  0.00000  0.18813
       3     C     3.09144  3.09144  0.00000 -0.18287
       4     O     4.16577  4.16577  0.00000 -0.33155
       5     C     3.09104  3.09104  0.00000 -0.18207
       6     H     0.43941  0.43941  0.00000  0.12118
       7     H     0.44925  0.44925  0.00000  0.10150
       8     C     3.15685  3.15685  0.00000 -0.31371
       9     H     0.44500  0.44500  0.00000  0.11000
      10     H     0.44880  0.44880  0.00000  0.10240
      11     H     0.44994  0.44994  0.00000  0.10012
      12     H     0.44279  0.44279  0.00000  0.11441
      13     H     0.45233  0.45233  0.00000  0.09534

   Total alpha = 20.00000, Total beta = 20.00000, Total charge = -0.00000

*** Psi4 exiting successfully. Buy a developer a beer!
