  ==> Input File <==

--------------------------------------------------------------------------
set {
	reference rhf
	basis cc-pvtz
}

set_num_threads( 4 )
memory 2 gb

molecule MOL {
0 1

H	 -1.835082	 1.385983	 0.000069
C	 -1.300516	 0.441153	 -0.000028
O	 -0.006604	 0.654344	 -0.000106
O	 -1.828920	 -0.612308	 0.000113
C	 0.852093	 -0.482521	 -0.000161
C	 1.155662	 -0.831002	 -1.437905
H	 0.355851	 -1.295032	 0.511236
H	 1.750366	 -0.241760	 0.550387
H	 0.247156	 -1.065910	 -1.977725
H	 1.808948	 -1.694612	 -1.473243
H	 1.648661	 -0.007329	 -1.938390

	symmetry c1
}
set optking {
	frozen_dihedral = ("
		7 5 3 2
	")
}

ee = optimize('scf')
oeprop('DIPOLE', 'QUADRUPOLE', 'MULLIKEN_CHARGES')
f=open( 'psi4out.xyz', 'w' )
f.write( "11  " )
f.write( str(ee) + "\n" )
f.write( MOL.save_string_xyz() )
f.close()
--------------------------------------------------------------------------

    Molecular point group: c1
  Charge       = 0
  Multiplicity = 1
  Basis Set: CC-PVTZ
  Basis Set:
  @DF-RHF Final Energy:  -266.92951348346031
    Total Energy =                       -266.9295134834601413
    Molecular point group: c1
  Basis Set: CC-PVTZ
  Basis Set:
  Basis Set: CC-PVTZ
  Basis Set:
  @DF-RHF Final Energy:  -266.93010666752309
    Total Energy =                       -266.9301066675232050
  Basis Set: CC-PVTZ
  Basis Set:
  Basis Set: CC-PVTZ
  Basis Set:
  @DF-RHF Final Energy:  -266.92236314461070
    Total Energy =                       -266.9223631446106424
  Basis Set: CC-PVTZ
  Basis Set:
  Basis Set: CC-PVTZ
  Basis Set:
  @DF-RHF Final Energy:  -266.93056325064958
    Total Energy =                       -266.9305632506494703
  Basis Set: CC-PVTZ
  Basis Set:
  Basis Set: CC-PVTZ
  Basis Set:
  @DF-RHF Final Energy:  -266.93074581269377
    Total Energy =                       -266.9307458126937718
  Basis Set: CC-PVTZ
  Basis Set:
  Basis Set: CC-PVTZ
  Basis Set:
  @DF-RHF Final Energy:  -266.93075112155611
    Total Energy =                       -266.9307511215562840
  Basis Set: CC-PVTZ
  Basis Set:
  Charge       = 0
  Multiplicity = 1
  Basis Set: CC-PVTZ
  Basis Set:

    Orbital Energies (a.u.)
    -----------------------

    Doubly Occupied:

       1A    -20.604953     2A    -20.545383     3A    -11.371150
       4A    -11.289349     5A    -11.222641     6A     -1.478150
       7A     -1.377456     8A     -1.050258     9A     -0.911968
      10A     -0.797629    11A     -0.748978    12A     -0.687758
      13A     -0.658016    14A     -0.624721    15A     -0.576028
      16A     -0.543048    17A     -0.540035    18A     -0.502119
      19A     -0.461434    20A     -0.457308

  @DF-RHF Final Energy:  -266.93075166867720

   => Energetics <=

    Nuclear Repulsion Energy =            181.8170270717236292
    One-Electron Energy =                -724.5987967537638497
    Two-Electron Energy =                 275.8510180133632161
    DFT Exchange-Correlation Energy =       0.0000000000000000
    Empirical Dispersion Energy =           0.0000000000000000
    PCM Polarization Energy =               0.0000000000000000
    EFP Energy =                            0.0000000000000000
    Total Energy =                       -266.9307516686770327
    Molecular point group: c1
  Basis Set: CC-PVTZ
  Basis Set:

  -Total Gradient:
     Atom            X                  Y                   Z
    ------   -----------------  -----------------  -----------------
       1       -0.000027090612     0.000002037525    -0.000007673576
       2        0.000006538521    -0.000009316584     0.000799931844
       3       -0.000117513303    -0.000055705237    -0.001308796542
       4        0.000012807506     0.000017070343    -0.000008892919
       5        0.000472554789     0.000293159418     0.001284177384
       6        0.000009153123     0.000000860079     0.000006001892
       7       -0.000366149808    -0.000232625753    -0.000754191320
       8        0.000003002832    -0.000008673937    -0.000002988910
       9        0.000003613689     0.000002160877     0.000006790682
      10        0.000003964403    -0.000007231046    -0.000010967013
      11       -0.000000881137    -0.000001735687    -0.000003391521

  **** Optimization is complete! (in 7 steps) ****
    Final optimized geometry and variables:
    Molecular point group: c1

    Geometry (in Angstrom), charge = 0, multiplicity = 1:

    H           -1.585385364681     1.590199924421     0.372917740705
    C           -1.078501707302     0.631555450338     0.322524407054
    O            0.220453866583     0.814065078425     0.304726233217
    O           -1.640612887280    -0.404038496960     0.289548947436
    C            1.076779410090    -0.326099539152     0.264846670168
    C            1.430232341091    -0.688332878641    -1.162161316413
    H            0.592864530456    -1.150156334373     0.763926429725
    H            1.954103250148    -0.035563529439     0.822259151642
    H            0.547611912630    -0.985375964857    -1.713356255967
    H            2.128127560919    -1.517757412657    -1.165355609190
    H            1.892607987601     0.150084378506    -1.668040921629

  Mulliken Charges: (a.u.)
   Center  Symbol    Alpha    Beta     Spin     Total
       1     H     0.44742  0.44742  0.00000  0.10516
       2     C     2.84168  2.84168  0.00000  0.31665
       3     O     4.14942  4.14942  0.00000 -0.29884
       4     O     4.19727  4.19727  0.00000 -0.39454
       5     C     2.98122  2.98122  0.00000  0.03756
       6     C     3.14278  3.14278  0.00000 -0.28556
       7     H     0.44761  0.44761  0.00000  0.10478
       8     H     0.44480  0.44480  0.00000  0.11040
       9     H     0.44479  0.44479  0.00000  0.11042
      10     H     0.45190  0.45190  0.00000  0.09620
      11     H     0.45111  0.45111  0.00000  0.09779

   Total alpha = 20.00000, Total beta = 20.00000, Total charge = -0.00000
