  ==> Input File <==

--------------------------------------------------------------------------
set {
	reference rhf
	basis cc-pvtz
}

set_num_threads( 4 )
memory 2 gb

molecule MOL {
0 1

H	 -2.050283	 0.697423	 0.746323
N	 -1.851927	 0.161443	 -0.071573
C	 -0.561396	 -0.500007	 0.035200
H	 -1.866970	 0.790571	 -0.847013
C	 0.575129	 0.507849	 -0.048832
H	 -0.478089	 -1.200753	 -0.788956
H	 -0.456191	 -1.081816	 0.952176
C	 1.951750	 -0.141983	 0.035101
H	 0.478254	 1.061643	 -0.975981
H	 0.467676	 1.231891	 0.755499
H	 2.101550	 -0.848142	 -0.774949
H	 2.738260	 0.600794	 -0.026526
H	 2.078939	 -0.679792	 0.968824

	symmetry c1
}
set optking {
	frozen_dihedral = ("
		1 2 3 6
	")
}

ee = optimize('scf')
oeprop('DIPOLE', 'QUADRUPOLE', 'MULLIKEN_CHARGES')
f=open( 'psi4out.xyz', 'w' )
f.write( "13  " )
f.write( str(ee) + "\n" )
f.write( MOL.save_string_xyz() )
f.close()
--------------------------------------------------------------------------

    Molecular point group: c1
  Charge       = 0
  Multiplicity = 1
  Basis Set: CC-PVTZ
  Basis Set:
  @DF-RHF Final Energy:  -173.35034394104946
    Total Energy =                       -173.3503439410494877
    Molecular point group: c1
  Basis Set: CC-PVTZ
  Basis Set:
  Basis Set: CC-PVTZ
  Basis Set:
  @DF-RHF Final Energy:  -173.35222157080440
    Total Energy =                       -173.3522215708043746
  Basis Set: CC-PVTZ
  Basis Set:
  Basis Set: CC-PVTZ
  Basis Set:
  @DF-RHF Final Energy:  -173.35243793771835
    Total Energy =                       -173.3524379377184061
  Basis Set: CC-PVTZ
  Basis Set:
  Basis Set: CC-PVTZ
  Basis Set:
  @DF-RHF Final Energy:  -173.35244199699008
    Total Energy =                       -173.3524419969901373
  Basis Set: CC-PVTZ
  Basis Set:
  Charge       = 0
  Multiplicity = 1
  Basis Set: CC-PVTZ
  Basis Set:

    Orbital Energies (a.u.)
    -----------------------

    Doubly Occupied:

       1A    -15.526384     2A    -11.238420     3A    -11.213600
       4A    -11.209565     5A     -1.178669     6A     -1.037694
       7A     -0.899938     8A     -0.807167     9A     -0.678568
      10A     -0.608799    11A     -0.606264    12A     -0.562911
      13A     -0.523124    14A     -0.516323    15A     -0.486839
      16A     -0.470594    17A     -0.379678

  @DF-RHF Final Energy:  -173.35244236955393

   => Energetics <=

    Nuclear Repulsion Energy =            131.8257232528315797
    One-Electron Energy =                -494.4672547128866427
    Two-Electron Energy =                 189.2890890905013066
    DFT Exchange-Correlation Energy =       0.0000000000000000
    Empirical Dispersion Energy =           0.0000000000000000
    PCM Polarization Energy =               0.0000000000000000
    EFP Energy =                            0.0000000000000000
    Total Energy =                       -173.3524423695537280
    Molecular point group: c1
  Basis Set: CC-PVTZ
  Basis Set:

  -Total Gradient:
     Atom            X                  Y                   Z
    ------   -----------------  -----------------  -----------------
       1       -0.000398289632    -0.000849952666     0.000479262557
       2        0.000416110136     0.000908899431    -0.000508929310
       3        0.000341211425     0.000665463608    -0.000593976778
       4        0.000017320269    -0.000012877389     0.000025520110
       5       -0.000097820601    -0.000039746265     0.000017952322
       6       -0.000343456066    -0.000674104249     0.000576056308
       7        0.000006412768    -0.000006691155     0.000017994203
       8        0.000026157743     0.000011830322    -0.000025036412
       9        0.000009770865    -0.000005616081     0.000021645982
      10       -0.000003712151     0.000002460225    -0.000006503738
      11       -0.000000226847    -0.000001586191     0.000010294161
      12        0.000036909386    -0.000010590069    -0.000002058344
      13       -0.000010387295     0.000012510476    -0.000012221061

  **** Optimization is complete! (in 5 steps) ****
    Final optimized geometry and variables:
    Molecular point group: c1

    Geometry (in Angstrom), charge = 0, multiplicity = 1:

    H           -2.094229361028     0.657623663651     0.763453973129
    N           -1.898111892748     0.103920696826    -0.043312276250
    C           -0.570991969376    -0.480310862508     0.029749662682
    H           -1.993820044226     0.692074537623    -0.844168329919
    C            0.592138394480     0.505958744598    -0.034327045455
    H           -0.477261641500    -1.205917916517    -0.772115785470
    H           -0.511049079458    -1.048009685547     0.952821908886
    C            1.954212945746    -0.175401700061     0.045369672710
    H            0.523461411093     1.075308021838    -0.958073307508
    H            0.493853857717     1.223727522554     0.776151010639
    H            2.089014670250    -0.877865875017    -0.770410377409
    H            2.759654815494     0.547697377141    -0.005798475543
    H            2.063141240535    -0.725455152241     0.974228512439

  Mulliken Charges: (a.u.)
   Center  Symbol    Alpha    Beta     Spin     Total
       1     H     0.43146  0.43146  0.00000  0.13708
       2     N     3.68997  3.68997  0.00000 -0.37994
       3     C     3.02838  3.02838  0.00000 -0.05676
       4     H     0.43166  0.43166  0.00000  0.13667
       5     C     3.08075  3.08075  0.00000 -0.16150
       6     H     0.45379  0.45379  0.00000  0.09243
       7     H     0.45447  0.45447  0.00000  0.09105
       8     C     3.15222  3.15222  0.00000 -0.30444
       9     H     0.45978  0.45978  0.00000  0.08043
      10     H     0.45967  0.45967  0.00000  0.08066
      11     H     0.45486  0.45486  0.00000  0.09027
      12     H     0.44797  0.44797  0.00000  0.10405
      13     H     0.45500  0.45500  0.00000  0.08999

   Total alpha = 17.00000, Total beta = 17.00000, Total charge = -0.00000
