  ==> Input File <==

--------------------------------------------------------------------------
set {
	reference rhf
	basis 6-31G*
}

set_num_threads( 4 )
memory 2 gb

molecule MOL {
0 1

H	 2.506245	 2.314633	 -1.744492
O	 1.566291	 2.240076	 -1.831300
C	 1.061824	 1.383609	 -0.916767
C	 1.862786	 0.724974	 0.007334
C	 -0.305913	 1.172184	 -0.921907
H	 2.926973	 0.890921	 0.009632
C	 1.296119	 -0.143811	 0.924815
H	 -0.925731	 1.680289	 -1.635161
C	 -0.865228	 0.300799	 0.000000
H	 1.926131	 -0.647773	 1.635086
C	 -0.069869	 -0.361076	 0.926875
C	 -2.333960	 0.069074	 0.000000
H	 -0.512136	 -1.035473	 1.638629
O	 -2.847347	 -1.003763	 0.000000
H	 -2.943845	 0.977528	 0.000000

	symmetry c1
}
set optking {
	frozen_dihedral = ("
		11 9 12 14
	")
}

ee = optimize('scf')
oeprop('DIPOLE', 'QUADRUPOLE', 'MULLIKEN_CHARGES')
f=open( 'psi4out.xyz', 'w' )
f.write( "15  " )
f.write( str(ee) + "\n" )
f.write( MOL.save_string_xyz() )
f.close()
--------------------------------------------------------------------------

    Molecular point group: c1
  Charge       = 0
  Multiplicity = 1
  Basis Set: 6-31G*
  Basis Set:
  @DF-RHF Final Energy:  -418.27899098461859
    Total Energy =                       -418.2789909846184173
    Molecular point group: c1
  Basis Set: 6-31G*
  Basis Set:
  Basis Set: 6-31G*
  Basis Set:
  @DF-RHF Final Energy:  -418.27780626112752
    Total Energy =                       -418.2778062611271253
  Basis Set: 6-31G*
  Basis Set:
  Basis Set: 6-31G*
  Basis Set:
  @DF-RHF Final Energy:  -418.27937606153023
    Total Energy =                       -418.2793760615301153
  Basis Set: 6-31G*
  Basis Set:
  Basis Set: 6-31G*
  Basis Set:
  @DF-RHF Final Energy:  -418.27967500812707
    Total Energy =                       -418.2796750081267874
  Basis Set: 6-31G*
  Basis Set:
  Basis Set: 6-31G*
  Basis Set:
  @DF-RHF Final Energy:  -418.27967727668698
    Total Energy =                       -418.2796772766869253
  Basis Set: 6-31G*
  Basis Set:
  Charge       = 0
  Multiplicity = 1
  Basis Set: 6-31G*
  Basis Set:

    Orbital Energies (a.u.)
    -----------------------

    Doubly Occupied:

       1A    -20.604119     2A    -20.569229     3A    -11.334660
       4A    -11.314545     5A    -11.255107     6A    -11.251445
       7A    -11.245672     8A    -11.243501     9A    -11.239676
      10A     -1.423681    11A     -1.408774    12A     -1.168786
      13A     -1.049846    14A     -1.024066    15A     -0.900400
      16A     -0.844122    17A     -0.815273    18A     -0.738359
      19A     -0.700396    20A     -0.671908    21A     -0.666565
      22A     -0.632142    23A     -0.613170    24A     -0.602497
      25A     -0.581387    26A     -0.540826    27A     -0.537253
      28A     -0.514484    29A     -0.488788    30A     -0.423665
      31A     -0.354512    32A     -0.324285

  @DF-RHF Final Energy:  -418.27967777220209

   => Energetics <=

    Nuclear Repulsion Energy =            401.9327148232329705
    One-Electron Energy =               -1366.2585074327332677
    Two-Electron Energy =                 546.0461148372983189
    DFT Exchange-Correlation Energy =       0.0000000000000000
    Empirical Dispersion Energy =           0.0000000000000000
    PCM Polarization Energy =               0.0000000000000000
    EFP Energy =                            0.0000000000000000
    Total Energy =                       -418.2796777722019215
    Molecular point group: c1
  Basis Set: 6-31G*
  Basis Set:

  -Total Gradient:
     Atom            X                  Y                   Z
    ------   -----------------  -----------------  -----------------
       1       -0.000000457072    -0.000000647153     0.000000630896
       2        0.000008657283    -0.000009849001     0.000013895220
       3       -0.000110049142     0.000023988454    -0.000038730468
       4        0.000012512649    -0.000071613141     0.000082165007
       5        0.000061372394     0.000024531159    -0.000025772741
       6       -0.000001592918     0.000008377893    -0.000000142951
       7        0.000102956496     0.000046862282    -0.000071074592
       8        0.000003335381    -0.000000493097    -0.000001015708
       9        0.000731487623    -0.006787230509    -0.008270624290
      10       -0.000004969116    -0.000000420979     0.000005905702
      11       -0.000625272821     0.004546430007     0.003518731316
      12       -0.000170976207     0.002448820726     0.011837285494
      13       -0.000002156499     0.000000870426    -0.000000083846
      14       -0.000038578877    -0.000233702277    -0.007045279946
      15        0.000033730831     0.000004075203    -0.000005889090

  **** Optimization is complete! (in 6 steps) ****
    Final optimized geometry and variables:
    Molecular point group: c1

    Geometry (in Angstrom), charge = 0, multiplicity = 1:

    H            2.577188900997     1.814076778341    -1.521562299364
    O            1.636229594999     1.738905752218    -1.597802528169
    C            1.145917562337     0.875081018741    -0.682605868002
    C            1.950439831181     0.224075919024     0.238879191955
    C           -0.224787919649     0.662379013293    -0.676810915799
    H            3.012822463393     0.400394291116     0.245814733770
    C            1.383347183394    -0.646620322916     1.157323044713
    H           -0.835435544114     1.196237647896    -1.382793388092
    C           -0.775514937010    -0.238591558841     0.218223223427
    H            2.014065964044    -1.137207345391     1.876443670904
    C            0.022392970483    -0.885061443946     1.155300002671
    C           -2.256947691166    -0.426672548000     0.239608064386
    H           -0.420499903428    -1.567706933213     1.855921089180
    O           -2.790775997406    -1.487631622052     0.282337389984
    H           -2.846832602297     0.490654126474     0.158286540671

  Mulliken Charges: (a.u.)
   Center  Symbol    Alpha    Beta     Spin     Total
       1     H     0.27004  0.27004  0.00000  0.45991
       2     O     4.37700  4.37700  0.00000 -0.75400
       3     C     2.79288  2.79288  0.00000  0.41425
       4     C     3.13874  3.13874  0.00000 -0.27748
       5     C     3.12993  3.12993  0.00000 -0.25986
       6     H     0.39985  0.39985  0.00000  0.20030
       7     C     3.09173  3.09173  0.00000 -0.18346
       8     H     0.38565  0.38565  0.00000  0.22870
       9     C     3.02824  3.02824  0.00000 -0.05648
      10     H     0.39293  0.39293  0.00000  0.21415
      11     C     3.10900  3.10900  0.00000 -0.21801
      12     C     2.84542  2.84542  0.00000  0.30917
      13     H     0.38522  0.38522  0.00000  0.22956
      14     O     4.23211  4.23211  0.00000 -0.46422
      15     H     0.42126  0.42126  0.00000  0.15748

   Total alpha = 32.00000, Total beta = 32.00000, Total charge = -0.00000
