  ==> Input File <==

--------------------------------------------------------------------------
set {
	reference rhf
	basis 6-31G*
}

set_num_threads( 4 )
memory 2 gb

molecule MOL {
0 1

H	 1.444142	 -1.987024	 -2.234712
O	 1.170125	 -1.809243	 -1.340231
C	 0.179993	 -0.918359	 -1.380153
C	 -0.318135	 -0.576402	 0.000164
O	 -0.229526	 -0.473517	 -2.402604
C	 -1.454360	 0.441875	 -0.000474
H	 -0.621751	 -1.505724	 0.474697
H	 0.533129	 -0.216904	 0.572103
C	 -2.826123	 -0.230780	 0.000056
H	 -1.357605	 1.085198	 -0.868380
H	 -1.357504	 1.086451	 0.866496
H	 -2.959731	 -0.858053	 -0.876869
H	 -3.619374	 0.509403	 -0.000080
H	 -2.959371	 -0.857318	 0.877556

	symmetry c1
}
set optking {
	frozen_dihedral = ("
		7 4 6 10
	")
}

ee = optimize('scf')
oeprop('DIPOLE', 'QUADRUPOLE', 'MULLIKEN_CHARGES')
f=open( 'psi4out.xyz', 'w' )
f.write( "14  " )
f.write( str(ee) + "\n" )
f.write( MOL.save_string_xyz() )
f.close()
--------------------------------------------------------------------------

    Molecular point group: c1
  Charge       = 0
  Multiplicity = 1
  Basis Set: 6-31G*
  Basis Set:
  @DF-RHF Final Energy:  -305.87818727697481
    Total Energy =                       -305.8781872769749270
    Molecular point group: c1
  Basis Set: 6-31G*
  Basis Set:
  Basis Set: 6-31G*
  Basis Set:
  @DF-RHF Final Energy:  -305.87854038907886
    Total Energy =                       -305.8785403890788075
  Basis Set: 6-31G*
  Basis Set:
  Basis Set: 6-31G*
  Basis Set:
  @DF-RHF Final Energy:  -305.87860232416369
    Total Energy =                       -305.8786023241635803
  Basis Set: 6-31G*
  Basis Set:
  Basis Set: 6-31G*
  Basis Set:
  @DF-RHF Final Energy:  -305.87858603831228
    Total Energy =                       -305.8785860383119939
  Basis Set: 6-31G*
  Basis Set:
  Basis Set: 6-31G*
  Basis Set:
  @DF-RHF Final Energy:  -305.87860399903417
    Total Energy =                       -305.8786039990342260
  Basis Set: 6-31G*
  Basis Set:
  Basis Set: 6-31G*
  Basis Set:
  @DF-RHF Final Energy:  -305.87861082493947
    Total Energy =                       -305.8786108249395284
  Basis Set: 6-31G*
  Basis Set:
  Basis Set: 6-31G*
  Basis Set:
  @DF-RHF Final Energy:  -305.87861202230977
    Total Energy =                       -305.8786120223096532
  Basis Set: 6-31G*
  Basis Set:
  Charge       = 0
  Multiplicity = 1
  Basis Set: 6-31G*
  Basis Set:

    Orbital Energies (a.u.)
    -----------------------

    Doubly Occupied:

       1A    -20.613730     2A    -20.553127     3A    -11.382435
       4A    -11.241411     5A    -11.224513     6A    -11.212294
       7A     -1.476009     8A     -1.366937     9A     -1.080837
      10A     -0.976744    11A     -0.858778    12A     -0.788332
      13A     -0.702010    14A     -0.693224    15A     -0.658573
      16A     -0.610984    17A     -0.597525    18A     -0.564122
      19A     -0.558740    20A     -0.493099    21A     -0.489305
      22A     -0.486118    23A     -0.477066    24A     -0.445352

  @DF-RHF Final Energy:  -305.87861236409753

   => Energetics <=

    Nuclear Repulsion Energy =            243.3140416949391067
    One-Electron Energy =                -899.2827778834587207
    Two-Electron Energy =                 350.0901238244219940
    DFT Exchange-Correlation Energy =       0.0000000000000000
    Empirical Dispersion Energy =           0.0000000000000000
    PCM Polarization Energy =               0.0000000000000000
    EFP Energy =                            0.0000000000000000
    Total Energy =                       -305.8786123640976484
    Molecular point group: c1
  Basis Set: 6-31G*
  Basis Set:

  -Total Gradient:
     Atom            X                  Y                   Z
    ------   -----------------  -----------------  -----------------
       1        0.000007810759    -0.000004716927    -0.000005819062
       2       -0.000026406634    -0.000004746197    -0.000010128302
       3       -0.000012424974     0.000017727721    -0.000005041422
       4        0.001001986985     0.001122033692     0.003817042124
       5        0.000040504676    -0.000008208759    -0.000001845220
       6        0.002274336739     0.002618077598     0.001572903349
       7       -0.001187665075    -0.001330575864    -0.003378461246
       8        0.000006264418     0.000010362608    -0.000009178424
       9       -0.000002721474     0.000001189957     0.000018059661
      10       -0.002102840307    -0.002409868811    -0.002011322745
      11        0.000000840509     0.000000418254     0.000013701452
      12       -0.000002657478     0.000001432566    -0.000006100392
      13        0.000005838674    -0.000005728196    -0.000000746377
      14       -0.000002866823    -0.000007397639     0.000006936605

  **** Optimization is complete! (in 8 steps) ****
    Final optimized geometry and variables:
    Molecular point group: c1

    Geometry (in Angstrom), charge = 0, multiplicity = 1:

    H            1.979797384381    -1.378973674100    -1.358953309669
    O            1.730566481664    -1.177748212475    -0.462194833288
    C            0.728213816582    -0.300671313138    -0.497789626625
    C            0.267796543983     0.068056180871     0.892277006768
    O            0.282786013445     0.106147762631    -1.521378180688
    C           -0.888129749389     1.073987325554     0.903553451323
    H           -0.018067999074    -0.868712651037     1.362923335244
    H            1.136970928220     0.433067879134     1.429565126158
    C           -2.258582717428     0.395992506626     0.858741500306
    H           -0.801717929448     1.719968133123     0.038826275924
    H           -0.816036119598     1.692775945369     1.791910943305
    H           -2.358896220637    -0.213848778519    -0.033506147487
    H           -3.055004368545     1.132982355085     0.845630175016
    H           -2.412369297785    -0.243271929857     1.723909044350

  Mulliken Charges: (a.u.)
   Center  Symbol    Alpha    Beta     Spin     Total
       1     H     0.26763  0.26763  0.00000  0.46473
       2     O     4.35020  4.35020  0.00000 -0.70040
       3     C     2.62716  2.62716  0.00000  0.74568
       4     C     3.21027  3.21027  0.00000 -0.42054
       5     O     4.27957  4.27957  0.00000 -0.55915
       6     C     3.15851  3.15851  0.00000 -0.31702
       7     H     0.39770  0.39770  0.00000  0.20459
       8     H     0.39531  0.39531  0.00000  0.20938
       9     C     3.24378  3.24378  0.00000 -0.48756
      10     H     0.40022  0.40022  0.00000  0.19957
      11     H     0.41703  0.41703  0.00000  0.16594
      12     H     0.41274  0.41274  0.00000  0.17453
      13     H     0.41660  0.41660  0.00000  0.16680
      14     H     0.42329  0.42329  0.00000  0.15342

   Total alpha = 24.00000, Total beta = 24.00000, Total charge = -0.00000
