  ==> Input File <==

--------------------------------------------------------------------------
set {
	reference rhf
	basis 6-31G*
}

set_num_threads( 4 )
memory 2 gb

molecule MOL {
0 1

H	 -0.989459	 -1.006094	 -0.801639
N	 -1.172117	 -0.314371	 -0.100254
C	 -0.024542	 0.565565	 0.069209
H	 -1.971267	 0.206839	 -0.408115
C	 1.271298	 -0.229563	 -0.014192
H	 -0.049409	 1.297310	 -0.731596
H	 -0.046881	 1.125219	 1.006750
H	 1.332152	 -0.753033	 -0.961461
H	 2.134169	 0.422483	 0.080702
H	 1.326077	 -0.968298	 0.781395

	symmetry c1
}
set optking {
	frozen_dihedral = ("
		1 2 3 6
	")
}

ee = optimize('scf')
oeprop('DIPOLE', 'QUADRUPOLE', 'MULLIKEN_CHARGES')
f=open( 'psi4out.xyz', 'w' )
f.write( "10  " )
f.write( str(ee) + "\n" )
f.write( MOL.save_string_xyz() )
f.close()
--------------------------------------------------------------------------

    Molecular point group: c1
  Charge       = 0
  Multiplicity = 1
  Basis Set: 6-31G*
  Basis Set:
  @DF-RHF Final Energy:  -134.24418812299388
    Total Energy =                       -134.2441881229939611
    Molecular point group: c1
  Basis Set: 6-31G*
  Basis Set:
  Basis Set: 6-31G*
  Basis Set:
  @DF-RHF Final Energy:  -134.24627676535306
    Total Energy =                       -134.2462767653531159
  Basis Set: 6-31G*
  Basis Set:
  Basis Set: 6-31G*
  Basis Set:
  @DF-RHF Final Energy:  -134.24653335190456
    Total Energy =                       -134.2465333519046169
  Basis Set: 6-31G*
  Basis Set:
  Basis Set: 6-31G*
  Basis Set:
  @DF-RHF Final Energy:  -134.24653847897858
    Total Energy =                       -134.2465384789785503
  Basis Set: 6-31G*
  Basis Set:
  Charge       = 0
  Multiplicity = 1
  Basis Set: 6-31G*
  Basis Set:

    Orbital Energies (a.u.)
    -----------------------

    Doubly Occupied:

       1A    -15.530957     2A    -11.242137     3A    -11.210521
       4A     -1.174941     5A     -0.988522     6A     -0.826709
       7A     -0.659250     8A     -0.629750     9A     -0.587762
      10A     -0.519335    11A     -0.503245    12A     -0.493936
      13A     -0.378077

  @DF-RHF Final Energy:  -134.24653898075420

   => Energetics <=

    Nuclear Repulsion Energy =             83.4151964512564348
    One-Electron Energy =                -345.8331870374820483
    Two-Electron Energy =                 128.1714516054715318
    DFT Exchange-Correlation Energy =       0.0000000000000000
    Empirical Dispersion Energy =           0.0000000000000000
    PCM Polarization Energy =               0.0000000000000000
    EFP Energy =                            0.0000000000000000
    Total Energy =                       -134.2465389807541101
    Molecular point group: c1
  Basis Set: 6-31G*
  Basis Set:

  -Total Gradient:
     Atom            X                  Y                   Z
    ------   -----------------  -----------------  -----------------
       1        0.001263091840    -0.001856605762     0.002125248168
       2       -0.002060019956     0.002840105531    -0.002140376306
       3        0.002332288406    -0.002772961186    -0.001735083624
       4       -0.000007784837    -0.000005610157    -0.000006582620
       5       -0.000022565465     0.000032588875     0.000035277725
       6       -0.001519784678     0.001743486749     0.001712454844
       7        0.000013974649    -0.000003140565     0.000017513654
       8       -0.000015282370     0.000018485393     0.000011701548
       9        0.000026404183    -0.000004624534    -0.000004846597
      10       -0.000010321771     0.000008275656    -0.000015306792

  **** Optimization is complete! (in 5 steps) ****
    Final optimized geometry and variables:
    Molecular point group: c1

    Geometry (in Angstrom), charge = 0, multiplicity = 1:

    H           -1.037288922895    -1.011775497550    -0.743162389230
    N           -1.179805153463    -0.314698114518    -0.038526733483
    C           -0.027655830997     0.569091179886     0.064626668111
    H           -2.014455444754     0.188089303925    -0.265683261631
    C            1.267771081780    -0.228575974358     0.033360252107
    H           -0.010811920020     1.340229096220    -0.707961093762
    H           -0.096712350635     1.096425814986     1.011611809342
    H            1.391257528116    -0.737340686857    -0.919488421686
    H            2.126024018268     0.420051580004     0.175438341341
    H            1.268773303405    -0.977609995261     0.817835473060

  Mulliken Charges: (a.u.)
   Center  Symbol    Alpha    Beta     Spin     Total
       1     H     0.33467  0.33467  0.00000  0.33067
       2     N     3.92358  3.92358  0.00000 -0.84717
       3     C     3.05553  3.05553  0.00000 -0.11106
       4     H     0.33200  0.33200  0.00000  0.33600
       5     C     3.24633  3.24633  0.00000 -0.49267
       6     H     0.43391  0.43391  0.00000  0.13219
       7     H     0.41953  0.41953  0.00000  0.16094
       8     H     0.42468  0.42468  0.00000  0.15063
       9     H     0.41853  0.41853  0.00000  0.16294
      10     H     0.41124  0.41124  0.00000  0.17753

   Total alpha = 13.00000, Total beta = 13.00000, Total charge =  0.00000
