  ==> Input File <==

--------------------------------------------------------------------------
set {
	reference rhf
	basis 6-31G*
}

set_num_threads( 4 )
memory 2 gb

molecule MOL {
0 1

O	 0.516020	 0.365905	 2.129833
C	 0.162985	 0.730038	 1.040119
C	 -0.847083	 1.853917	 0.903208
N	 0.623947	 0.147590	 -0.102813
H	 -1.737008	 1.526602	 0.376918
H	 -1.119724	 2.165730	 1.899946
H	 -0.431555	 2.700632	 0.367493
C	 1.665360	 -0.855771	 0.000151
C	 0.410725	 0.684985	 -1.428705
H	 2.465253	 -0.618490	 -0.692587
H	 1.257730	 -1.821716	 -0.242189
H	 2.081488	 -0.891645	 1.004627
H	 0.356719	 -0.132463	 -2.137860
H	 -0.516329	 1.232374	 -1.490914
H	 1.222011	 1.342425	 -1.735952

	symmetry c1
}
set optking {
	frozen_dihedral = ("
		2 4 8 10
	")
}

ee = optimize('scf')
oeprop('DIPOLE', 'QUADRUPOLE', 'MULLIKEN_CHARGES')
f=open( 'psi4out.xyz', 'w' )
f.write( "15  " )
f.write( str(ee) + "\n" )
f.write( MOL.save_string_xyz() )
f.close()
--------------------------------------------------------------------------

    Molecular point group: c1
  Charge       = 0
  Multiplicity = 1
  Basis Set: 6-31G*
  Basis Set:
  @DF-RHF Final Energy:  -286.02846088165450
    Total Energy =                       -286.0284608816544960
    Molecular point group: c1
  Basis Set: 6-31G*
  Basis Set:
  Basis Set: 6-31G*
  Basis Set:
  @DF-RHF Final Energy:  -286.02913028201885
    Total Energy =                       -286.0291302820188548
  Basis Set: 6-31G*
  Basis Set:
  Basis Set: 6-31G*
  Basis Set:
  @DF-RHF Final Energy:  -286.02922407796223
    Total Energy =                       -286.0292240779625104
  Basis Set: 6-31G*
  Basis Set:
  Basis Set: 6-31G*
  Basis Set:
  @DF-RHF Final Energy:  -286.02938123681741
    Total Energy =                       -286.0293812368174713
  Basis Set: 6-31G*
  Basis Set:
  @DF-RHF Final Energy:  -286.02948928562330
    Total Energy =                       -286.0294892856232423
  @DF-RHF Final Energy:  -286.02952391992699
    Total Energy =                       -286.0295239199268735
  @DF-RHF Final Energy:  -286.02954821440125
    Total Energy =                       -286.0295482144013022
  @DF-RHF Final Energy:  -286.02958480514053
    Total Energy =                       -286.0295848051405869
  @DF-RHF Final Energy:  -286.02964696342224
    Total Energy =                       -286.0296469634222376
  @DF-RHF Final Energy:  -286.02970912700482
    Total Energy =                       -286.0297091270050487
  @DF-RHF Final Energy:  -286.02972681972994
    Total Energy =                       -286.0297268197298877
  @DF-RHF Final Energy:  -286.02973352247056
    Total Energy =                       -286.0297335224706217
  @DF-RHF Final Energy:  -286.02973701468579
    Total Energy =                       -286.0297370146859066
  @DF-RHF Final Energy:  -286.02974005327519
    Total Energy =                       -286.0297400532750771
  @DF-RHF Final Energy:  -286.02974811486672
    Total Energy =                       -286.0297481148668339
  Basis Set: 6-31G*
  Basis Set:
  @DF-RHF Final Energy:  -286.02975516651622
    Total Energy =                       -286.0297551665161109
  Basis Set: 6-31G*
  Basis Set:
  Basis Set: 6-31G*
  Basis Set:
  @DF-RHF Final Energy:  -286.02976703150011
    Total Energy =                       -286.0297670315001710
  Basis Set: 6-31G*
  Basis Set:
  Basis Set: 6-31G*
  Basis Set:
  @DF-RHF Final Energy:  -286.02976819588770
    Total Energy =                       -286.0297681958875273
  Basis Set: 6-31G*
  Basis Set:
  Charge       = 0
  Multiplicity = 1
  Basis Set: 6-31G*
  Basis Set:

    Orbital Energies (a.u.)
    -----------------------

    Doubly Occupied:

       1A    -20.512858     2A    -15.584391     3A    -11.341878
       4A    -11.266596     5A    -11.247720     6A    -11.228226
       7A     -1.383232     8A     -1.243952     9A     -1.014205
      10A     -0.972928    11A     -0.919958    12A     -0.738283
      13A     -0.681169    14A     -0.659463    15A     -0.651311
      16A     -0.589694    17A     -0.575724    18A     -0.566796
      19A     -0.561388    20A     -0.547280    21A     -0.529651
      22A     -0.504048    23A     -0.409240    24A     -0.365630

  @DF-RHF Final Energy:  -286.02976826798044

   => Energetics <=

    Nuclear Repulsion Energy =            252.2767318159370689
    One-Electron Energy =                -888.4217562469954146
    Two-Electron Energy =                 350.1152561630781861
    DFT Exchange-Correlation Energy =       0.0000000000000000
    Empirical Dispersion Energy =           0.0000000000000000
    PCM Polarization Energy =               0.0000000000000000
    EFP Energy =                            0.0000000000000000
    Total Energy =                       -286.0297682679801596
    Molecular point group: c1
  Basis Set: 6-31G*
  Basis Set:

  -Total Gradient:
     Atom            X                  Y                   Z
    ------   -----------------  -----------------  -----------------
       1        0.000007775088    -0.000005536073    -0.000022001683
       2        0.000121452746     0.000129666445     0.000052936077
       3       -0.000005764510    -0.000002519178    -0.000003335114
       4       -0.000167219751    -0.000148013387     0.000003521773
       5       -0.000000325921     0.000002774929    -0.000000689216
       6        0.000001661804    -0.000000625892    -0.000001773662
       7        0.000001259328     0.000001381729    -0.000001750875
       8       -0.000029082722    -0.000051616043    -0.000211097218
       9       -0.000007423117    -0.000004694208     0.000002806568
      10        0.000074389918     0.000081652839     0.000174791433
      11       -0.000000108818    -0.000001044565    -0.000001519302
      12       -0.000000760555    -0.000000029910     0.000003858786
      13       -0.000001291039    -0.000001223557    -0.000003200920
      14        0.000001630587    -0.000000267391     0.000000847184
      15        0.000003806961     0.000000094265     0.000006606168

  **** Optimization is complete! (in 19 steps) ****
    Final optimized geometry and variables:
    Molecular point group: c1

    Geometry (in Angstrom), charge = 0, multiplicity = 1:

    O            0.024211394836    -0.176407772441     1.716789524153
    C           -0.271006875168     0.238200133107     0.627506157548
    C           -1.339177612914     1.306864561243     0.486184171192
    N            0.335087547062    -0.207754221141    -0.507388374402
    H           -2.164515799841     0.969942215251    -0.131452153390
    H           -1.705359559301     1.528296664350     1.477052439015
    H           -0.937400902778     2.213368617029     0.046556624925
    C            1.302592638279    -1.282921428689    -0.418677136199
    C           -0.063564845588     0.150480640018    -1.850076665403
    H            2.210984301569    -1.007679015355    -0.945329998354
    H            0.910440359127    -2.192835502378    -0.866561433112
    H            1.533866230378    -1.470678869969     0.615102836132
    H           -0.688703861721    -0.617540135772    -2.300967810187
    H           -0.600801472675     1.084809442781    -1.871235342252
    H            0.820713736805     0.265603711198    -2.466886068355

  Mulliken Charges: (a.u.)
   Center  Symbol    Alpha    Beta     Spin     Total
       1     O     4.30576  4.30576  0.00000 -0.61151
       2     C     2.62265  2.62265  0.00000  0.75471
       3     C     3.29899  3.29899  0.00000 -0.59798
       4     N     3.82456  3.82456  0.00000 -0.64913
       5     H     0.40797  0.40797  0.00000  0.18406
       6     H     0.39025  0.39025  0.00000  0.21951
       7     H     0.40674  0.40674  0.00000  0.18651
       8     C     3.14659  3.14659  0.00000 -0.29318
       9     C     3.14113  3.14113  0.00000 -0.28226
      10     H     0.41872  0.41872  0.00000  0.16256
      11     H     0.42021  0.42021  0.00000  0.15957
      12     H     0.38228  0.38228  0.00000  0.23545
      13     H     0.41591  0.41591  0.00000  0.16818
      14     H     0.40695  0.40695  0.00000  0.18610
      15     H     0.41130  0.41130  0.00000  0.17740

   Total alpha = 24.00000, Total beta = 24.00000, Total charge = -0.00000
