  ==> Input File <==

--------------------------------------------------------------------------
set {
	reference rhf
	basis 6-31G*
}

set_num_threads( 1 )
memory 2 gb

molecule MOL {
0 1

H	 -1.220916	 0.407815	 2.663834
O	 -0.309901	 0.293073	 2.429873
C	 -0.036256	 1.042251	 1.281913
C	 -0.793441	 0.596080	 0.058728
H	 1.029119	 0.947041	 1.105522
H	 -0.229373	 2.100408	 1.455220
C	 -1.530462	 -0.493172	 -0.025500
H	 -0.697098	 1.245063	 -0.798023
H	 -1.092586	 -1.461565	 -0.186463
H	 -2.602122	 -0.450675	 0.050101

	symmetry c1
}
set optking {
	frozen_dihedral = ("
		5 3 2 1,
		5 3 4 7
	")
}

ee = energy('scf')
oeprop('DIPOLE', 'QUADRUPOLE', 'MULLIKEN_CHARGES')
f=open( 'psi4out.xyz', 'w' )
f.write( "10  " )
f.write( str(ee) + "\n" )
f.write( MOL.save_string_xyz() )
f.close()
--------------------------------------------------------------------------

    Molecular point group: c1

    Geometry (in Angstrom), charge = 0, multiplicity = 1:

       Center              X                  Y                   Z               Mass
    ------------   -----------------  -----------------  -----------------  -----------------
           H         -0.563986973846     0.041881039207     1.647824861690     1.007825032070
           O          0.347028026154    -0.072860960793     1.413863861690    15.994914619560
           C          0.620673026154     0.676317039207     0.265903861690    12.000000000000
           C         -0.136511973846     0.230146039207    -0.957281138310    12.000000000000
           H          1.686048026154     0.581107039207     0.089512861690     1.007825032070
           H          0.427556026154     1.734474039207     0.439210861690     1.007825032070
           C         -0.873532973846    -0.859105960793    -1.041509138310    12.000000000000
           H         -0.040168973846     0.879129039207    -1.814032138310     1.007825032070
           H         -0.435656973846    -1.827498960793    -1.202472138310     1.007825032070
           H         -1.945192973846    -0.816608960793    -0.965908138310     1.007825032070

  Charge       = 0
  Multiplicity = 1
  Basis Set: 6-31G*
  Basis Set:

    Orbital Energies (a.u.)
    -----------------------

    Doubly Occupied:

       1A    -20.557914     2A    -11.280771     3A    -11.244253
       4A    -11.213903     5A     -1.366978     6A     -1.061468
       7A     -0.929487     8A     -0.770017     9A     -0.687765
      10A     -0.640175    11A     -0.618059    12A     -0.581661
      13A     -0.564306    14A     -0.504667    15A     -0.450689
      16A     -0.264922

  @DF-RHF Final Energy:  -191.77290710072538

   => Energetics <=

    Nuclear Repulsion Energy =            119.1344530528522370
    One-Electron Energy =                -496.3406563543528591
    Two-Electron Energy =                 185.4332962007756009
    DFT Exchange-Correlation Energy =       0.0000000000000000
    Empirical Dispersion Energy =           0.0000000000000000
    PCM Polarization Energy =               0.0000000000000000
    EFP Energy =                            0.0000000000000000
    Total Energy =                       -191.7729071007250354

  Mulliken Charges: (a.u.)
   Center  Symbol    Alpha    Beta     Spin     Total
       1     H     0.28451  0.28451  0.00000  0.43097
       2     O     4.36081  4.36081  0.00000 -0.72162
       3     C     2.99867  2.99867  0.00000  0.00267
       4     C     3.08856  3.08856  0.00000 -0.17712
       5     H     0.41376  0.41376  0.00000  0.17249
       6     H     0.41673  0.41673  0.00000  0.16653
       7     C     3.22021  3.22021  0.00000 -0.44042
       8     H     0.40641  0.40641  0.00000  0.18718
       9     H     0.40318  0.40318  0.00000  0.19363
      10     H     0.40716  0.40716  0.00000  0.18569

   Total alpha = 16.00000, Total beta = 16.00000, Total charge = -0.00000
