                              Psi4 1.0.54 Driver

  ==> Input File <==

--------------------------------------------------------------------------
set {
	reference rhf
	basis cc-pvtz
}

set_num_threads( 4 )
memory 2 gb

molecule MOL {
0 1

H	 2.462485	 -2.216993	 0.000000
O	 2.777472	 -1.330706	 0.000000
C	 1.763288	 -0.447523	 0.000000
C	 1.140158	 -0.188332	 1.212291
C	 1.337321	 0.191139	 -1.144998
H	 1.487163	 -0.695843	 2.090457
C	 0.096477	 0.706305	 1.273161
H	 1.799541	 0.010310	 -2.093129
C	 0.287325	 1.082572	 -1.046901
H	 -0.379060	 0.900338	 2.214417
C	 -0.349316	 1.360240	 0.136683
N	 -0.160751	 1.758650	 -2.269582
H	 -1.158102	 2.057060	 0.168742
O	 0.406622	 1.500537	 -3.278809
O	 -1.061864	 2.521507	 -2.176083

	symmetry c1
}
set optking {
	frozen_dihedral = ("
		4 3 2 1
	")
}

ee,wfn = optimize('scf', return_wfn=True)
oeprop( wfn, 'DIPOLE', 'QUADRUPOLE', 'MULLIKEN_CHARGES')
f=open( 'psi4out.xyz', 'w' )
f.write( "15  " )
f.write( str(ee) + "\n" )
f.write( MOL.save_string_xyz() )
f.close()
--------------------------------------------------------------------------

    Molecular point group: c1
  Charge       = 0
  Multiplicity = 1
  Basis Set: CC-PVTZ
  Basis Set:
  @DF-RHF Final Energy:  -509.21350384938802
    Total Energy =                       -509.2135038493879620
    Molecular point group: c1
  Basis Set: CC-PVTZ
  Basis Set:
  Basis Set: CC-PVTZ
  Basis Set:
  @DF-RHF Final Energy:  -509.21451675234584
    Total Energy =                       -509.2145167523462987
  Basis Set: CC-PVTZ
  Basis Set:
  Basis Set: CC-PVTZ
  Basis Set:
  @DF-RHF Final Energy:  -509.19757585582596
    Total Energy =                       -509.1975758558264715
  Basis Set: CC-PVTZ
  Basis Set:
  Basis Set: CC-PVTZ
  Basis Set:
  @DF-RHF Final Energy:  -509.21399417757328
    Total Energy =                       -509.2139941775731131
  Basis Set: CC-PVTZ
  Basis Set:
  @DF-RHF Final Energy:  -509.21460917701467
    Total Energy =                       -509.2146091770146086
  Basis Set: CC-PVTZ
  Basis Set:
  @DF-RHF Final Energy:  -509.21377284662287
    Total Energy =                       -509.2137728466233284
  Basis Set: CC-PVTZ
  Basis Set:
  Basis Set: CC-PVTZ
  Basis Set:
  @DF-RHF Final Energy:  -509.21471678896893
    Total Energy =                       -509.2147167889688717
  Basis Set: CC-PVTZ
  Basis Set:
  Basis Set: CC-PVTZ
  Basis Set:
  @DF-RHF Final Energy:  -509.21472434802160
    Total Energy =                       -509.2147243480218322
  Basis Set: CC-PVTZ
  Basis Set:
  Charge       = 0
  Multiplicity = 1
  Basis Set: CC-PVTZ
  Basis Set:

    Orbital Energies (a.u.)
    -----------------------

    Doubly Occupied:

       1A    -20.594742     2A    -20.593450     3A    -20.593269
       4A    -15.849439     5A    -11.319104     6A    -11.306969
       7A    -11.264623     8A    -11.263143     9A    -11.263065
      10A    -11.261600    11A     -1.643030    12A     -1.425483
      13A     -1.423692    14A     -1.202940    15A     -1.095136
      16A     -1.048702    17A     -0.964807    18A     -0.869021
      19A     -0.838605    20A     -0.797827    21A     -0.742619
      22A     -0.739627    23A     -0.723731    24A     -0.712333
      25A     -0.685524    26A     -0.645151    27A     -0.628098
      28A     -0.570228    29A     -0.559260    30A     -0.532732
      31A     -0.515880    32A     -0.493667    33A     -0.487985
      34A     -0.458959    35A     -0.380259    36A     -0.360847

  @DF-RHF Final Energy:  -509.21472706745749

   => Energetics <=

    Nuclear Repulsion Energy =            504.0278280939267006
    One-Electron Energy =               -1694.7740123694959493
    Two-Electron Energy =                 681.5314572081115330
    DFT Exchange-Correlation Energy =       0.0000000000000000
    Empirical Dispersion Energy =           0.0000000000000000
    PCM Polarization Energy =               0.0000000000000000
    EFP Energy =                            0.0000000000000000
    Total Energy =                       -509.2147270674577157
    Molecular point group: c1
  Basis Set: CC-PVTZ
  Basis Set:

  -Total Gradient:
     Atom            X                  Y                   Z
    ------   -----------------  -----------------  -----------------
       1       -0.000039137245     0.000007119818    -0.000635994061
       2        0.000220285309     0.000191437507     0.000854280449
       3       -0.000481465860    -0.000547048145    -0.000482522340
       4        0.000165386917     0.000470987841     0.000177560156
       5        0.000113142530    -0.000121542992     0.000092953441
       6        0.000010789150    -0.000008907215    -0.000004289345
       7        0.000124145674    -0.000137249710     0.000092759152
       8       -0.000000848283     0.000006365752    -0.000004984153
       9       -0.000135631704     0.000122841531     0.000104619970
      10       -0.000008213995     0.000010504117    -0.000013149850
      11        0.000043072001     0.000019249691    -0.000207757714
      12       -0.000065340896    -0.000003239186     0.000047027959
      13       -0.000006883860     0.000002337516     0.000012608141
      14        0.000040430384    -0.000011379837    -0.000033772909
      15        0.000020269884    -0.000001476694     0.000000661099

  **** Optimization is complete! (in 9 steps) ****
    Final optimized geometry and variables:
    Molecular point group: c1

    Geometry (in Angstrom), charge = 0, multiplicity = 1:

    H            1.882934794649    -2.934839456741     0.764996746631
    O            2.171956706247    -2.038742127448     0.755699315410
    C            1.113542274364    -1.183215263307     0.814802740262
    C            0.497985093428    -0.910507629327     2.023134287571
    C            0.700211241764    -0.543167542937    -0.334185698408
    H            0.847693918784    -1.403249085522     2.909557337814
    C           -0.544461071296    -0.006953187938     2.082842975714
    H            1.181323221391    -0.737915489111    -1.268154554090
    C           -0.339403200899     0.357821613201    -0.243619632574
    H           -1.018352409669     0.199066447593     3.022215683016
    C           -0.977090916801     0.641384264008     0.942919783276
    N           -0.781831862052     1.038520664027    -1.464557810033
    H           -1.778635352397     1.347280817994     0.969514827757
    O           -0.223885436044     0.770757135412    -2.475384068023
    O           -1.672048566816     1.815061853217    -1.366959900396

  Mulliken Charges: (a.u.)
   Center  Symbol    Alpha    Beta     Spin     Total
       1     H     0.38578  0.38578  0.00000  0.22843
       2     O     4.18521  4.18521  0.00000 -0.37043
       3     C     2.86783  2.86783  0.00000  0.26434
       4     C     3.10057  3.10057  0.00000 -0.20115
       5     C     3.10859  3.10859  0.00000 -0.21717
       6     H     0.41255  0.41255  0.00000  0.17490
       7     C     3.06679  3.06679  0.00000 -0.13358
       8     H     0.39136  0.39136  0.00000  0.21729
       9     C     2.97913  2.97913  0.00000  0.04173
      10     H     0.41524  0.41524  0.00000  0.16953
      11     C     3.08584  3.08584  0.00000 -0.17167
      12     N     3.25033  3.25033  0.00000  0.49934
      13     H     0.39867  0.39867  0.00000  0.20266
      14     O     4.17554  4.17554  0.00000 -0.35109
      15     O     4.17657  4.17657  0.00000 -0.35314

   Total alpha = 36.00000, Total beta = 36.00000, Total charge =  0.00000

*** Psi4 exiting successfully. Buy a developer a beer!
