                              Psi4 1.0.54 Driver

  ==> Input File <==

--------------------------------------------------------------------------
set {
	reference rhf
	basis cc-pvtz
}

set_num_threads( 4 )
memory 2 gb

molecule MOL {
0 1

H	 2.614283	 2.028610	 0.296620
O	 3.358864	 1.662087	 -0.142800
C	 3.565468	 0.338079	 0.273842
C	 2.533667	 -0.637565	 -0.272227
H	 4.548038	 0.064914	 -0.086598
H	 3.593945	 0.282242	 1.360360
C	 1.114816	 -0.402372	 0.240993
H	 2.544552	 -0.580764	 -1.356576
H	 2.850574	 -1.642962	 -0.005497
C	 0.113298	 -1.420414	 -0.302504
H	 0.796373	 0.598427	 -0.031033
H	 1.113377	 -0.446476	 1.328807
C	 -0.259958	 -1.237315	 -1.774716
H	 0.507352	 -2.422898	 -0.154268
H	 -0.794576	 -1.362190	 0.291503
C	 0.872247	 -1.499469	 -2.766245
H	 -1.082271	 -1.909445	 -2.004000
H	 -0.643411	 -0.230539	 -1.924782
C	 0.425474	 -1.401257	 -4.222665
H	 1.284518	 -2.489742	 -2.584972
H	 1.683731	 -0.797180	 -2.601056
C	 1.554304	 -1.658752	 -5.215303
H	 -0.378240	 -2.110623	 -4.399926
H	 0.005553	 -0.415293	 -4.403230
H	 1.974372	 -2.650180	 -5.081689
H	 1.203016	 -1.584057	 -6.238105
H	 2.358354	 -0.941178	 -5.089036

	symmetry c1
}
set optking {
	frozen_dihedral = ("
		14 10 7 4
	")
}

ee,wfn = optimize('scf', return_wfn=True)
oeprop( wfn, 'DIPOLE', 'QUADRUPOLE', 'MULLIKEN_CHARGES')
f=open( 'psi4out.xyz', 'w' )
f.write( "27  " )
f.write( str(ee) + "\n" )
f.write( MOL.save_string_xyz() )
f.close()
--------------------------------------------------------------------------

    Molecular point group: c1
  Charge       = 0
  Multiplicity = 1
  Basis Set: CC-PVTZ
  Basis Set:
  @DF-RHF Final Energy:  -388.41375770387771
    Total Energy =                       -388.4137577038770814
    Molecular point group: c1
  Basis Set: CC-PVTZ
  Basis Set:
  Basis Set: CC-PVTZ
  Basis Set:
  @DF-RHF Final Energy:  -388.42136396677847
    Total Energy =                       -388.4213639667789266
  Basis Set: CC-PVTZ
  Basis Set:
  Basis Set: CC-PVTZ
  Basis Set:
  @DF-RHF Final Energy:  -388.42243869716754
    Total Energy =                       -388.4224386971679905
  Basis Set: CC-PVTZ
  Basis Set:
  Basis Set: CC-PVTZ
  Basis Set:
  @DF-RHF Final Energy:  -388.42267100877376
    Total Energy =                       -388.4226710087737047
  Basis Set: CC-PVTZ
  Basis Set:
  @DF-RHF Final Energy:  -388.42275506734956
    Total Energy =                       -388.4227550673499536
  @DF-RHF Final Energy:  -388.42283044040795
    Total Energy =                       -388.4228304404078926
  @DF-RHF Final Energy:  -388.42286776214087
    Total Energy =                       -388.4228677621409815
  @DF-RHF Final Energy:  -388.42287573853991
    Total Energy =                       -388.4228757385398012
  Basis Set: CC-PVTZ
  Basis Set:
  @DF-RHF Final Energy:  -388.42292407472200
    Total Energy =                       -388.4229240747213225
  Basis Set: CC-PVTZ
  Basis Set:
  Basis Set: CC-PVTZ
  Basis Set:
  @DF-RHF Final Energy:  -388.42290885148242
    Total Energy =                       -388.4229088514812247
  Basis Set: CC-PVTZ
  Basis Set:
  Basis Set: CC-PVTZ
  Basis Set:
  @DF-RHF Final Energy:  -388.42293384008320
    Total Energy =                       -388.4229338400832603
  Basis Set: CC-PVTZ
  Basis Set:
  Charge       = 0
  Multiplicity = 1
  Basis Set: CC-PVTZ
  Basis Set:

    Orbital Energies (a.u.)
    -----------------------

    Doubly Occupied:

       1A    -20.545536     2A    -11.265018     3A    -11.218185
       4A    -11.215433     5A    -11.213095     6A    -11.212309
       7A    -11.212025     8A    -11.209842     9A    -11.205721
      10A     -1.363413    11A     -1.093825    12A     -1.060764
      13A     -1.010402    14A     -0.951833    15A     -0.886461
      16A     -0.828994    17A     -0.792190    18A     -0.777910
      19A     -0.698353    20A     -0.647833    21A     -0.633993
      22A     -0.616999    23A     -0.608759    24A     -0.587048
      25A     -0.567805    26A     -0.555833    27A     -0.549092
      28A     -0.520799    29A     -0.512234    30A     -0.497463
      31A     -0.483803    32A     -0.472968    33A     -0.465273
      34A     -0.461350    35A     -0.455530    36A     -0.436047
      37A     -0.424687

  @DF-RHF Final Energy:  -388.42293380603013

   => Energetics <=

    Nuclear Repulsion Energy =            467.4803482858316670
    One-Electron Energy =               -1453.2889209779791599
    Two-Electron Energy =                 597.3856388861177038
    DFT Exchange-Correlation Energy =       0.0000000000000000
    Empirical Dispersion Energy =           0.0000000000000000
    PCM Polarization Energy =               0.0000000000000000
    EFP Energy =                            0.0000000000000000
    Total Energy =                       -388.4229338060297323
    Molecular point group: c1
  Basis Set: CC-PVTZ
  Basis Set:

  -Total Gradient:
     Atom            X                  Y                   Z
    ------   -----------------  -----------------  -----------------
       1       -0.000037583872     0.000010755787     0.000013622429
       2        0.000006585818    -0.000000617733    -0.000003844874
       3        0.000025328835     0.000024912568    -0.000039123107
       4        0.000241873643    -0.000768280102     0.000859574963
       5        0.000019100292    -0.000008966190    -0.000006429776
       6       -0.000009899512    -0.000012930749     0.000011038511
       7       -0.000204664089     0.001110657782    -0.001444473366
       8       -0.000005237480    -0.000008864597    -0.000082007039
       9        0.000012932870    -0.000006749868     0.000006822471
      10       -0.000751345697    -0.000642044075     0.001999673565
      11       -0.000001037379     0.000016458692     0.000002419318
      12        0.000008720617    -0.000003324344     0.000015387094
      13       -0.000007425232    -0.000020882139    -0.000038135658
      14        0.000686590937     0.000274739862    -0.001302086750
      15        0.000001600657    -0.000009686660     0.000015187665
      16       -0.000043818379    -0.000017320044    -0.000014839382
      17       -0.000008962527     0.000015932030    -0.000025013097
      18        0.000016363493    -0.000007394526    -0.000005584968
      19       -0.000012409057    -0.000000247600    -0.000038623441
      20        0.000008952497     0.000018087595     0.000006868518
      21        0.000053805246     0.000041019133     0.000053790966
      22       -0.000009966688     0.000008733354     0.000003680856
      23       -0.000002992861    -0.000002870495     0.000005476431
      24        0.000004734332    -0.000002085935     0.000009015835
      25       -0.000003543776    -0.000009248526    -0.000002690732
      26        0.000005849441    -0.000005015222     0.000000836069
      27        0.000006447872     0.000005232000    -0.000000542499

  **** Optimization is complete! (in 12 steps) ****
    Final optimized geometry and variables:
    Molecular point group: c1

    Geometry (in Angstrom), charge = 0, multiplicity = 1:

    H            0.897257907995     2.689895374536     2.484693215316
    O            1.710388720473     2.515791676621     2.048345484803
    C            2.040700031092     1.156668013867     2.161631082423
    C            1.158225068725     0.247915131196     1.318124177089
    H            3.067300957991     1.073724782763     1.831097833611
    H            2.010775339388     0.844514029825     3.203764913016
    C           -0.302984564266     0.229261349322     1.765759424685
    H            1.237760590311     0.567218416115     0.286002859583
    H            1.564361580826    -0.759175789058     1.373616124167
    C           -1.205096444090    -0.812590287404     1.092708654106
    H           -0.744100434113     1.212251789356     1.624050783386
    H           -0.322328859172     0.037160259655     2.836704361768
    C           -1.617945461080    -0.524961989903    -0.360550191860
    H           -0.726344923752    -1.787417849682     1.139409500943
    H           -2.107445981197    -0.888092474573     1.689978310381
    C           -0.675951404957    -1.064227912150    -1.437036965844
    H           -2.596426906459    -0.965140851220    -0.529326806216
    H           -1.747472551706     0.546235711485    -0.494132923276
    C           -1.168231464534    -0.781904546732    -2.854120675239
    H           -0.568570577226    -2.138433602956    -1.305047926463
    H            0.316703946603    -0.644683759290    -1.319068042239
    C           -0.242538053904    -1.336247250440    -3.931957956746
    H           -2.161282564132    -1.204725429548    -2.980369772030
    H           -1.275405820257     0.290931902820    -2.989381937074
    H           -0.141645324362    -2.413108074439    -3.845270141168
    H           -0.620286194531    -1.118948411105    -4.924489858221
    H            0.750276663722    -0.905496261383    -3.854861199256

  Mulliken Charges: (a.u.)
   Center  Symbol    Alpha    Beta     Spin     Total
       1     H     0.39227  0.39227  0.00000  0.21545
       2     O     4.20575  4.20575  0.00000 -0.41149
       3     C     2.98079  2.98079  0.00000  0.03842
       4     C     3.09702  3.09702  0.00000 -0.19405
       5     H     0.44852  0.44852  0.00000  0.10296
       6     H     0.46767  0.46767  0.00000  0.06466
       7     C     3.10453  3.10453  0.00000 -0.20905
       8     H     0.44964  0.44964  0.00000  0.10073
       9     H     0.45216  0.45216  0.00000  0.09568
      10     C     3.10681  3.10681  0.00000 -0.21362
      11     H     0.45564  0.45564  0.00000  0.08872
      12     H     0.44794  0.44794  0.00000  0.10411
      13     C     3.09808  3.09808  0.00000 -0.19617
      14     H     0.45393  0.45393  0.00000  0.09215
      15     H     0.44265  0.44265  0.00000  0.11471
      16     C     3.08828  3.08828  0.00000 -0.17655
      17     H     0.44739  0.44739  0.00000  0.10522
      18     H     0.45289  0.45289  0.00000  0.09422
      19     C     3.08548  3.08548  0.00000 -0.17096
      20     H     0.45495  0.45495  0.00000  0.09009
      21     H     0.45120  0.45120  0.00000  0.09759
      22     C     3.14972  3.14972  0.00000 -0.29945
      23     H     0.45404  0.45404  0.00000  0.09191
      24     H     0.45386  0.45386  0.00000  0.09227
      25     H     0.45552  0.45552  0.00000  0.08895
      26     H     0.44825  0.44825  0.00000  0.10350
      27     H     0.45500  0.45500  0.00000  0.08999

   Total alpha = 37.00000, Total beta = 37.00000, Total charge = -0.00000

*** Psi4 exiting successfully. Buy a developer a beer!
