  ==> Input File <==

--------------------------------------------------------------------------
set {
	reference rhf
	basis 6-31G*
}

set_num_threads( 4 )
memory 2 gb

molecule MOL {
0 1

H	 0.991896	 -0.618621	 -4.224341
O	 1.930984	 -0.524323	 -4.158820
C	 2.249077	 0.787029	 -3.767378
C	 1.930039	 1.071602	 -2.303834
H	 3.312615	 0.895101	 -3.937323
H	 1.744434	 1.509039	 -4.408328
C	 0.439529	 0.991868	 -1.964879
H	 2.482715	 0.367545	 -1.687214
H	 2.303116	 2.065569	 -2.062566
C	 0.146652	 1.335446	 -0.501666
H	 0.076973	 -0.008990	 -2.182139
H	 -0.115414	 1.673423	 -2.609753
C	 -1.340535	 1.353967	 -0.129816
H	 0.670017	 0.631633	 0.142992
H	 0.567814	 2.314969	 -0.285198
C	 -2.037799	 -0.007733	 -0.193645
H	 -1.435129	 1.744781	 0.881190
H	 -1.863688	 2.057761	 -0.775434
C	 -3.489788	 0.042957	 0.286558
H	 -1.484551	 -0.723150	 0.413155
H	 -2.017690	 -0.391207	 -1.210919
C	 -4.216917	 1.317354	 -0.141063
H	 -4.025645	 -0.823308	 -0.095450
H	 -3.513059	 -0.038752	 1.371301
H	 -4.239342	 1.411634	 -1.223113
H	 -5.243387	 1.322503	 0.212445
H	 -3.726170	 2.201406	 0.256408

	symmetry c1
}
set optking {
	frozen_dihedral = ("
		20 16 19 22
	")
}

ee = optimize('scf')
oeprop('DIPOLE', 'QUADRUPOLE', 'MULLIKEN_CHARGES')
f=open( 'psi4out.xyz', 'w' )
f.write( "27  " )
f.write( str(ee) + "\n" )
f.write( MOL.save_string_xyz() )
f.close()
--------------------------------------------------------------------------

    Molecular point group: c1
  Charge       = 0
  Multiplicity = 1
  Basis Set: 6-31G*
  Basis Set:
  @DF-RHF Final Energy:  -388.27557766234128
    Total Energy =                       -388.2755776623414476
    Molecular point group: c1
  Basis Set: 6-31G*
  Basis Set:
  Basis Set: 6-31G*
  Basis Set:
  @DF-RHF Final Energy:  -388.27625406106131
    Total Energy =                       -388.2762540610608539
  Basis Set: 6-31G*
  Basis Set:
  Basis Set: 6-31G*
  Basis Set:
  @DF-RHF Final Energy:  -388.27742813204679
    Total Energy =                       -388.2774281320470209
  Basis Set: 6-31G*
  Basis Set:
  Basis Set: 6-31G*
  Basis Set:
  @DF-RHF Final Energy:  -388.27745900789148
    Total Energy =                       -388.2774590078906840
  Basis Set: 6-31G*
  Basis Set:
  Basis Set: 6-31G*
  Basis Set:
  @DF-RHF Final Energy:  -388.27750514103872
    Total Energy =                       -388.2775051410388869
  Basis Set: 6-31G*
  Basis Set:
  Basis Set: 6-31G*
  Basis Set:
  @DF-RHF Final Energy:  -388.27752219384405
    Total Energy =                       -388.2775221938443337
  Basis Set: 6-31G*
  Basis Set:
  Charge       = 0
  Multiplicity = 1
  Basis Set: 6-31G*
  Basis Set:

    Orbital Energies (a.u.)
    -----------------------

    Doubly Occupied:

       1A    -20.552251     2A    -11.267006     3A    -11.219738
       4A    -11.217145     5A    -11.216664     6A    -11.215317
       7A    -11.215164     8A    -11.214715     9A    -11.209164
      10A     -1.359008    11A     -1.095021    12A     -1.060205
      13A     -1.008969    14A     -0.946075    15A     -0.894516
      16A     -0.829723    17A     -0.799130    18A     -0.764717
      19A     -0.693510    20A     -0.651962    21A     -0.633900
      22A     -0.614402    23A     -0.604951    24A     -0.589638
      25A     -0.579891    26A     -0.555099    27A     -0.537561
      28A     -0.524632    29A     -0.513281    30A     -0.497351
      31A     -0.482580    32A     -0.475678    33A     -0.469122
      34A     -0.454842    35A     -0.448142    36A     -0.442056
      37A     -0.422983

  @DF-RHF Final Energy:  -388.27752157268304

   => Energetics <=

    Nuclear Repulsion Energy =            463.3556198633764893
    One-Electron Energy =               -1444.7140654527122479
    Two-Electron Energy =                 593.0809240166529435
    DFT Exchange-Correlation Energy =       0.0000000000000000
    Empirical Dispersion Energy =           0.0000000000000000
    PCM Polarization Energy =               0.0000000000000000
    EFP Energy =                            0.0000000000000000
    Total Energy =                       -388.2775215726828719
    Molecular point group: c1
  Basis Set: 6-31G*
  Basis Set:

  -Total Gradient:
     Atom            X                  Y                   Z
    ------   -----------------  -----------------  -----------------
       1        0.000005114061    -0.000002095133    -0.000005809945
       2       -0.000002068531     0.000002090552    -0.000000646849
       3        0.000004914739     0.000001834560    -0.000005709659
       4        0.000008837837    -0.000017695730     0.000006631603
       5        0.000000429605     0.000002100385    -0.000001102565
       6       -0.000001286618    -0.000001259537    -0.000001274571
       7       -0.000017601231     0.000025627471     0.000020515341
       8        0.000002395170    -0.000003942908    -0.000004399010
       9       -0.000009294028    -0.000004667480     0.000005762188
      10       -0.000006524068    -0.000016446324     0.000020657107
      11       -0.000030143686    -0.000024486073    -0.000005581142
      12        0.000014862524    -0.000014787498     0.000006920743
      13       -0.000061369982     0.000090340094    -0.000100980620
      14        0.000047982541     0.000003636665     0.000000547314
      15       -0.000034026356    -0.000008901353     0.000002862120
      16       -0.001182177348    -0.003922639967    -0.002811703081
      17       -0.000097047240    -0.000013923955     0.000037237255
      18        0.000076937224    -0.000014510321    -0.000037173459
      19       -0.001506045116    -0.001646055763    -0.004008940393
      20        0.001343642545     0.003938804836     0.003520660794
      21       -0.000008204588    -0.000089554106    -0.000009270749
      22        0.001400586824     0.001828915324     0.003402550859
      23        0.000024786640     0.000021434813    -0.000069714415
      24        0.000014523125    -0.000110058460     0.000024278885
      25        0.000006318854     0.000011437026    -0.000022229510
      26        0.000018453095    -0.000024020089    -0.000004023102
      27       -0.000013995991    -0.000011177032     0.000039934869

  **** Optimization is complete! (in 7 steps) ****
    Final optimized geometry and variables:
    Molecular point group: c1

    Geometry (in Angstrom), charge = 0, multiplicity = 1:

    H            1.489375946104    -1.322375424248    -2.745033249425
    O            2.428973495104    -1.250319839612    -2.661110535774
    C            2.770311870967     0.054128466161    -2.266302422718
    C            2.429050874812     0.350117641262    -0.810043981544
    H            3.839316820315     0.136131311917    -2.415117475508
    H            2.296112744621     0.786275866883    -2.918897727343
    C            0.930607566820     0.307175327068    -0.500762701627
    H            2.952225762982    -0.365344791150    -0.180944223636
    H            2.820972568810     1.335481437894    -0.563503088218
    C            0.617121709263     0.660703792016     0.955856266396
    H            0.548276072247    -0.685125320692    -0.723517055445
    H            0.405262921275     1.000520275956    -1.157767142400
    C           -0.876912527602     0.718630749354     1.296248907945
    H            1.109819172497    -0.055135701472     1.611428142120
    H            1.058311773085     1.629737419221     1.179662877274
    C           -1.596955734091    -0.632855027262     1.197430105665
    H           -0.979396814860     1.095891414154     2.312111895200
    H           -1.357709127644     1.449380432235     0.650867217982
    C           -3.026324932013    -0.643415412336     1.768839429637
    H           -1.003454636900    -1.347598940277     1.763460488887
    H           -1.614359732818    -0.968323978945     0.164526049360
    C           -3.876164412672     0.589830022543     1.454670826423
    H           -3.537502970688    -1.534468119926     1.414706648337
    H           -2.966748158414    -0.742911610775     2.850789110280
    H           -3.946824052446     0.766964301552     0.384372332846
    H           -4.885850262096     0.458336866785     1.831401333505
    H           -3.471185177226     1.485102973755     1.912424499536

  Mulliken Charges: (a.u.)
   Center  Symbol    Alpha    Beta     Spin     Total
       1     H     0.27992  0.27992  0.00000  0.44017
       2     O     4.37094  4.37094  0.00000 -0.74187
       3     C     2.99737  2.99737  0.00000  0.00527
       4     C     3.16092  3.16092  0.00000 -0.32185
       5     H     0.41445  0.41445  0.00000  0.17110
       6     H     0.43206  0.43206  0.00000  0.13588
       7     C     3.16340  3.16340  0.00000 -0.32680
       8     H     0.41497  0.41497  0.00000  0.17005
       9     H     0.42434  0.42434  0.00000  0.15131
      10     C     3.15193  3.15193  0.00000 -0.30387
      11     H     0.42268  0.42268  0.00000  0.15463
      12     H     0.42552  0.42552  0.00000  0.14896
      13     C     3.15707  3.15707  0.00000 -0.31413
      14     H     0.42193  0.42193  0.00000  0.15614
      15     H     0.42160  0.42160  0.00000  0.15680
      16     C     3.15366  3.15366  0.00000 -0.30732
      17     H     0.42168  0.42168  0.00000  0.15664
      18     H     0.42154  0.42154  0.00000  0.15692
      19     C     3.15237  3.15237  0.00000 -0.30474
      20     H     0.42184  0.42184  0.00000  0.15631
      21     H     0.42301  0.42301  0.00000  0.15398
      22     C     3.24242  3.24242  0.00000 -0.48484
      23     H     0.42052  0.42052  0.00000  0.15896
      24     H     0.42292  0.42292  0.00000  0.15416
      25     H     0.42305  0.42305  0.00000  0.15391
      26     H     0.41909  0.41909  0.00000  0.16183
      27     H     0.41880  0.41880  0.00000  0.16240

   Total alpha = 37.00000, Total beta = 37.00000, Total charge =  0.00000
