                              Psi4 1.0.54 Driver

  ==> Input File <==

--------------------------------------------------------------------------
set {
	reference rhf
	basis cc-pvtz
}

set_num_threads( 4 )
memory 2 gb

molecule MOL {
0 1

H	 2.581774	 -0.800676	 -0.305925
O	 1.675515	 -0.612943	 -0.465627
C	 1.135873	 0.113391	 0.608264
C	 0.027642	 1.012027	 0.090274
H	 1.902972	 0.727968	 1.072615
H	 0.756163	 -0.561896	 1.370018
C	 -1.138737	 0.285728	 -0.581921
H	 0.464661	 1.708096	 -0.618252
H	 -0.340737	 1.603071	 0.925246
C	 -1.933983	 -0.631436	 0.343653
H	 -0.763151	 -0.285569	 -1.422081
H	 -1.808359	 1.035291	 -0.992333
H	 -2.789188	 -1.049673	 -0.174718
H	 -1.335629	 -1.461368	 0.700418
H	 -2.305435	 -0.092167	 1.209725

	symmetry c1
}
set optking {
	frozen_dihedral = ("
		1 2 3 4
	")
}

ee,wfn = optimize('scf', return_wfn=True)
oeprop( wfn, 'DIPOLE', 'QUADRUPOLE', 'MULLIKEN_CHARGES')
f=open( 'psi4out.xyz', 'w' )
f.write( "15  " )
f.write( str(ee) + "\n" )
f.write( MOL.save_string_xyz() )
f.close()
--------------------------------------------------------------------------

    Molecular point group: c1
  Charge       = 0
  Multiplicity = 1
  Basis Set: CC-PVTZ
  Basis Set:
  @DF-RHF Final Energy:  -232.23670287149844
    Total Energy =                       -232.2367028714984372
    Molecular point group: c1
  Basis Set: CC-PVTZ
  Basis Set:
  Basis Set: CC-PVTZ
  Basis Set:
  @DF-RHF Final Energy:  -232.23674263242145
    Total Energy =                       -232.2367426324213397
  Basis Set: CC-PVTZ
  Basis Set:
  Basis Set: CC-PVTZ
  Basis Set:
  @DF-RHF Final Energy:  -232.23675149954695
    Total Energy =                       -232.2367514995468127
  Basis Set: CC-PVTZ
  Basis Set:
  Basis Set: CC-PVTZ
  Basis Set:
  @DF-RHF Final Energy:  -232.23675732235901
    Total Energy =                       -232.2367573223589261
  Basis Set: CC-PVTZ
  Basis Set:
  Charge       = 0
  Multiplicity = 1
  Basis Set: CC-PVTZ
  Basis Set:

    Orbital Energies (a.u.)
    -----------------------

    Doubly Occupied:

       1A    -20.545825     2A    -11.265535     3A    -11.210707
       4A    -11.206955     5A    -11.201889     6A     -1.363488
       7A     -1.065002     8A     -0.970899     9A     -0.869465
      10A     -0.776469    11A     -0.705342    12A     -0.648458
      13A     -0.611181    14A     -0.571875    15A     -0.566688
      16A     -0.532490    17A     -0.510559    18A     -0.478681
      19A     -0.467030    20A     -0.452090    21A     -0.431338

  @DF-RHF Final Energy:  -232.23675792446835

   => Energetics <=

    Nuclear Repulsion Energy =            191.8784666773011054
    One-Electron Energy =                -695.3265159364572128
    Two-Electron Energy =                 271.2112913346876439
    DFT Exchange-Correlation Energy =       0.0000000000000000
    Empirical Dispersion Energy =           0.0000000000000000
    PCM Polarization Energy =               0.0000000000000000
    EFP Energy =                            0.0000000000000000
    Total Energy =                       -232.2367579244684634
    Molecular point group: c1
  Basis Set: CC-PVTZ
  Basis Set:

  -Total Gradient:
     Atom            X                  Y                   Z
    ------   -----------------  -----------------  -----------------
       1        0.000412850489     0.001359820046    -0.000765705980
       2       -0.000240499874    -0.001410276751     0.000874683595
       3       -0.000852980518    -0.000694400019     0.000087987146
       4        0.000676225855     0.000715989768    -0.000217545778
       5       -0.000002673409     0.000002986129    -0.000009315930
       6        0.000004455131    -0.000010248644     0.000013680233
       7       -0.000004610958     0.000007118736     0.000028303782
       8       -0.000024946104     0.000022539649    -0.000021565530
       9       -0.000004720825    -0.000019640181    -0.000004386985
      10        0.000016810480    -0.000006756090     0.000006735411
      11        0.000015058354    -0.000003341132     0.000023261289
      12       -0.000001630590     0.000029542535    -0.000012642740
      13       -0.000000668167     0.000011214739    -0.000007401029
      14        0.000006455589    -0.000007939437     0.000000595016
      15        0.000000874552     0.000003390649     0.000003317501

  **** Optimization is complete! (in 5 steps) ****
    Final optimized geometry and variables:
    Molecular point group: c1

    Geometry (in Angstrom), charge = 0, multiplicity = 1:

    H            2.566075462856    -0.829533022113    -0.304344216609
    O            1.660367211168    -0.638177019706    -0.456613797707
    C            1.134745042296     0.115910426801     0.607534736075
    C            0.024392226015     1.016237501876     0.094898856203
    H            1.909135846770     0.734498094270     1.052078318163
    H            0.767217956497    -0.547307053731     1.384911843457
    C           -1.138336804749     0.287889526001    -0.581609222452
    H            0.458436260320     1.717590265478    -0.610199723869
    H           -0.348293117339     1.599805865140     0.933542734218
    C           -1.929167485739    -0.637127038340     0.339813488414
    H           -0.758602942884    -0.278751862350    -1.423232665746
    H           -1.810838434185     1.035698909605    -0.990561747953
    H           -2.780211447759    -1.059805926939    -0.181745404434
    H           -1.325132520650    -1.463301399770     0.695318911722
    H           -2.306420404973    -0.102541655219     1.206288213844

  Mulliken Charges: (a.u.)
   Center  Symbol    Alpha    Beta     Spin     Total
       1     H     0.39369  0.39369  0.00000  0.21262
       2     O     4.20124  4.20124  0.00000 -0.40249
       3     C     2.97650  2.97650  0.00000  0.04700
       4     C     3.09047  3.09047  0.00000 -0.18095
       5     H     0.46389  0.46389  0.00000  0.07221
       6     H     0.47100  0.47100  0.00000  0.05800
       7     C     3.08811  3.08811  0.00000 -0.17622
       8     H     0.45103  0.45103  0.00000  0.09794
       9     H     0.45598  0.45598  0.00000  0.08804
      10     C     3.15459  3.15459  0.00000 -0.30918
      11     H     0.44667  0.44667  0.00000  0.10667
      12     H     0.45056  0.45056  0.00000  0.09888
      13     H     0.44688  0.44688  0.00000  0.10625
      14     H     0.45193  0.45193  0.00000  0.09614
      15     H     0.45746  0.45746  0.00000  0.08509

   Total alpha = 21.00000, Total beta = 21.00000, Total charge = -0.00000

*** Psi4 exiting successfully. Buy a developer a beer!
