                              Psi4 1.0.54 Driver

  ==> Input File <==

--------------------------------------------------------------------------
set {
	reference rhf
	basis cc-pvtz
}

set_num_threads( 4 )
memory 2 gb

molecule MOL {
0 1

O	 0.749630	 1.305591	 -0.000460
C	 0.576499	 0.134701	 -0.003900
C	 -0.765656	 -0.550508	 -0.002152
O	 1.564816	 -0.744612	 -0.000631
C	 -1.945526	 0.411052	 0.000603
H	 -0.794329	 -1.203792	 -0.868145
H	 -0.791555	 -1.205429	 0.862701
C	 -1.673170	 1.651526	 0.844386
H	 -2.824182	 -0.102595	 0.371445
H	 -2.173320	 0.699952	 -1.018233
H	 -1.473091	 1.389634	 1.878161
H	 -2.524618	 2.321127	 0.832869
H	 -0.815349	 2.201819	 0.472028
C	 2.884339	 -0.237801	 0.002883
H	 3.064150	 0.362814	 -0.876312
H	 3.533055	 -1.098529	 0.004958
H	 3.059365	 0.363432	 0.882614

	symmetry c1
}
set optking {
	frozen_dihedral = ("
		9 5 3 6
	")
}

ee,wfn = optimize('scf', return_wfn=True)
oeprop( wfn, 'DIPOLE', 'QUADRUPOLE', 'MULLIKEN_CHARGES')
f=open( 'psi4out.xyz', 'w' )
f.write( "17  " )
f.write( str(ee) + "\n" )
f.write( MOL.save_string_xyz() )
f.close()
--------------------------------------------------------------------------

    Molecular point group: c1
  Charge       = 0
  Multiplicity = 1
  Basis Set: CC-PVTZ
  Basis Set:
  @DF-RHF Final Energy:  -345.01658717643818
    Total Energy =                       -345.0165871764384633
    Molecular point group: c1
  Basis Set: CC-PVTZ
  Basis Set:
  Basis Set: CC-PVTZ
  Basis Set:
  @DF-RHF Final Energy:  -345.02688257160025
    Total Energy =                       -345.0268825716003676
  Basis Set: CC-PVTZ
  Basis Set:
  Basis Set: CC-PVTZ
  Basis Set:
  @DF-RHF Final Energy:  -345.02853521548826
    Total Energy =                       -345.0285352154883185
  Basis Set: CC-PVTZ
  Basis Set:
  Basis Set: CC-PVTZ
  Basis Set:
  @DF-RHF Final Energy:  -345.02620450260656
    Total Energy =                       -345.0262045026069018
  Basis Set: CC-PVTZ
  Basis Set:
  @DF-RHF Final Energy:  -345.02979124287623
    Total Energy =                       -345.0297912428759446
  @DF-RHF Final Energy:  -345.02975882353229
    Total Energy =                       -345.0297588235322905
  @DF-RHF Final Energy:  -345.03068259555471
    Total Energy =                       -345.0306825955545378
  @DF-RHF Final Energy:  -345.03102975025996
    Total Energy =                       -345.0310297502595631
  @DF-RHF Final Energy:  -345.03111327850212
    Total Energy =                       -345.0311132785017207
  @DF-RHF Final Energy:  -345.03114387833523
    Total Energy =                       -345.0311438783351718
  Basis Set: CC-PVTZ
  Basis Set:
  @DF-RHF Final Energy:  -345.03115773644890
    Total Energy =                       -345.0311577364488471
  Basis Set: CC-PVTZ
  Basis Set:
  Basis Set: CC-PVTZ
  Basis Set:
  @DF-RHF Final Energy:  -345.03116130212612
    Total Energy =                       -345.0311613021260086
  Basis Set: CC-PVTZ
  Basis Set:
  Basis Set: CC-PVTZ
  Basis Set:
  @DF-RHF Final Energy:  -345.03116328166038
    Total Energy =                       -345.0311632816601559
  Basis Set: CC-PVTZ
  Basis Set:
  Charge       = 0
  Multiplicity = 1
  Basis Set: CC-PVTZ
  Basis Set:

    Orbital Energies (a.u.)
    -----------------------

    Doubly Occupied:

       1A    -20.598882     2A    -20.531430     3A    -11.364668
       4A    -11.278961     5A    -11.234123     6A    -11.225426
       7A    -11.207796     8A     -1.473055     9A     -1.365131
      10A     -1.079847    11A     -0.999567    12A     -0.941493
      13A     -0.831982    14A     -0.769008    15A     -0.697267
      16A     -0.684627    17A     -0.673994    18A     -0.631776
      19A     -0.611866    20A     -0.574083    21A     -0.559949
      22A     -0.536512    23A     -0.526335    24A     -0.494760
      25A     -0.484490    26A     -0.482091    27A     -0.459573
      28A     -0.436022

  @DF-RHF Final Energy:  -345.03116447996672

   => Energetics <=

    Nuclear Repulsion Energy =            320.4763172489900853
    One-Electron Energy =               -1105.5055386388194165
    Two-Electron Energy =                 439.9980569098623846
    DFT Exchange-Correlation Energy =       0.0000000000000000
    Empirical Dispersion Energy =           0.0000000000000000
    PCM Polarization Energy =               0.0000000000000000
    EFP Energy =                            0.0000000000000000
    Total Energy =                       -345.0311644799669466
    Molecular point group: c1
  Basis Set: CC-PVTZ
  Basis Set:

  -Total Gradient:
     Atom            X                  Y                   Z
    ------   -----------------  -----------------  -----------------
       1        0.000000944249     0.000023207809     0.000008446366
       2       -0.000017175938     0.000005366601    -0.000021041590
       3       -0.004299915709    -0.004716016021     0.004450743444
       4        0.000046324938    -0.000033690490     0.000015957383
       5       -0.000063040553    -0.000864481204    -0.007528394058
       6        0.003650369022     0.004086656600    -0.002644700368
       7       -0.000029472647    -0.000013761274    -0.000012208625
       8        0.000009055509     0.000030140475    -0.000018579814
       9        0.000757236156     0.001515637657     0.005756042987
      10       -0.000021985954    -0.000029404714    -0.000004134586
      11       -0.000001049906    -0.000005609299    -0.000003367487
      12       -0.000003405099     0.000001450873    -0.000000942500
      13       -0.000000179745    -0.000000440066     0.000003196393
      14       -0.000019017310     0.000005095725     0.000007257292
      15       -0.000004906794    -0.000009846313    -0.000025199131
      16        0.000005206102    -0.000013540147     0.000012386377
      17       -0.000008986320     0.000019233785     0.000004537915

  **** Optimization is complete! (in 14 steps) ****
    Final optimized geometry and variables:
    Molecular point group: c1

    Geometry (in Angstrom), charge = 0, multiplicity = 1:

    O            0.711009746214     0.676029221399    -0.982818064284
    C            0.398987636604    -0.216073298614    -0.268107044645
    C           -0.954252228921    -0.886742927826    -0.281733923546
    O            1.225220491863    -0.765544790684     0.604258330216
    C           -2.131767682283     0.091870934722    -0.379874219045
    H           -0.918942347810    -1.498313777934    -1.178510806036
    H           -1.042729722625    -1.535110947599     0.577026892504
    C           -2.043681460889     1.280616284736     0.577592044496
    H           -3.027271628150    -0.460546581972    -0.116521649589
    H           -2.237063265742     0.445947488259    -1.396258575104
    H           -1.918999944177     0.946492142245     1.603320647498
    H           -2.954612513192     1.865893219675     0.533701457608
    H           -1.217946460722     1.933457362309     0.330782921488
    C            2.543800033384    -0.257709318360     0.656025337347
    H            3.035831489313    -0.378505523614    -0.297610751609
    H            3.053298029119    -0.830403827463     1.413834727703
    H            2.538264195036     0.789341879579     0.919741461445

  Mulliken Charges: (a.u.)
   Center  Symbol    Alpha    Beta     Spin     Total
       1     O     4.20625  4.20625  0.00000 -0.41250
       2     C     2.79878  2.79878  0.00000  0.40245
       3     C     3.10284  3.10284  0.00000 -0.20568
       4     O     4.14617  4.14617  0.00000 -0.29235
       5     C     3.08024  3.08024  0.00000 -0.16048
       6     H     0.44073  0.44073  0.00000  0.11855
       7     H     0.43580  0.43580  0.00000  0.12839
       8     C     3.16033  3.16033  0.00000 -0.32066
       9     H     0.44974  0.44974  0.00000  0.10053
      10     H     0.44604  0.44604  0.00000  0.10792
      11     H     0.45486  0.45486  0.00000  0.09028
      12     H     0.44747  0.44747  0.00000  0.10505
      13     H     0.44232  0.44232  0.00000  0.11536
      14     C     3.03515  3.03515  0.00000 -0.07031
      15     H     0.45414  0.45414  0.00000  0.09171
      16     H     0.44517  0.44517  0.00000  0.10966
      17     H     0.45396  0.45396  0.00000  0.09208

   Total alpha = 28.00000, Total beta = 28.00000, Total charge =  0.00000

*** Psi4 exiting successfully. Buy a developer a beer!
