  ==> Input File <==

--------------------------------------------------------------------------
set {
	reference rhf
	basis cc-pvtz
}

set_num_threads( 4 )
memory 2 gb

molecule MOL {
0 1

H	 3.721907	 -0.933076	 -0.066039
O	 2.824271	 -1.154299	 0.131461
C	 2.076458	 -0.067370	 -0.038225
C	 0.626018	 -0.337582	 0.258241
O	 2.538288	 0.965419	 -0.381593
C	 -0.267326	 0.883135	 0.076490
H	 0.325620	 -1.161483	 -0.378003
H	 0.574537	 -0.713685	 1.275261
C	 -1.726822	 0.642622	 0.463839
H	 -0.210803	 1.217591	 -0.953497
H	 0.129920	 1.693110	 0.675679
C	 -2.480891	 -0.340606	 -0.429852
H	 -2.243098	 1.597649	 0.438609
H	 -1.776542	 0.301208	 1.495542
C	 -3.978759	 -0.057843	 -0.483800
H	 -2.069744	 -0.296138	 -1.434846
H	 -2.327756	 -1.357051	 -0.081504
H	 -4.489255	 -0.766951	 -1.125082
H	 -4.175246	 0.937373	 -0.868035
H	 -4.424892	 -0.123835	 0.502995

	symmetry c1
}
set optking {
	frozen_dihedral = ("
		16 12 9 6
	")
}

ee = optimize('scf')
oeprop('DIPOLE', 'QUADRUPOLE', 'MULLIKEN_CHARGES')
f=open( 'psi4out.xyz', 'w' )
f.write( "20  " )
f.write( str(ee) + "\n" )
f.write( MOL.save_string_xyz() )
f.close()
--------------------------------------------------------------------------

    Molecular point group: c1
  Charge       = 0
  Multiplicity = 1
  Basis Set: CC-PVTZ
  Basis Set:
  @DF-RHF Final Energy:  -384.09304083262873
    Total Energy =                       -384.0930408326287306
    Molecular point group: c1
  Basis Set: CC-PVTZ
  Basis Set:
  Basis Set: CC-PVTZ
  Basis Set:
  @DF-RHF Final Energy:  -384.09321644775599
    Total Energy =                       -384.0932164477559922
  Basis Set: CC-PVTZ
  Basis Set:
  Basis Set: CC-PVTZ
  Basis Set:
  @DF-RHF Final Energy:  -384.09328003634533
    Total Energy =                       -384.0932800363451065
  Basis Set: CC-PVTZ
  Basis Set:
  Basis Set: CC-PVTZ
  Basis Set:
  @DF-RHF Final Energy:  -384.09329420235650
    Total Energy =                       -384.0932942023567307
  Basis Set: CC-PVTZ
  Basis Set:
  Basis Set: CC-PVTZ
  Basis Set:
  @DF-RHF Final Energy:  -384.09330900771334
    Total Energy =                       -384.0933090077132874
  Basis Set: CC-PVTZ
  Basis Set:
  Basis Set: CC-PVTZ
  Basis Set:
  @DF-RHF Final Energy:  -384.09331372019608
    Total Energy =                       -384.0933137201957379
  Basis Set: CC-PVTZ
  Basis Set:
  Charge       = 0
  Multiplicity = 1
  Basis Set: CC-PVTZ
  Basis Set:

    Orbital Energies (a.u.)
    -----------------------

    Doubly Occupied:

       1A    -20.603780     2A    -20.540394     3A    -11.373281
       4A    -11.238480     5A    -11.221118     6A    -11.218850
       7A    -11.218079     8A    -11.210933     9A     -1.477343
      10A     -1.368853    11A     -1.097366    12A     -1.041461
      13A     -0.962642    14A     -0.870459    15A     -0.818902
      16A     -0.777203    17A     -0.703583    18A     -0.692232
      19A     -0.667796    20A     -0.636008    21A     -0.601298
      22A     -0.599071    23A     -0.575491    24A     -0.562635
      25A     -0.536614    26A     -0.514920    27A     -0.497227
      28A     -0.484321    29A     -0.472152    30A     -0.465508
      31A     -0.458294    32A     -0.446051

  @DF-RHF Final Energy:  -384.09331397793125

   => Energetics <=

    Nuclear Repulsion Energy =            376.7776655987298113
    One-Electron Energy =               -1269.8372712863242668
    Two-Electron Energy =                 508.9662917096633805
    DFT Exchange-Correlation Energy =       0.0000000000000000
    Empirical Dispersion Energy =           0.0000000000000000
    PCM Polarization Energy =               0.0000000000000000
    EFP Energy =                            0.0000000000000000
    Total Energy =                       -384.0933139779311318
    Molecular point group: c1
  Basis Set: CC-PVTZ
  Basis Set:

  -Total Gradient:
     Atom            X                  Y                   Z
    ------   -----------------  -----------------  -----------------
       1        0.000004274523    -0.000003032646     0.000001560133
       2        0.000007687582     0.000002749731    -0.000007905368
       3       -0.000006554581    -0.000000203331    -0.000005706036
       4       -0.000008681009     0.000002242095    -0.000018316925
       5        0.000005126064    -0.000003816713     0.000010161797
       6       -0.000771645317     0.002089165421    -0.001688620947
       7        0.000000225463    -0.000003582963     0.000009210294
       8        0.000001240537     0.000009664894     0.000004187087
       9        0.001669707438    -0.003620899634     0.002618595673
      10        0.000007979689    -0.000000957978    -0.000000510822
      11       -0.000006038838     0.000001798466     0.000001788073
      12       -0.003380651177     0.004239655653    -0.001909347425
      13       -0.000005343407    -0.000011017922    -0.000001270220
      14        0.000000944543    -0.000002234574     0.000009462289
      15        0.000001498026     0.000004831857     0.000008760878
      16        0.002486911337    -0.002712834854     0.000952967341
      17       -0.000003310476     0.000010660985     0.000013082154
      18        0.000004972351     0.000003101586    -0.000002271182
      19        0.000000646144    -0.000000026700     0.000003477814
      20       -0.000008988878    -0.000005263377     0.000000695393

  **** Optimization is complete! (in 7 steps) ****
    Final optimized geometry and variables:
    Molecular point group: c1

    Geometry (in Angstrom), charge = 0, multiplicity = 1:

    H            3.697068898875    -1.027132480235    -0.049669278619
    O            2.798486488675    -1.232904450076     0.159939970108
    C            2.068342389739    -0.131516740259     0.007433184982
    C            0.617596445188    -0.376144948660     0.323178292498
    O            2.543581575620     0.894882753701    -0.337110417545
    C           -0.256288283119     0.862118531646     0.167978918695
    H            0.288425772895    -1.186389295518    -0.317418358984
    H            0.572815655387    -0.763119524318     1.336409792004
    C           -1.721156457582     0.621844284803     0.531869326571
    H           -0.190373563700     1.221409969995    -0.852601953453
    H            0.144291357648     1.651614583849     0.792093661116
    C           -2.454539845993    -0.373168503774    -0.376397315718
    H           -2.228258908160     1.580610188123     0.477821124373
    H           -1.800682643924     0.300313605770     1.566961603409
    C           -3.959043062366    -0.137850301603    -0.435291844302
    H           -2.028732027589    -0.338090545094    -1.375447060230
    H           -2.272463983231    -1.385347849886    -0.026146320478
    H           -4.450276156098    -0.883265333112    -1.049942227486
    H           -4.185618808639     0.838139975239    -0.850607789973
    H           -4.399177281946    -0.184130576473     0.555506767170

  Mulliken Charges: (a.u.)
   Center  Symbol    Alpha    Beta     Spin     Total
       1     H     0.38234  0.38234  0.00000  0.23532
       2     O     4.16031  4.16031  0.00000 -0.32062
       3     C     2.80395  2.80395  0.00000  0.39211
       4     C     3.10997  3.10997  0.00000 -0.21993
       5     O     4.19126  4.19126  0.00000 -0.38252
       6     C     3.09372  3.09372  0.00000 -0.18743
       7     H     0.43616  0.43616  0.00000  0.12767
       8     H     0.43790  0.43790  0.00000  0.12420
       9     C     3.09967  3.09967  0.00000 -0.19934
      10     H     0.44528  0.44528  0.00000  0.10944
      11     H     0.43998  0.43998  0.00000  0.12004
      12     C     3.09142  3.09142  0.00000 -0.18284
      13     H     0.44709  0.44709  0.00000  0.10582
      14     H     0.45156  0.45156  0.00000  0.09689
      15     C     3.14813  3.14813  0.00000 -0.29625
      16     H     0.45196  0.45196  0.00000  0.09608
      17     H     0.45277  0.45277  0.00000  0.09445
      18     H     0.44837  0.44837  0.00000  0.10327
      19     H     0.45400  0.45400  0.00000  0.09200
      20     H     0.45418  0.45418  0.00000  0.09165

   Total alpha = 32.00000, Total beta = 32.00000, Total charge = -0.00000
