                              Psi4 1.0.54 Driver

  ==> Input File <==

--------------------------------------------------------------------------
set {
	reference rhf
	basis cc-pvtz
}

set_num_threads( 4 )
memory 2 gb

molecule MOL {
0 1

H	 5.269878	 0.195679	 1.068175
C	 4.673900	 -0.208485	 0.258034
C	 3.190199	 -0.204714	 0.610086
H	 4.865136	 0.391893	 -0.624684
H	 5.027838	 -1.214511	 0.056939
C	 2.319208	 -0.778154	 -0.505491
H	 2.876954	 0.809861	 0.827925
H	 3.035335	 -0.782733	 1.518235
C	 2.684815	 -2.205201	 -0.901415
H	 1.279539	 -0.751434	 -0.203493
H	 2.409318	 -0.146979	 -1.384856
C	 2.309738	 -3.263498	 0.122210
H	 2.169227	 -2.476707	 -1.819140
H	 3.744547	 -2.287515	 -1.124372
C	 2.974065	 -4.621098	 -0.000112
O	 1.511316	 -3.050026	 0.976743
C	 2.627529	 -5.363332	 -1.295243
H	 2.665185	 -5.203443	 0.857389
H	 4.050446	 -4.482871	 0.059001
C	 3.233860	 -6.763211	 -1.343921
H	 1.547277	 -5.436806	 -1.386091
H	 2.973632	 -4.797009	 -2.154016
C	 2.890439	 -7.515916	 -2.624789
H	 2.887910	 -7.332421	 -0.486372
H	 4.313490	 -6.689445	 -1.246294
H	 1.817565	 -7.632789	 -2.734160
H	 3.255943	 -6.988647	 -3.499691
H	 3.332428	 -8.505337	 -2.626996

	symmetry c1
}
set optking {
	frozen_dihedral = ("
		10 6 3 2
	")
}

ee,wfn = optimize('scf', return_wfn=True)
oeprop( wfn, 'DIPOLE', 'QUADRUPOLE', 'MULLIKEN_CHARGES')
f=open( 'psi4out.xyz', 'w' )
f.write( "28  " )
f.write( str(ee) + "\n" )
f.write( MOL.save_string_xyz() )
f.close()
--------------------------------------------------------------------------

    Molecular point group: c1
  Charge       = 0
  Multiplicity = 1
  Basis Set: CC-PVTZ
  Basis Set:
  @DF-RHF Final Energy:  -426.31657671047719
    Total Energy =                       -426.3165767104768520
    Molecular point group: c1
  Basis Set: CC-PVTZ
  Basis Set:
  Basis Set: CC-PVTZ
  Basis Set:
  @DF-RHF Final Energy:  -426.20492366774067
    Total Energy =                       -426.2049236677411272
  Basis Set: CC-PVTZ
  Basis Set:
  Basis Set: CC-PVTZ
  Basis Set:
  @DF-RHF Final Energy:  -426.29767850448036
    Total Energy =                       -426.2976785044802455
  Basis Set: CC-PVTZ
  Basis Set:
  Basis Set: CC-PVTZ
  Basis Set:
  @DF-RHF Final Energy:  -426.31719931541090
    Total Energy =                       -426.3171993154109032
  Basis Set: CC-PVTZ
  Basis Set:
  @DF-RHF Final Energy:  -426.31489601374756
    Total Energy =                       -426.3148960137477843
  @DF-RHF Final Energy:  -426.31538269064436
    Total Energy =                       -426.3153826906442418
  @DF-RHF Final Energy:  -426.31770066129229
    Total Energy =                       -426.3177006612927471
  Basis Set: CC-PVTZ
  Basis Set:
  @DF-RHF Final Energy:  -426.31780653191697
    Total Energy =                       -426.3178065319166308
  Basis Set: CC-PVTZ
  Basis Set:
  Basis Set: CC-PVTZ
  Basis Set:
  @DF-RHF Final Energy:  -426.31781237158191
    Total Energy =                       -426.3178123715820220
  Basis Set: CC-PVTZ
  Basis Set:
  Basis Set: CC-PVTZ
  Basis Set:
  @DF-RHF Final Energy:  -426.31781477973232
    Total Energy =                       -426.3178147797316342
  Basis Set: CC-PVTZ
  Basis Set:
  Charge       = 0
  Multiplicity = 1
  Basis Set: CC-PVTZ
  Basis Set:

    Orbital Energies (a.u.)
    -----------------------

    Doubly Occupied:

       1A    -20.536536     2A    -11.316381     3A    -11.229775
       4A    -11.227397     5A    -11.226858     6A    -11.223771
       7A    -11.215541     8A    -11.214193     9A    -11.210550
      10A    -11.208050    11A     -1.396455    12A     -1.096128
      13A     -1.078598    14A     -1.022633    15A     -0.990015
      16A     -0.912128    17A     -0.881197    18A     -0.809073
      19A     -0.795031    20A     -0.720182    21A     -0.667712
      22A     -0.653850    23A     -0.639693    24A     -0.622152
      25A     -0.609406    26A     -0.598047    27A     -0.577677
      28A     -0.560191    29A     -0.543605    30A     -0.540016
      31A     -0.529041    32A     -0.509834    33A     -0.502287
      34A     -0.485770    35A     -0.479515    36A     -0.476587
      37A     -0.468098    38A     -0.463674    39A     -0.458842
      40A     -0.393368

  @DF-RHF Final Energy:  -426.31781399308932

   => Energetics <=

    Nuclear Repulsion Energy =            538.7379238125253096
    One-Electron Energy =               -1645.9317651414121428
    Two-Electron Energy =                 680.8760273357979713
    DFT Exchange-Correlation Energy =       0.0000000000000000
    Empirical Dispersion Energy =           0.0000000000000000
    PCM Polarization Energy =               0.0000000000000000
    EFP Energy =                            0.0000000000000000
    Total Energy =                       -426.3178139930887482
    Molecular point group: c1
  Basis Set: CC-PVTZ
  Basis Set:

  -Total Gradient:
     Atom            X                  Y                   Z
    ------   -----------------  -----------------  -----------------
       1       -0.000006998187     0.000004422385     0.000001160221
       2        0.000402662263    -0.000849009350     0.000257272172
       3       -0.000463367562     0.000888464699    -0.000274353880
       4        0.000003092394    -0.000006983012     0.000012580072
       5       -0.000013811489    -0.000002233879     0.000010088719
       6       -0.000512434441     0.001072565730    -0.000345281497
       7        0.000007766718     0.000000835106    -0.000010658667
       8       -0.000003640688     0.000011521135    -0.000008341231
       9        0.000078009313     0.000008639661    -0.000074543646
      10        0.000584120036    -0.001147742466     0.000364364189
      11       -0.000009450446    -0.000013459344     0.000003879522
      12       -0.000061901912    -0.000010420323     0.000156926274
      13       -0.000015624016    -0.000022471864    -0.000001517160
      14       -0.000023140844     0.000016042379     0.000017734524
      15        0.000074840022     0.000053620880    -0.000035588209
      16        0.000046648239     0.000010266735    -0.000146706920
      17       -0.000053343281     0.000003969774     0.000053899520
      18       -0.000028871810     0.000003581466     0.000003093598
      19        0.000013012872    -0.000018774186     0.000034697525
      20        0.000006583124     0.000003506500    -0.000008536833
      21       -0.000017490517    -0.000047390084     0.000010075481
      22       -0.000037293028     0.000044436562     0.000007524190
      23        0.000016000342     0.000022013603    -0.000005525849
      24       -0.000011845912    -0.000002099358    -0.000008215887
      25        0.000016145799    -0.000012151022    -0.000004475588
      26        0.000002879949     0.000005212626     0.000010844626
      27       -0.000004223394     0.000005712192    -0.000009377049
      28        0.000011676460    -0.000022076545    -0.000011018220

  **** Optimization is complete! (in 11 steps) ****
    Final optimized geometry and variables:
    Molecular point group: c1

    Geometry (in Angstrom), charge = 0, multiplicity = 1:

    H            2.164204039981     4.171916316272     0.383365081747
    C            1.419298656845     3.534407889202    -0.078475718224
    C            0.264338365162     3.272497257937     0.885634930722
    H            1.076822142383     4.029885211260    -0.981863322243
    H            1.920240285781     2.619572011025    -0.373743834599
    C           -0.911556170746     2.494837246078     0.288490051190
    H           -0.115800866730     4.224326827976     1.242666754533
    H            0.634565224773     2.748213561294     1.758562181464
    C           -0.574912864255     1.115261733908    -0.275475055389
    H           -1.665640079049     2.368008911962     1.054489070078
    H           -1.358773841409     3.082277838724    -0.508187811954
    C           -0.167037905176     0.085732636875     0.764444047870
    H           -1.454226408669     0.709241041813    -0.769583396606
    H            0.188326986177     1.169196864410    -1.043140406824
    C            0.560932034712    -1.151343012092     0.275741226430
    O           -0.426313165593     0.225619053101     1.916196875382
    C           -0.281737821340    -2.033071487826    -0.652174715635
    H            0.859799635876    -1.711028253734     1.151681967890
    H            1.461631473365    -0.837692370202    -0.245263932580
    C            0.448602144461    -3.307855497090    -1.065839600347
    H           -1.207710431285    -2.297046054510    -0.148772868244
    H           -0.559565766360    -1.478460305343    -1.542844302745
    C           -0.380081754136    -4.195249971466    -1.988209408942
    H            0.722808297343    -3.867259210886    -0.176481988048
    H            1.379605832813    -3.043105801461    -1.559501448857
    H           -1.303256152347    -4.503181252961    -1.509055228929
    H           -0.640953197939    -3.674360882090    -2.903465869359
    H            0.164890191470    -5.091060594659    -2.261906300125

  Mulliken Charges: (a.u.)
   Center  Symbol    Alpha    Beta     Spin     Total
       1     H     0.44438  0.44438  0.00000  0.11125
       2     C     3.15432  3.15432  0.00000 -0.30863
       3     C     3.09706  3.09706  0.00000 -0.19412
       4     H     0.45501  0.45501  0.00000  0.08998
       5     H     0.45807  0.45807  0.00000  0.08386
       6     C     3.09349  3.09349  0.00000 -0.18698
       7     H     0.44724  0.44724  0.00000  0.10552
       8     H     0.44156  0.44156  0.00000  0.11687
       9     C     3.13838  3.13838  0.00000 -0.27677
      10     H     0.44053  0.44053  0.00000  0.11894
      11     H     0.44657  0.44657  0.00000  0.10685
      12     C     2.86223  2.86223  0.00000  0.27554
      13     H     0.43137  0.43137  0.00000  0.13725
      14     H     0.43882  0.43882  0.00000  0.12235
      15     C     3.09395  3.09395  0.00000 -0.18790
      16     O     4.17850  4.17850  0.00000 -0.35700
      17     C     3.10033  3.10033  0.00000 -0.20067
      18     H     0.43794  0.43794  0.00000  0.12411
      19     H     0.44889  0.44889  0.00000  0.10222
      20     C     3.08730  3.08730  0.00000 -0.17460
      21     H     0.44555  0.44555  0.00000  0.10891
      22     H     0.45041  0.45041  0.00000  0.09918
      23     C     3.14919  3.14919  0.00000 -0.29839
      24     H     0.44982  0.44982  0.00000  0.10036
      25     H     0.45365  0.45365  0.00000  0.09270
      26     H     0.45342  0.45342  0.00000  0.09316
      27     H     0.45519  0.45519  0.00000  0.08963
      28     H     0.44681  0.44681  0.00000  0.10637

   Total alpha = 40.00000, Total beta = 40.00000, Total charge =  0.00000

*** Psi4 exiting successfully. Buy a developer a beer!
