  ==> Input File <==

--------------------------------------------------------------------------
set {
	reference rhf
	basis 6-31G*
}

set_num_threads( 1 )
memory 2 gb

molecule MOL {
0 1

H	 1.136379	 0.211822	 1.465562
C	 1.135357	 0.094285	 0.374742
C	 0.065331	 0.871482	 -0.349150
O	 1.941633	 -0.601957	 -0.151457
C	 -1.347094	 0.361945	 -0.028357
H	 0.270742	 0.827229	 -1.412522
H	 0.152357	 1.910223	 -0.033549
C	 -1.616298	 -1.046959	 -0.558395
H	 -2.067358	 1.052842	 -0.454844
H	 -1.504269	 0.386228	 1.047909
H	 -1.498731	 -1.085171	 -1.636933
H	 -2.627285	 -1.361848	 -0.321609
H	 -0.935129	 -1.775755	 -0.129147

	symmetry c1
}
set optking {
	frozen_dihedral = ("
		6 3 5 9
	")
}

ee = energy('scf')
oeprop('DIPOLE', 'QUADRUPOLE', 'MULLIKEN_CHARGES')
f=open( 'psi4out.xyz', 'w' )
f.write( "13  " )
f.write( str(ee) + "\n" )
f.write( MOL.save_string_xyz() )
f.close()
--------------------------------------------------------------------------

    Molecular point group: c1

    Geometry (in Angstrom), charge = 0, multiplicity = 1:

       Center              X                  Y                   Z               Mass
    ------------   -----------------  -----------------  -----------------  -----------------
           H          1.097865830209     0.296370422736     1.613265369522     1.007825032070
           C          1.096843830209     0.178833422736     0.522445369522    12.000000000000
           C          0.026817830209     0.956030422736    -0.201446630478    12.000000000000
           O          1.903119830209    -0.517408577264    -0.003753630478    15.994914619560
           C         -1.385607169791     0.446493422736     0.119346369522    12.000000000000
           H          0.232228830209     0.911777422736    -1.264818630478     1.007825032070
           H          0.113843830209     1.994771422736     0.114154369522     1.007825032070
           C         -1.654811169791    -0.962410577264    -0.410691630478    12.000000000000
           H         -2.105871169791     1.137390422736    -0.307140630478     1.007825032070
           H         -1.542782169791     0.470776422736     1.195612369522     1.007825032070
           H         -1.537244169791    -1.000622577264    -1.489229630478     1.007825032070
           H         -2.665798169791    -1.277299577264    -0.173905630478     1.007825032070
           H         -0.973642169791    -1.691206577264     0.018556369522     1.007825032070

  Charge       = 0
  Multiplicity = 1
  Basis Set: 6-31G*
  Basis Set:

    Orbital Energies (a.u.)
    -----------------------

    Doubly Occupied:

       1A    -20.563554     2A    -11.327106     3A    -11.239134
       4A    -11.235660     5A    -11.219380     6A     -1.403373
       7A     -1.085892     8A     -0.972631     9A     -0.847467
      10A     -0.787192    11A     -0.668497    12A     -0.649921
      13A     -0.622412    14A     -0.594431    15A     -0.557870
      16A     -0.532332    17A     -0.506443    18A     -0.492702
      19A     -0.481136    20A     -0.410407

  @DF-RHF Final Energy:  -230.98449403932415

   => Energetics <=

    Nuclear Repulsion Energy =            174.3017190752496504
    One-Electron Energy =                -658.1773521677148437
    Two-Electron Energy =                 252.8911390531405914
    DFT Exchange-Correlation Energy =       0.0000000000000000
    Empirical Dispersion Energy =           0.0000000000000000
    PCM Polarization Energy =               0.0000000000000000
    EFP Energy =                            0.0000000000000000
    Total Energy =                       -230.9844940393246020

  Mulliken Charges: (a.u.)
   Center  Symbol    Alpha    Beta     Spin     Total
       1     H     0.43200  0.43200  0.00000  0.13599
       2     C     2.83319  2.83319  0.00000  0.33361
       3     C     3.20563  3.20563  0.00000 -0.41126
       4     O     4.23620  4.23620  0.00000 -0.47241
       5     C     3.16505  3.16505  0.00000 -0.33011
       6     H     0.40018  0.40018  0.00000  0.19964
       7     H     0.41025  0.41025  0.00000  0.17951
       8     C     3.24208  3.24208  0.00000 -0.48416
       9     H     0.41146  0.41146  0.00000  0.17708
      10     H     0.41840  0.41840  0.00000  0.16321
      11     H     0.41572  0.41572  0.00000  0.16857
      12     H     0.41611  0.41611  0.00000  0.16779
      13     H     0.41374  0.41374  0.00000  0.17253

   Total alpha = 20.00000, Total beta = 20.00000, Total charge = -0.00000
