  ==> Input File <==

--------------------------------------------------------------------------
set {
	reference rhf
	basis cc-pvtz
}

set_num_threads( 4 )
memory 2 gb

molecule MOL {
0 1

H	 1.091845	 0.277429	 -0.773942
C	 0.788096	 -0.429819	 0.000000
N	 -0.537714	 -0.645117	 0.000000
O	 1.577527	 -0.928881	 0.737871
C	 -1.522613	 0.412524	 0.000000
H	 -0.845894	 -1.585866	 0.000000
H	 -2.150256	 0.356137	 -0.880771
H	 -1.005621	 1.357208	 0.000000
H	 -2.150256	 0.356137	 0.880771

	symmetry c1
}
set optking {
	frozen_dihedral = ("
		1 2 3 6
	")
}

ee = optimize('scf')
oeprop('DIPOLE', 'QUADRUPOLE', 'MULLIKEN_CHARGES')
f=open( 'psi4out.xyz', 'w' )
f.write( "9  " )
f.write( str(ee) + "\n" )
f.write( MOL.save_string_xyz() )
f.close()
--------------------------------------------------------------------------

    Molecular point group: c1
  Charge       = 0
  Multiplicity = 1
  Basis Set: CC-PVTZ
  Basis Set:
  @DF-RHF Final Energy:  -208.01905672919560
    Total Energy =                       -208.0190567291954835
    Molecular point group: c1
  Basis Set: CC-PVTZ
  Basis Set:
  Basis Set: CC-PVTZ
  Basis Set:
  @DF-RHF Final Energy:  -208.02345893255529
    Total Energy =                       -208.0234589325551440
  Basis Set: CC-PVTZ
  Basis Set:
  Basis Set: CC-PVTZ
  Basis Set:
  @DF-RHF Final Energy:  -208.02776723437410
    Total Energy =                       -208.0277672343740107
  Basis Set: CC-PVTZ
  Basis Set:
  Basis Set: CC-PVTZ
  Basis Set:
  @DF-RHF Final Energy:  -208.03109004833985
    Total Energy =                       -208.0310900483398484
  Basis Set: CC-PVTZ
  Basis Set:
  @DF-RHF Final Energy:  -208.03144719826417
    Total Energy =                       -208.0314471982641749
  @DF-RHF Final Energy:  -208.03159803049186
    Total Energy =                       -208.0315980304918071
  @DF-RHF Final Energy:  -208.03189253130216
    Total Energy =                       -208.0318925313021055
  @DF-RHF Final Energy:  -208.03207712629558
    Total Energy =                       -208.0320771262954338
  Basis Set: CC-PVTZ
  Basis Set:
  @DF-RHF Final Energy:  -208.03212051699703
    Total Energy =                       -208.0321205169969971
  Basis Set: CC-PVTZ
  Basis Set:
  Basis Set: CC-PVTZ
  Basis Set:
  @DF-RHF Final Energy:  -208.03211381321219
    Total Energy =                       -208.0321138132121632
  Basis Set: CC-PVTZ
  Basis Set:
  Basis Set: CC-PVTZ
  Basis Set:
  @DF-RHF Final Energy:  -208.03213051786679
    Total Energy =                       -208.0321305178668183
  Basis Set: CC-PVTZ
  Basis Set:
  Charge       = 0
  Multiplicity = 1
  Basis Set: CC-PVTZ
  Basis Set:

    Orbital Energies (a.u.)
    -----------------------

    Doubly Occupied:

       1A    -20.533644     2A    -15.578810     3A    -11.343733
       4A    -11.268426     5A     -1.407092     6A     -1.239557
       7A     -0.956000     8A     -0.839692     9A     -0.698463
      10A     -0.680238    11A     -0.642060    12A     -0.587342
      13A     -0.566679    14A     -0.544290    15A     -0.439558
      16A     -0.403839

  @DF-RHF Final Energy:  -208.03213070562427

   => Energetics <=

    Nuclear Repulsion Energy =            120.5638934456136155
    One-Electron Energy =                -521.7332013820150678
    Two-Electron Energy =                 193.1371772307771835
    DFT Exchange-Correlation Energy =       0.0000000000000000
    Empirical Dispersion Energy =           0.0000000000000000
    PCM Polarization Energy =               0.0000000000000000
    EFP Energy =                            0.0000000000000000
    Total Energy =                       -208.0321307056242404
    Molecular point group: c1
  Basis Set: CC-PVTZ
  Basis Set:

  -Total Gradient:
     Atom            X                  Y                   Z
    ------   -----------------  -----------------  -----------------
       1       -0.002399780079    -0.006911128892    -0.008356416353
       2        0.002031585713     0.009788316194     0.008103871306
       3        0.004556761218    -0.005209036388     0.011252565864
       4        0.000011011443    -0.000007782021     0.000000934696
       5        0.000020128294    -0.000021721566     0.000023587815
       6       -0.004196080501     0.002349541119    -0.011009737448
       7       -0.000002587933    -0.000005519457    -0.000006305461
       8       -0.000014045485     0.000012084378    -0.000004836930
       9       -0.000006992670     0.000005246631    -0.000003663490

  **** Optimization is complete! (in 12 steps) ****
    Final optimized geometry and variables:
    Molecular point group: c1

    Geometry (in Angstrom), charge = 0, multiplicity = 1:

    H            0.827582053815     0.818054366231    -0.888655939546
    C            0.682631789837     0.003245526302    -0.173698708092
    N           -0.603713487348    -0.113087501373     0.291331464494
    O            1.556601811537    -0.752195155000     0.081054178797
    C           -1.579651180895     0.865890140819    -0.154511608186
    H           -0.941796724120    -1.047383907112     0.219793123400
    H           -1.824546491121     0.783845154915    -1.210244944325
    H           -1.209059308628     1.863573041722     0.035219655286
    H           -2.487717006932     0.742422172419     0.417582064380

  Mulliken Charges: (a.u.)
   Center  Symbol    Alpha    Beta     Spin     Total
       1     H     0.47238  0.47238  0.00000  0.05524
       2     C     2.87470  2.87470  0.00000  0.25059
       3     N     3.60070  3.60070  0.00000 -0.20140
       4     O     4.18815  4.18815  0.00000 -0.37630
       5     C     3.08753  3.08753  0.00000 -0.17507
       6     H     0.42202  0.42202  0.00000  0.15596
       7     H     0.45948  0.45948  0.00000  0.08103
       8     H     0.45026  0.45026  0.00000  0.09948
       9     H     0.44477  0.44477  0.00000  0.11045

   Total alpha = 16.00000, Total beta = 16.00000, Total charge = -0.00000
