                              Psi4 1.0.54 Driver

  ==> Input File <==

--------------------------------------------------------------------------
set {
	reference rhf
	basis cc-pvtz
}

set_num_threads( 4 )
memory 2 gb

molecule MOL {
0 1

O	 0.144699	 -0.077679	 -0.636511
C	 1.121787	 0.124983	 0.000110
C	 1.347797	 1.309971	 0.903540
O	 2.167739	 -0.685178	 -0.000678
C	 0.176705	 2.280868	 0.946285
H	 1.572720	 0.921701	 1.891537
H	 2.254230	 1.802077	 0.566388
C	 0.438520	 3.467050	 1.869721
H	 -0.713978	 1.753658	 1.269199
H	 -0.031458	 2.635380	 -0.056976
C	 -0.729828	 4.445384	 1.921809
H	 0.649722	 3.105396	 2.872638
H	 1.332165	 3.991238	 1.541299
H	 -1.630851	 3.958994	 2.279813
H	 -0.516271	 5.276223	 2.584211
H	 -0.943389	 4.851364	 0.938878
C	 3.449556	 -0.089977	 -0.000570
H	 3.585694	 0.522473	 -0.879546
H	 4.155805	 -0.904274	 -0.001389
H	 3.586173	 0.521118	 0.879272

	symmetry c1
}
set optking {
	frozen_dihedral = ("
		1 2 4 17
	")
}

ee,wfn = optimize('scf', return_wfn=True)
oeprop( wfn, 'DIPOLE', 'QUADRUPOLE', 'MULLIKEN_CHARGES')
f=open( 'psi4out.xyz', 'w' )
f.write( "20  " )
f.write( str(ee) + "\n" )
f.write( MOL.save_string_xyz() )
f.close()
--------------------------------------------------------------------------

    Molecular point group: c1
  Charge       = 0
  Multiplicity = 1
  Basis Set: CC-PVTZ
  Basis Set:
  @DF-RHF Final Energy:  -384.05875801992369
    Total Energy =                       -384.0587580199235163
    Molecular point group: c1
  Basis Set: CC-PVTZ
  Basis Set:
  Basis Set: CC-PVTZ
  Basis Set:
  @DF-RHF Final Energy:  -384.04461555263765
    Total Energy =                       -384.0446155526379926
  Basis Set: CC-PVTZ
  Basis Set:
  Basis Set: CC-PVTZ
  Basis Set:
  @DF-RHF Final Energy:  -384.06424324526927
    Total Energy =                       -384.0642432452692674
  Basis Set: CC-PVTZ
  Basis Set:
  Basis Set: CC-PVTZ
  Basis Set:
  @DF-RHF Final Energy:  -384.03276059874639
    Total Energy =                       -384.0327605987465631
  Basis Set: CC-PVTZ
  Basis Set:
  @DF-RHF Final Energy:  -384.06349537232603
    Total Energy =                       -384.0634953723260878
  @DF-RHF Final Energy:  -384.06570763899532
    Total Energy =                       -384.0657076389952636
  Basis Set: CC-PVTZ
  Basis Set:
  @DF-RHF Final Energy:  -384.06615389797815
    Total Energy =                       -384.0661538979785519
  Basis Set: CC-PVTZ
  Basis Set:
  Basis Set: CC-PVTZ
  Basis Set:
  @DF-RHF Final Energy:  -384.06620181106189
    Total Energy =                       -384.0662018110620011
  Basis Set: CC-PVTZ
  Basis Set:
  Basis Set: CC-PVTZ
  Basis Set:
  @DF-RHF Final Energy:  -384.06620536973486
    Total Energy =                       -384.0662053697348028
  Basis Set: CC-PVTZ
  Basis Set:
  Charge       = 0
  Multiplicity = 1
  Basis Set: CC-PVTZ
  Basis Set:

    Orbital Energies (a.u.)
    -----------------------

    Doubly Occupied:

       1A    -20.588036     2A    -20.535205     3A    -11.366754
       4A    -11.292647     5A    -11.242099     6A    -11.222317
       7A    -11.221425     8A    -11.211488     9A     -1.463697
      10A     -1.369390    11A     -1.092635    12A     -1.018053
      13A     -0.981030    14A     -0.901797    15A     -0.810647
      16A     -0.767569    17A     -0.700449    18A     -0.687482
      19A     -0.676597    20A     -0.650087    21A     -0.611181
      22A     -0.592711    23A     -0.590358    24A     -0.554546
      25A     -0.540852    26A     -0.520674    27A     -0.503982
      28A     -0.483687    29A     -0.480114    30A     -0.474507
      31A     -0.453662    32A     -0.435005

  @DF-RHF Final Energy:  -384.06620548752358

   => Energetics <=

    Nuclear Repulsion Energy =            383.4272675664233248
    One-Electron Energy =               -1282.9055833629176959
    Two-Electron Energy =                 515.4121103089710232
    DFT Exchange-Correlation Energy =       0.0000000000000000
    Empirical Dispersion Energy =           0.0000000000000000
    PCM Polarization Energy =               0.0000000000000000
    EFP Energy =                            0.0000000000000000
    Total Energy =                       -384.0662054875233480
    Molecular point group: c1
  Basis Set: CC-PVTZ
  Basis Set:

  -Total Gradient:
     Atom            X                  Y                   Z
    ------   -----------------  -----------------  -----------------
       1        0.001957890091     0.001275732594    -0.003195591967
       2       -0.002840912506    -0.002059040728     0.002870208839
       3        0.000048023081     0.000027666955    -0.000028773096
       4        0.000790364959     0.001238397322     0.003641487017
       5       -0.000010366493    -0.000001958161     0.000000291887
       6       -0.000000042181     0.000002595093    -0.000012646089
       7       -0.000003721482    -0.000007201083     0.000000270607
       8        0.000007139945    -0.000012471328     0.000000698544
       9        0.000001033975     0.000011328251    -0.000001317287
      10       -0.000002026367     0.000002337476     0.000011335679
      11       -0.000013366143    -0.000000183308    -0.000009107869
      12       -0.000001497936    -0.000003176643    -0.000010614555
      13       -0.000002370548    -0.000011924222     0.000004025641
      14        0.000004643996     0.000005489243    -0.000003661727
      15        0.000002759098    -0.000009548169    -0.000006478909
      16       -0.000000779123    -0.000001845228     0.000010480270
      17        0.000019511810    -0.000438044710    -0.003296652681
      18        0.000001048482     0.000016905076    -0.000010196360
      19        0.000024632319    -0.000060413648     0.000002342879
      20        0.000018035021     0.000025355216     0.000033899179

  **** Optimization is complete! (in 10 steps) ****
    Final optimized geometry and variables:
    Molecular point group: c1

    Geometry (in Angstrom), charge = 0, multiplicity = 1:

    O           -0.899806417049    -1.393067269269    -1.131473695590
    C            0.061622412652    -1.210216365718    -0.477207913754
    C            0.351812642783     0.084489184541     0.249101889712
    O            0.957036338270    -2.194254522112    -0.327182877002
    C           -0.809600665265     1.068837936853     0.213403815067
    H            0.622351056166    -0.160081767767     1.271508652175
    H            1.234906992339     0.532764401655    -0.196215367053
    C           -0.493654160775     2.367128365381     0.950267047369
    H           -1.685833399534     0.602428631616     0.649196626477
    H           -1.064261162042     1.281764196194    -0.817786231082
    C           -1.651786902950     3.358586063650     0.922408310081
    H           -0.235323924101     2.145386208535     1.982483654768
    H            0.385724578739     2.829544473786     0.509179465174
    H           -2.536528396882     2.938525592702     1.388363793888
    H           -1.399829509920     4.270336862768     1.451306065816
    H           -1.911841419946     3.626631859413    -0.095851607740
    C            2.338134114055    -1.929664122561    -0.341576284736
    H            2.622010993220    -1.390864458288    -1.237242657112
    H            2.827218535302    -2.890158737889    -0.342053262465
    H            2.655838183944    -1.374427365959     0.531571522134

  Mulliken Charges: (a.u.)
   Center  Symbol    Alpha    Beta     Spin     Total
       1     O     4.17305  4.17305  0.00000 -0.34609
       2     C     2.80095  2.80095  0.00000  0.39810
       3     C     3.13300  3.13300  0.00000 -0.26600
       4     O     4.14072  4.14072  0.00000 -0.28144
       5     C     3.08193  3.08193  0.00000 -0.16387
       6     H     0.43744  0.43744  0.00000  0.12513
       7     H     0.44310  0.44310  0.00000  0.11380
       8     C     3.08529  3.08529  0.00000 -0.17058
       9     H     0.44516  0.44516  0.00000  0.10969
      10     H     0.44328  0.44328  0.00000  0.11344
      11     C     3.14985  3.14985  0.00000 -0.29970
      12     H     0.45550  0.45550  0.00000  0.08900
      13     H     0.45600  0.45600  0.00000  0.08799
      14     H     0.45314  0.45314  0.00000  0.09372
      15     H     0.44814  0.44814  0.00000  0.10372
      16     H     0.45325  0.45325  0.00000  0.09350
      17     C     3.04683  3.04683  0.00000 -0.09366
      18     H     0.45796  0.45796  0.00000  0.08409
      19     H     0.43461  0.43461  0.00000  0.13078
      20     H     0.46081  0.46081  0.00000  0.07839

   Total alpha = 32.00000, Total beta = 32.00000, Total charge = -0.00000

*** Psi4 exiting successfully. Buy a developer a beer!
