                              Psi4 1.0.54 Driver

  ==> Input File <==

--------------------------------------------------------------------------
set {
	reference rhf
	basis cc-pvtz
}

set_num_threads( 4 )
memory 2 gb

molecule MOL {
0 1

H	 2.718289	 -0.552936	 -0.772563
N	 2.326826	 -0.066186	 0.000000
C	 0.934676	 -0.005420	 0.000000
H	 2.726255	 -0.370435	 0.857270
C	 0.226436	 -0.001077	 -1.195129
C	 0.226436	 -0.001077	 1.195129
H	 0.759091	 -0.011439	 -2.128123
C	 -1.153391	 0.009141	 -1.189028
H	 0.759091	 -0.011439	 2.128123
C	 -1.153391	 0.009141	 1.189028
H	 -1.680905	 0.012964	 -2.124348
C	 -1.857876	 0.014675	 0.000000
H	 -1.680905	 0.012964	 2.124348
H	 -2.930222	 0.022904	 0.000000

	symmetry c1
}
set optking {
	frozen_dihedral = ("
		1 2 3 5
	")
}

ee,wfn = optimize('scf', return_wfn=True)
oeprop( wfn, 'DIPOLE', 'QUADRUPOLE', 'MULLIKEN_CHARGES')
f=open( 'psi4out.xyz', 'w' )
f.write( "14  " )
f.write( str(ee) + "\n" )
f.write( MOL.save_string_xyz() )
f.close()
--------------------------------------------------------------------------

    Molecular point group: c1
  Charge       = 0
  Multiplicity = 1
  Basis Set: CC-PVTZ
  Basis Set:
  @DF-RHF Final Energy:  -285.83312959818295
    Total Energy =                       -285.8331295981827225
    Molecular point group: c1
  Basis Set: CC-PVTZ
  Basis Set:
  Basis Set: CC-PVTZ
  Basis Set:
  @DF-RHF Final Energy:  -285.83354294396798
    Total Energy =                       -285.8335429439682684
  Basis Set: CC-PVTZ
  Basis Set:
  Basis Set: CC-PVTZ
  Basis Set:
  @DF-RHF Final Energy:  -285.83370061546213
    Total Energy =                       -285.8337006154621349
  Basis Set: CC-PVTZ
  Basis Set:
  Basis Set: CC-PVTZ
  Basis Set:
  @DF-RHF Final Energy:  -285.83370243658936
    Total Energy =                       -285.8337024365896468
  Basis Set: CC-PVTZ
  Basis Set:
  Charge       = 0
  Multiplicity = 1
  Basis Set: CC-PVTZ
  Basis Set:

    Orbital Energies (a.u.)
    -----------------------

    Doubly Occupied:

       1A    -15.556239     2A    -11.270935     3A    -11.227234
       4A    -11.227176     5A    -11.215777     6A    -11.215572
       7A    -11.211152     8A     -1.227190     9A     -1.130718
      10A     -1.013553    11A     -0.988044    12A     -0.832987
      13A     -0.813617    14A     -0.708189    15A     -0.687420
      16A     -0.654898    17A     -0.598954    18A     -0.594371
      19A     -0.581667    20A     -0.535555    21A     -0.506489
      22A     -0.487356    23A     -0.449288    24A     -0.336339
      25A     -0.294857

  @DF-RHF Final Energy:  -285.83370285787396

   => Energetics <=

    Nuclear Repulsion Energy =            273.7357368746576185
    One-Electron Energy =                -928.4077269257156786
    Two-Electron Energy =                 368.8382871931839304
    DFT Exchange-Correlation Energy =       0.0000000000000000
    Empirical Dispersion Energy =           0.0000000000000000
    PCM Polarization Energy =               0.0000000000000000
    EFP Energy =                            0.0000000000000000
    Total Energy =                       -285.8337028578741297
    Molecular point group: c1
  Basis Set: CC-PVTZ
  Basis Set:

  -Total Gradient:
     Atom            X                  Y                   Z
    ------   -----------------  -----------------  -----------------
       1        0.000025392710    -0.000418486911     0.000271408835
       2       -0.000099309897     0.000709974235    -0.000374024113
       3        0.000147173542    -0.000681936693     0.000079237460
       4        0.000016471267     0.000003129922     0.000011570027
       5       -0.000033620479     0.000404650223    -0.000003300456
       6       -0.000053969389     0.000023189715     0.000007376678
       7        0.000003297488    -0.000004808729     0.000002151325
       8        0.000006402263    -0.000022730993     0.000009332132
       9        0.000001731851    -0.000003164509    -0.000005241700
      10        0.000011136650    -0.000025084130    -0.000004120919
      11        0.000000427685     0.000004432214     0.000002280857
      12       -0.000021170622    -0.000009426856     0.000002573624
      13       -0.000006038147     0.000004333776    -0.000002161414
      14        0.000002075076     0.000015928736     0.000002917666

  **** Optimization is complete! (in 5 steps) ****
    Final optimized geometry and variables:
    Molecular point group: c1

    Geometry (in Angstrom), charge = 0, multiplicity = 1:

    H            2.741985876010    -0.449404810722    -0.792447650412
    N            2.328382079583    -0.017447244032     0.001256717130
    C            0.934189153341    -0.030064544842     0.001970026121
    H            2.740487201570    -0.350734110966     0.841855992283
    C            0.228253667322    -0.010747361575    -1.194675338675
    C            0.224219619563    -0.003376324621     1.195380156387
    H            0.763149399904    -0.020187751909    -2.126325267161
    C           -1.150758742727     0.027802901472    -1.191203365587
    H            0.754826833833    -0.010777508118     2.129603654040
    C           -1.155378261271     0.038257157184     1.186839141627
    H           -1.676480342666     0.040340946260    -2.127445482520
    C           -1.857243636163     0.052961152883    -0.003227198816
    H           -1.684263203873     0.057903768591     2.121179153344
    H           -2.929154027507     0.084254107958    -0.005340804405

  Mulliken Charges: (a.u.)
   Center  Symbol    Alpha    Beta     Spin     Total
       1     H     0.42216  0.42216  0.00000  0.15568
       2     N     3.66698  3.66698  0.00000 -0.33397
       3     C     2.88975  2.88975  0.00000  0.22051
       4     H     0.42345  0.42345  0.00000  0.15309
       5     C     3.11666  3.11666  0.00000 -0.23333
       6     C     3.11753  3.11753  0.00000 -0.23506
       7     H     0.43340  0.43340  0.00000  0.13319
       8     C     3.05801  3.05801  0.00000 -0.11601
       9     H     0.43434  0.43434  0.00000  0.13131
      10     C     3.05810  3.05810  0.00000 -0.11619
      11     H     0.42470  0.42470  0.00000  0.15060
      12     C     3.10486  3.10486  0.00000 -0.20972
      13     H     0.42472  0.42472  0.00000  0.15056
      14     H     0.42534  0.42534  0.00000  0.14933

   Total alpha = 25.00000, Total beta = 25.00000, Total charge =  0.00000

*** Psi4 exiting successfully. Buy a developer a beer!
