  ==> Input File <==

--------------------------------------------------------------------------
set {
	reference rhf
	basis cc-pvtz
}

set_num_threads( 4 )
memory 2 gb

molecule MOL {
0 1

H	 1.128311	 0.207724	 1.465118
C	 1.134565	 0.093781	 0.372499
C	 0.062554	 0.862911	 -0.350953
O	 1.948932	 -0.587720	 -0.146651
C	 -0.928169	 1.534520	 0.605094
H	 -0.439325	 0.192616	 -1.036749
H	 0.567812	 1.627050	 -0.937367
C	 -1.788727	 0.542789	 1.382629
H	 -1.567149	 2.193498	 0.028877
H	 -0.384606	 2.170435	 1.298344
H	 -2.369728	 -0.077846	 0.709720
H	 -2.478550	 1.062041	 2.036971
H	 -1.185498	 -0.117135	 1.996348

	symmetry c1
}
set optking {
	frozen_dihedral = ("
		6 3 2 4
	")
}

ee = optimize('scf')
oeprop('DIPOLE', 'QUADRUPOLE', 'MULLIKEN_CHARGES')
f=open( 'psi4out.xyz', 'w' )
f.write( "13  " )
f.write( str(ee) + "\n" )
f.write( MOL.save_string_xyz() )
f.close()
--------------------------------------------------------------------------

    Molecular point group: c1
  Charge       = 0
  Multiplicity = 1
  Basis Set: CC-PVTZ
  Basis Set:
  @DF-RHF Final Energy:  -231.06854023334219
    Total Energy =                       -231.0685402333421052
    Molecular point group: c1
  Basis Set: CC-PVTZ
  Basis Set:
  Basis Set: CC-PVTZ
  Basis Set:
  @DF-RHF Final Energy:  -231.06786341645406
    Total Energy =                       -231.0678634164540597
  Basis Set: CC-PVTZ
  Basis Set:
  Basis Set: CC-PVTZ
  Basis Set:
  @DF-RHF Final Energy:  -231.06872689724085
    Total Energy =                       -231.0687268972407935
  Basis Set: CC-PVTZ
  Basis Set:
  Basis Set: CC-PVTZ
  Basis Set:
  @DF-RHF Final Energy:  -231.06903983824537
    Total Energy =                       -231.0690398382454021
  Basis Set: CC-PVTZ
  Basis Set:
  Basis Set: CC-PVTZ
  Basis Set:
  @DF-RHF Final Energy:  -231.06902784164532
    Total Energy =                       -231.0690278416455214
  Basis Set: CC-PVTZ
  Basis Set:
  Basis Set: CC-PVTZ
  Basis Set:
  @DF-RHF Final Energy:  -231.06905094452728
    Total Energy =                       -231.0690509445273619
  Basis Set: CC-PVTZ
  Basis Set:
  Charge       = 0
  Multiplicity = 1
  Basis Set: CC-PVTZ
  Basis Set:

    Orbital Energies (a.u.)
    -----------------------

    Doubly Occupied:

       1A    -20.551516     2A    -11.322976     3A    -11.235258
       4A    -11.234637     5A    -11.222896     6A     -1.407490
       7A     -1.088496     8A     -0.973308     9A     -0.849214
      10A     -0.793323    11A     -0.663926    12A     -0.652241
      13A     -0.631759    14A     -0.594689    15A     -0.574353
      16A     -0.529847    17A     -0.508927    18A     -0.493916
      19A     -0.484815    20A     -0.412399

  @DF-RHF Final Energy:  -231.06905139264512

   => Energetics <=

    Nuclear Repulsion Energy =            172.7033154321668462
    One-Electron Energy =                -655.0927577195315052
    Two-Electron Energy =                 251.3203908947197078
    DFT Exchange-Correlation Energy =       0.0000000000000000
    Empirical Dispersion Energy =           0.0000000000000000
    PCM Polarization Energy =               0.0000000000000000
    EFP Energy =                            0.0000000000000000
    Total Energy =                       -231.0690513926449512
    Molecular point group: c1
  Basis Set: CC-PVTZ
  Basis Set:

  -Total Gradient:
     Atom            X                  Y                   Z
    ------   -----------------  -----------------  -----------------
       1       -0.000005996189     0.000007929144    -0.000008444560
       2       -0.001273328201    -0.001467677318     0.000348368831
       3        0.001227125812     0.000717834971    -0.001119540491
       4        0.000782922251     0.000971182943    -0.000128565257
       5       -0.000009176489     0.000022058496    -0.000005693475
       6       -0.000726968832    -0.000294073715     0.000882100693
       7        0.000001013661     0.000021715187     0.000011724098
       8        0.000022641864     0.000004690630     0.000011908038
       9       -0.000000433598     0.000010463383    -0.000004595650
      10       -0.000025006311    -0.000005128732     0.000017970035
      11        0.000001508789     0.000014327745    -0.000004401119
      12        0.000006255432     0.000002497795     0.000000912134
      13       -0.000000558190    -0.000005820530    -0.000001743276

  **** Optimization is complete! (in 7 steps) ****
    Final optimized geometry and variables:
    Molecular point group: c1

    Geometry (in Angstrom), charge = 0, multiplicity = 1:

    H            1.150770958941    -0.236550762939     1.085679264578
    C            1.084138898425    -0.373987440984    -0.001045123356
    C           -0.028663215033     0.371908779017    -0.702468789681
    O            1.877734603459    -1.048060549069    -0.559931101033
    C           -1.018936644017     1.049895723485     0.241291178894
    H           -0.535435889729    -0.330625403213    -1.354994588508
    H            0.452132006434     1.103167573106    -1.344407785863
    C           -1.911368232092     0.065994495382     0.993494497088
    H           -1.640321633059     1.727272455736    -0.333056127626
    H           -0.475822012852     1.668081362350     0.951105900290
    H           -2.507537405042    -0.520481716356     0.302902737505
    H           -2.589583261748     0.586917141850     1.658373912559
    H           -1.331943549384    -0.626262571950     1.595147726575

  Mulliken Charges: (a.u.)
   Center  Symbol    Alpha    Beta     Spin     Total
       1     H     0.46100  0.46100  0.00000  0.07800
       2     C     2.91128  2.91128  0.00000  0.17744
       3     C     3.08938  3.08938  0.00000 -0.17875
       4     O     4.16542  4.16542  0.00000 -0.33084
       5     C     3.10398  3.10398  0.00000 -0.20797
       6     H     0.44071  0.44071  0.00000  0.11857
       7     H     0.43506  0.43506  0.00000  0.12988
       8     C     3.14735  3.14735  0.00000 -0.29470
       9     H     0.44408  0.44408  0.00000  0.11184
      10     H     0.45112  0.45112  0.00000  0.09775
      11     H     0.45140  0.45140  0.00000  0.09720
      12     H     0.44507  0.44507  0.00000  0.10987
      13     H     0.45415  0.45415  0.00000  0.09170

   Total alpha = 20.00000, Total beta = 20.00000, Total charge =  0.00000
