                              Psi4 1.0.54 Driver

  ==> Input File <==

--------------------------------------------------------------------------
set {
	reference rhf
	basis cc-pvtz
}

set_num_threads( 4 )
memory 2 gb

molecule MOL {
0 1

O	 1.605557	 -0.145653	 -0.838722
C	 0.860843	 0.273204	 -0.013120
C	 -0.623368	 -0.117453	 -0.005652
C	 1.376611	 1.218217	 1.054099
C	 -0.892588	 -1.253841	 -1.002900
C	 -1.473463	 1.100646	 -0.372896
C	 -0.981836	 -0.579025	 1.418506
H	 -0.609333	 -0.970024	 -2.010649
H	 -1.950451	 -1.487353	 -1.013175
H	 -0.360848	 -2.161259	 -0.746463
H	 -1.232203	 1.461623	 -1.364827
H	 -2.524364	 0.834451	 -0.354500
H	 -1.312381	 1.914833	 0.318657
H	 -2.035706	 -0.826342	 1.468082
H	 -0.425078	 -1.458934	 1.716857
H	 -0.788494	 0.205047	 2.140903
H	 1.522346	 0.667738	 1.976865
H	 2.327159	 1.616787	 0.734616
H	 0.688036	 2.025729	 1.261517

	symmetry c1
}
set optking {
	frozen_dihedral = ("
		1 2 3 5
	")
}

ee,wfn = optimize('scf', return_wfn=True)
oeprop( wfn, 'DIPOLE', 'QUADRUPOLE', 'MULLIKEN_CHARGES')
f=open( 'psi4out.xyz', 'w' )
f.write( "19  " )
f.write( str(ee) + "\n" )
f.write( MOL.save_string_xyz() )
f.close()
--------------------------------------------------------------------------

    Molecular point group: c1
  Charge       = 0
  Multiplicity = 1
  Basis Set: CC-PVTZ
  Basis Set:
  @DF-RHF Final Energy:  -309.17326781192503
    Total Energy =                       -309.1732678119253137
    Molecular point group: c1
  Basis Set: CC-PVTZ
  Basis Set:
  Basis Set: CC-PVTZ
  Basis Set:
  @DF-RHF Final Energy:  -309.17347294421018
    Total Energy =                       -309.1734729442098342
  Basis Set: CC-PVTZ
  Basis Set:
  Basis Set: CC-PVTZ
  Basis Set:
  @DF-RHF Final Energy:  -309.17417354473093
    Total Energy =                       -309.1741735447310475
  Basis Set: CC-PVTZ
  Basis Set:
  Basis Set: CC-PVTZ
  Basis Set:
  @DF-RHF Final Energy:  -309.17414722122550
    Total Energy =                       -309.1741472212253825
  Basis Set: CC-PVTZ
  Basis Set:
  @DF-RHF Final Energy:  -309.17399119651719
    Total Energy =                       -309.1739911965175907
  Basis Set: CC-PVTZ
  Basis Set:
  @DF-RHF Final Energy:  -309.17424142611566
    Total Energy =                       -309.1742414261154863
  Basis Set: CC-PVTZ
  Basis Set:
  Basis Set: CC-PVTZ
  Basis Set:
  @DF-RHF Final Energy:  -309.17424641772709
    Total Energy =                       -309.1742464177269767
  Basis Set: CC-PVTZ
  Basis Set:
  Basis Set: CC-PVTZ
  Basis Set:
  @DF-RHF Final Energy:  -309.17425600589991
    Total Energy =                       -309.1742560058996787
  Basis Set: CC-PVTZ
  Basis Set:
  Charge       = 0
  Multiplicity = 1
  Basis Set: CC-PVTZ
  Basis Set:

    Orbital Energies (a.u.)
    -----------------------

    Doubly Occupied:

       1A    -20.537391     2A    -11.317744     3A    -11.245726
       4A    -11.225053     5A    -11.222495     6A    -11.222290
       7A    -11.206141     8A     -1.398464     9A     -1.110982
      10A     -1.002888    11A     -0.948049    12A     -0.935679
      13A     -0.835968    14A     -0.705419    15A     -0.666727
      16A     -0.633940    17A     -0.621280    18A     -0.600209
      19A     -0.593461    20A     -0.565635    21A     -0.546723
      22A     -0.544758    23A     -0.523895    24A     -0.514975
      25A     -0.501490    26A     -0.472700    27A     -0.468851
      28A     -0.394924

  @DF-RHF Final Energy:  -309.17425628689000

   => Energetics <=

    Nuclear Repulsion Energy =            326.8895383951152098
    One-Electron Energy =               -1066.9998731139016854
    Two-Electron Energy =                 430.9360784318965898
    DFT Exchange-Correlation Energy =       0.0000000000000000
    Empirical Dispersion Energy =           0.0000000000000000
    PCM Polarization Energy =               0.0000000000000000
    EFP Energy =                            0.0000000000000000
    Total Energy =                       -309.1742562868898858
    Molecular point group: c1
  Basis Set: CC-PVTZ
  Basis Set:

  -Total Gradient:
     Atom            X                  Y                   Z
    ------   -----------------  -----------------  -----------------
       1        0.000127454048    -0.000347893786     0.000315907169
       2       -0.000120305563     0.000616454083    -0.000445128095
       3        0.000124897201    -0.000444260719     0.000426847144
       4        0.000051906140    -0.000005357660    -0.000040484661
       5       -0.000111706270     0.000240757804    -0.000251832479
       6       -0.000032019137    -0.000009999712     0.000024219399
       7        0.000003181948     0.000001801608    -0.000032038832
       8       -0.000017339016     0.000004695367     0.000015943495
       9        0.000005906085    -0.000011958064    -0.000007677953
      10       -0.000010622499    -0.000022504977     0.000003917373
      11        0.000014335541    -0.000000413343     0.000014247371
      12       -0.000007914902    -0.000006251607    -0.000006297604
      13        0.000008077070    -0.000019014669    -0.000006407788
      14       -0.000016792890    -0.000009130643    -0.000003169557
      15        0.000009141270     0.000001838008    -0.000001365877
      16       -0.000004133055     0.000014290655    -0.000008213132
      17        0.000004119284     0.000003044517     0.000000606329
      18       -0.000021137823    -0.000006180777     0.000013359040
      19       -0.000007047433     0.000000083916    -0.000012431343

  **** Optimization is complete! (in 9 steps) ****
    Final optimized geometry and variables:
    Molecular point group: c1

    Geometry (in Angstrom), charge = 0, multiplicity = 1:

    O            1.621037780590    -0.249908865466    -0.864735170627
    C            0.883406445801     0.182509126699    -0.039808813054
    C           -0.608330631837    -0.177673045269    -0.032535450544
    C            1.422900528389     1.099991355067     1.040278181498
    C           -0.866728387492    -1.304154150267    -1.034980820638
    C           -1.409515700273     1.067792740958    -0.452416878396
    C           -1.040886179983    -0.624328923848     1.372016632331
    H           -0.579153369401    -1.012980810347    -2.035131810623
    H           -1.921005442146    -1.557275941346    -1.039290032212
    H           -0.304528233067    -2.193196549887    -0.779632946082
    H           -1.099319127519     1.418901097170    -1.429702027901
    H           -2.463473984863     0.822028532940    -0.506677760746
    H           -1.300440684673     1.884065523063     0.250531017435
    H           -2.084205054787    -0.916056919785     1.357630618515
    H           -0.464703239762    -1.479403912745     1.708334119055
    H           -0.932476253082     0.164838522154     2.105266497074
    H            1.594952816529     0.520123988869     1.940395315046
    H            2.365372563162     1.508419893302     0.709286296846
    H            0.740922475720     1.899872961151     1.291764651278

  Mulliken Charges: (a.u.)
   Center  Symbol    Alpha    Beta     Spin     Total
       1     O     4.17491  4.17491  0.00000 -0.34982
       2     C     2.85376  2.85376  0.00000  0.29249
       3     C     3.00902  3.00902  0.00000 -0.01804
       4     C     3.16281  3.16281  0.00000 -0.32561
       5     C     3.14976  3.14976  0.00000 -0.29952
       6     C     3.15988  3.15988  0.00000 -0.31977
       7     C     3.16356  3.16356  0.00000 -0.32712
       8     H     0.44055  0.44055  0.00000  0.11891
       9     H     0.45205  0.45205  0.00000  0.09589
      10     H     0.44554  0.44554  0.00000  0.10891
      11     H     0.44193  0.44193  0.00000  0.11615
      12     H     0.44494  0.44494  0.00000  0.11012
      13     H     0.44585  0.44585  0.00000  0.10831
      14     H     0.44297  0.44297  0.00000  0.11405
      15     H     0.44277  0.44277  0.00000  0.11447
      16     H     0.44591  0.44591  0.00000  0.10819
      17     H     0.44520  0.44520  0.00000  0.10959
      18     H     0.43179  0.43179  0.00000  0.13642
      19     H     0.44681  0.44681  0.00000  0.10637

   Total alpha = 28.00000, Total beta = 28.00000, Total charge = -0.00000

*** Psi4 exiting successfully. Buy a developer a beer!
